Title
82308
    1SAPS     N    1   5.396   6.118  11.029 -0.3707  0.5779 -0.1027
    1SAPS   HN1    2   5.363   6.185  10.956  1.8491 -0.0549 -1.7811
    1SAPS   HN2    3   5.312   6.074  11.072  0.3137  0.3032  0.9647
    1SAPS   HN3    4   5.451   6.165  11.103 -0.4414  1.1083 -0.3784
    1SAPS   C12    5   5.468   6.014  10.951  0.3135 -0.6742 -0.6523
    1SAPS  H12A    6   5.521   5.955  11.024  0.0044 -0.7226 -0.4662
    1SAPS   C13    7   5.385   5.930  10.853  0.1896  0.0213 -0.1908
    1SAPS  O13A    8   5.255   5.936  10.855 -0.6772  0.1376  0.1921
    1SAPS  O13B    9   5.441   5.818  10.831 -0.3263 -0.3504  0.7087
    1SAPS   C11   10   5.580   6.084  10.862  0.1497  0.1228  0.4978
    1SAPS  H11A   11   5.526   6.146  10.788 -1.5866  0.2656  1.8327
    1SAPS  H11B   12   5.630   6.010  10.796 -0.2071  1.6929 -1.6201
    1SAPS     P   13   5.712   6.294  10.913  0.1886 -0.0865  0.6543
    1SAPS   O13   14   5.597   6.376  10.945  0.0708  0.2576 -0.4756
    1SAPS   O14   15   5.841   6.334  10.974 -0.3184  0.4093 -0.2038
    1SAPS   O12   16   5.680   6.145  10.939  0.1012 -0.2179  0.5830
    1SAPS   O11   17   5.730   6.295  10.753  0.8537  0.4706 -0.0562
    1SAPS    C1   18   5.840   6.225  10.689  0.2389 -0.3395  0.1000
    1SAPS    HA   19   5.888   6.146  10.751 -1.7551 -0.2477  1.8585
    1SAPS    HB   20   5.801   6.166  10.604  0.0560  0.6331 -0.5183
    1SAPS    C2   21   5.936   6.327  10.621 -0.1367 -0.3588  0.3838
    1SAPS    HS   22   5.987   6.382  10.702  1.4076  2.0164 -2.0307
    1SAPS   O21   23   5.867   6.415  10.534  0.0589  0.5213  0.2671
    1SAPS   C21   24   5.932   6.530  10.512  0.3961  0.3895 -0.4545
    1SAPS   O22   25   6.025   6.568  10.578  0.3203  0.3237 -0.0736
    1SAPS   C22   26   5.839   6.620  10.425 -0.5444  0.3250  0.2277
    1SAPS   H2R   27   5.768   6.560  10.365 -1.1547 -0.0164  1.2591
    1SAPS   H2S   28   5.785   6.683  10.499 -3.8257 -1.0513 -0.8534
    1SAPS    C3   29   6.045   6.251  10.537 -0.1039  0.0488  0.0488
    1SAPS    HX   30   6.005   6.186  10.457 -1.4607  0.7470  0.1267
    1SAPS    HY   31   6.081   6.179  10.613 -2.4083 -2.2131 -0.8733
    1SAPS   O31   32   6.157   6.331  10.498 -0.6401 -0.2747  0.4113
    1SAPS   C31   33   6.255   6.358  10.581  0.2238  0.9700  0.6862
    1SAPS   O32   34   6.257   6.330  10.702  0.2430 -0.2788 -0.0759
    1SAPS   C32   35   6.370   6.435  10.509  0.3652  0.6543  0.2660
    1SAPS   H2X   36   6.455   6.364  10.505  0.0222  0.3077 -1.3750
    1SAPS   H2Y   37   6.396   6.529  10.563  0.7179  0.3379  0.6501
    1SAPS   C23   38   5.904   6.730  10.334 -0.1693 -0.3418  0.3224
    1SAPS   H3R   39   5.992   6.683  10.286  0.6290 -1.3243  2.6023
    1SAPS   H3S   40   5.949   6.802  10.406 -0.3091 -1.1664  1.2394
    1SAPS   C24   41   5.797   6.800  10.252  0.2393  0.7032 -0.3627
    1SAPS   H4R   42   5.731   6.848  10.328 -0.6711 -0.5693 -0.3027
    1SAPS   H4S   43   5.733   6.719  10.209  2.1737 -0.3919 -1.3100
    1SAPS   C25   44   5.878   6.893  10.156  0.1978  0.4246 -0.5824
    1SAPS   H5R   45   5.874   6.999  10.186 -1.7666  0.3447 -0.3941
    1SAPS   C26   46   5.929   6.861  10.039  0.6655  0.2859 -0.3343
    1SAPS   H6R   47   5.986   6.937   9.984 -0.1586  0.6767 -0.6716
    1SAPS   C27   48   5.930   6.728   9.966  0.0719  0.0428 -0.7801
    1SAPS   H7R   49   5.842   6.723   9.898 -0.0061 -3.5973 -0.6255
    1SAPS   H7S   50   5.918   6.651  10.045 -2.5021  1.1332 -0.0111
    1SAPS   C28   51   6.056   6.699   9.884  0.6252 -0.2516  1.1942
    1SAPS   H8R   52   6.128   6.632   9.933 -2.9670 -3.3059  2.8586
    1SAPS   C29   53   6.090   6.744   9.757 -0.1088  0.4182 -0.4355
    1SAPS   H9R   54   6.181   6.697   9.717 -0.1883 -2.4501  2.3428
    1SAPS  C210   55   6.014   6.837   9.674  0.1370 -0.4379  0.7410
    1SAPS  H10R   56   6.056   6.939   9.687  1.9905 -0.7792 -1.7492
    1SAPS  H10S   57   5.911   6.837   9.714  0.6942 -0.6014  2.2432
    1SAPS  C211   58   6.023   6.800   9.527  0.4417  0.3051 -0.4268
    1SAPS  H11R   59   5.992   6.698   9.499 -1.8591  0.5412  0.9528
    1SAPS  C212   60   6.076   6.870   9.430 -0.4284 -0.2156  0.1467
    1SAPS  H12R   61   6.076   6.822   9.331 -0.8417  1.5206 -0.7332
    1SAPS  C213   62   6.127   7.010   9.434  0.3772 -0.0957  0.5170
    1SAPS  H13R   63   6.220   7.026   9.375  0.6858  0.1859  1.0653
    1SAPS  H13S   64   6.171   7.036   9.533  2.9135  3.2694 -1.3053
    1SAPS  C214   65   6.012   7.100   9.403 -1.0371  0.4523  0.3519
    1SAPS  H14R   66   5.945   7.111   9.489 -0.2246  1.6248  0.8582
    1SAPS  C215   67   5.998   7.171   9.291 -0.1977 -0.1073  0.6493
    1SAPS  H15R   68   5.904   7.227   9.281 -0.1325 -0.0846  0.1336
    1SAPS  C216   69   6.089   7.167   9.167 -0.1538 -0.0872 -0.4268
    1SAPS  H16R   70   6.185   7.120   9.195  0.1566  1.0921  0.6250
    1SAPS  H16S   71   6.116   7.273   9.146  0.0049  0.2712  1.3796
    1SAPS  C217   72   6.018   7.106   9.042 -0.4619 -0.5316  0.3790
    1SAPS  H17R   73   6.079   7.136   8.954 -2.7296  0.1558 -1.0325
    1SAPS  H17S   74   5.915   7.141   9.016  0.3781  0.3726 -2.0491
    1SAPS  C218   75   6.016   6.953   9.047  0.6949 -0.6557  0.6274
    1SAPS  H18R   76   5.941   6.929   9.125  0.2796  0.9414  0.7578
    1SAPS  H18S   77   6.117   6.925   9.084 -0.2247 -0.7921  3.2434
    1SAPS  C219   78   5.986   6.882   8.912 -0.4561  0.3730  0.4118
    1SAPS  H19R   79   6.028   6.937   8.825 -4.3612  1.2490 -1.1642
    1SAPS  H19S   80   5.877   6.894   8.894 -0.4961  2.1622  1.6173
    1SAPS  C220   81   6.044   6.735   8.916 -0.0965  0.5226  0.4221
    1SAPS  H20R   82   5.990   6.673   8.991  0.2973 -0.6457 -0.2250
    1SAPS  H20S   83   6.150   6.742   8.949 -0.0817 -0.6921  0.6863
    1SAPS  H20T   84   6.038   6.686   8.816 -1.7617  0.4766  0.5132
    1SAPS   C33   85   6.337   6.481  10.362  0.1754  0.2260 -0.3773
    1SAPS   H3X   86   6.404   6.568  10.344 -2.0513  2.5571  1.7478
    1SAPS   H3Y   87   6.234   6.520  10.356 -0.0737 -0.5732 -1.8424
    1SAPS   C34   88   6.347   6.376  10.247 -0.2929  0.3533 -0.8226
    1SAPS   H4X   89   6.270   6.298  10.261 -0.9515  1.1222  0.0007
    1SAPS   H4Y   90   6.445   6.325  10.258  0.9453  2.6529 -0.4676
    1SAPS   C35   91   6.357   6.444  10.113 -0.1202  0.4642  0.6323
    1SAPS   H5X   92   6.427   6.530  10.104 -2.6444  2.4723 -2.4258
    1SAPS   H5Y   93   6.255   6.487  10.102 -0.7948 -1.0226  0.8541
    1SAPS   C36   94   6.386   6.354   9.992  0.1992  0.4787  0.1166
    1SAPS   H6X   95   6.313   6.270   9.992  2.1413 -1.3114  0.9826
    1SAPS   H6Y   96   6.487   6.309  10.004  0.1389  0.4118  0.3789
    1SAPS   C37   97   6.385   6.433   9.859  0.1017 -0.1801 -0.2683
    1SAPS   H7X   98   6.478   6.493   9.856  0.8679 -1.1391  2.0519
    1SAPS   H7Y   99   6.306   6.509   9.843  1.6420  1.2205 -1.5771
    1SAPS   C38  100   6.379   6.344   9.736 -0.4269 -0.4685 -0.0249
    1SAPS   H8X  101   6.278   6.307   9.710 -0.8475  0.5095  0.1726
    1SAPS   H8Y  102   6.441   6.256   9.761  0.2397  0.5155  2.0735
    1SAPS   C39  103   6.434   6.415   9.605 -0.0672  1.2139  0.0689
    1SAPS   H9X  104   6.448   6.327   9.538  3.0974 -1.1711  3.4333
    1SAPS   H9Y  105   6.534   6.458   9.629  0.5496 -0.6236  1.0257
    1SAPS  C310  106   6.344   6.526   9.553  0.6042  0.1192  0.0866
    1SAPS  H10X  107   6.364   6.617   9.613  1.9779 -0.0701 -0.0399
    1SAPS  H10Y  108   6.235   6.505   9.556  0.1149  2.3569 -0.3845
    1SAPS  C311  109   6.381   6.581   9.402 -0.2896 -0.2077  0.0049
    1SAPS  H11X  110   6.487   6.612   9.388  0.4029 -2.7333 -0.7561
    1SAPS  H11Y  111   6.316   6.671   9.393 -1.5482 -1.2558 -1.8750
    1SAPS  C312  112   6.330   6.480   9.302 -0.3360  0.4905 -0.3712
    1SAPS  H12X  113   6.242   6.427   9.343 -2.2179  2.7998 -1.2463
    1SAPS  H12Y  114   6.412   6.406   9.286  1.3995  1.8835  1.5995
    1SAPS  C313  115   6.272   6.542   9.173  0.6559  0.4086 -0.2888
    1SAPS  H13X  116   6.337   6.623   9.132  0.9105 -0.4135 -1.5835
    1SAPS  H13Y  117   6.173   6.584   9.200 -0.5319  0.1259 -3.6724
    1SAPS  C314  118   6.244   6.437   9.062 -0.0718  0.8816 -0.3547
    1SAPS  H14X  119   6.209   6.481   8.967  2.3203 -0.6582 -2.0546
    1SAPS  H14Y  120   6.167   6.373   9.112 -0.4644  1.7549  0.1744
    1SAPS  C315  121   6.370   6.360   9.022 -0.1413 -0.4366 -0.3738
    1SAPS  H15X  122   6.423   6.297   9.096  1.1006  1.5512  0.4974
    1SAPS  H15Y  123   6.442   6.433   8.980  1.0878 -0.2797  1.8673
    1SAPS  C316  124   6.340   6.261   8.910 -0.1831 -0.1803 -0.5817
    1SAPS  H16X  125   6.359   6.319   8.817  1.3932  0.6877  0.2424
    1SAPS  H16Y  126   6.236   6.224   8.921  0.0790 -0.5431  0.9262
    1SAPS  C317  127   6.440   6.138   8.904 -0.6446  0.5471  0.0381
    1SAPS  H17X  128   6.409   6.061   8.830  1.7663 -0.1784 -0.3057
    1SAPS  H17Y  129   6.430   6.084   9.001  2.7610  1.8830  1.2548
    1SAPS  C318  130   6.583   6.182   8.888 -0.2188 -0.8472  0.2710
    1SAPS  H18X  131   6.596   6.273   8.950 -0.0432 -0.5101 -0.2509
    1SAPS  H18Y  132   6.612   6.209   8.784 -0.1020 -0.8765  0.2956
    1SAPS  H18Z  133   6.655   6.102   8.915  0.3548 -0.7952 -0.9997
    2SAPS     N  134   4.046   4.723  11.147  0.6130  0.2586 -0.5346
    2SAPS   HN1  135   3.988   4.691  11.066  1.5010 -0.9896 -0.7053
    2SAPS   HN2  136   4.112   4.645  11.170 -0.1183 -0.5385 -1.0621
    2SAPS   HN3  137   3.982   4.728  11.229 -0.0962  1.8791 -1.1488
    2SAPS   C12  138   4.100   4.856  11.122 -0.7659  0.0993  0.0111
    2SAPS  H12A  139   4.017   4.923  11.105  0.9493  2.1354 -0.6827
    2SAPS   C13  140   4.179   4.916  11.239 -0.7567  0.1562 -0.6154
    2SAPS  O13A  141   4.192   4.849  11.342 -0.8045 -0.0606 -0.3520
    2SAPS  O13B  142   4.249   5.026  11.232  0.5150 -0.3708  0.1846
    2SAPS   C11  143   4.189   4.849  10.996 -0.0723  0.6201 -0.2267
    2SAPS  H11A  144   4.254   4.759  11.003 -0.7585  0.1712  0.6388
    2SAPS  H11B  145   4.255   4.937  10.984  0.1190  0.3665 -1.0970
    2SAPS     P  146   4.072   4.961  10.783  0.0042 -0.0974 -0.0320
    2SAPS   O13  147   3.926   4.962  10.754  0.0599 -0.1341 -0.4049
    2SAPS   O14  148   4.129   5.082  10.841 -0.1524 -0.5674 -0.3286
    2SAPS   O12  149   4.111   4.839  10.879 -0.5606  0.0656  0.7939
    2SAPS   O11  150   4.143   4.935  10.641 -0.2285 -0.4567  0.3742
    2SAPS    C1  151   4.206   4.811  10.605 -0.5085  0.2023 -0.7169
    2SAPS    HA  152   4.301   4.840  10.555 -0.7376  1.8738 -0.2589
    2SAPS    HB  153   4.226   4.747  10.694 -4.7125 -1.8446 -1.0378
    2SAPS    C2  154   4.123   4.719  10.517  0.2309 -0.2737  0.1222
    2SAPS    HS  155   4.160   4.614  10.515  1.2216  0.0272  1.3875
    2SAPS   O21  156   4.117   4.776  10.382  0.1564 -0.3128  0.0818
    2SAPS   C21  157   4.225   4.746  10.306  0.4223  0.6110 -0.1025
    2SAPS   O22  158   4.314   4.673  10.348 -0.5759  0.8881  0.1489
    2SAPS   C22  159   4.237   4.809  10.172 -0.1286 -0.1500 -0.9624
    2SAPS   H2R  160   4.209   4.916  10.180 -1.8863 -0.6651  0.0809
    2SAPS   H2S  161   4.339   4.797  10.128 -0.1694 -1.3581 -0.7693
    2SAPS    C3  162   3.972   4.710  10.563 -0.1156 -0.2949 -0.4448
    2SAPS    HX  163   3.934   4.812  10.543 -2.1147 -1.2536 -1.9228
    2SAPS    HY  164   3.968   4.684  10.671  0.0603 -1.6673 -0.7411
    2SAPS   O31  165   3.899   4.606  10.494 -0.0926 -0.0105 -0.2410
    2SAPS   C31  166   3.773   4.630  10.489  0.5149 -0.2351 -0.2504
    2SAPS   O32  167   3.714   4.721  10.544  0.1881 -0.0015 -0.3524
    2SAPS   C32  168   3.692   4.528  10.410 -0.2388  0.0603 -0.2288
    2SAPS   H2X  169   3.604   4.488  10.464  0.3693 -1.4992 -0.3491
    2SAPS   H2Y  170   3.762   4.442  10.402 -1.4449 -1.1149  1.2979
    2SAPS   C23  171   4.141   4.739  10.070  0.4034 -0.8042 -0.4088
    2SAPS   H3R  172   4.159   4.784   9.970  0.8020  0.2396  0.1138
    2SAPS   H3S  173   4.038   4.765  10.102  1.5688  2.3949  1.2482
    2SAPS   C24  174   4.165   4.586  10.049  0.2799 -0.0243 -0.0230
    2SAPS   H4R  175   4.145   4.531  10.144  1.9407  0.1247  0.4487
    2SAPS   H4S  176   4.270   4.567  10.020  0.0724 -0.9893 -0.1772
    2SAPS   C25  177   4.064   4.531   9.951  0.2263  0.9057  0.2494
    2SAPS   H5R  178   3.976   4.479   9.994  1.5479 -1.4302  0.3128
    2SAPS   C26  179   4.059   4.545   9.817 -0.2038 -0.7460 -0.2108
    2SAPS   H6R  180   3.979   4.499   9.757 -1.6227 -1.2952  1.9727
    2SAPS   C27  181   4.176   4.610   9.744  0.4008  0.5437 -0.3727
    2SAPS   H7R  182   4.270   4.604   9.803 -0.8228 -1.4808  1.5046
    2SAPS   H7S  183   4.150   4.717   9.756 -1.8923 -0.0836  0.7376
    2SAPS   C28  184   4.202   4.575   9.606  0.0565 -0.4410 -0.3773
    2SAPS   H8R  185   4.215   4.467   9.589  0.5915 -1.0585  3.1532
    2SAPS   C29  186   4.203   4.666   9.506 -0.4968 -0.0008  0.1369
    2SAPS   H9R  187   4.233   4.624   9.409  2.1122 -0.4245  1.0501
    2SAPS  C210  188   4.181   4.815   9.514 -0.5224  0.7162 -0.1001
    2SAPS  H10R  189   4.194   4.847   9.619  2.1301 -1.8845  0.4929
    2SAPS  H10S  190   4.075   4.833   9.486 -1.1059  0.9812  2.0956
    2SAPS  C211  191   4.285   4.888   9.421 -0.2387  0.3853  0.0808
    2SAPS  H11R  192   4.345   4.957   9.482 -2.2916 -0.4004  3.2290
    2SAPS  C212  193   4.288   4.890   9.283  0.0366 -0.1982 -0.1066
    2SAPS  H12R  194   4.370   4.953   9.244 -0.3019  0.4207  0.1641
    2SAPS  C213  195   4.187   4.826   9.190  0.3893  0.1175 -0.1306
    2SAPS  H13R  196   4.094   4.829   9.251  2.4335  0.2905  3.2907
    2SAPS  H13S  197   4.214   4.724   9.157  0.5832  0.3052 -0.5614
    2SAPS  C214  198   4.148   4.897   9.065 -0.1082  0.2161  0.2370
    2SAPS  H14R  199   4.069   4.974   9.073 -2.2342 -1.9420  1.6239
    2SAPS  C215  200   4.190   4.856   8.940 -0.0444  0.1168 -0.2888
    2SAPS  H15R  201   4.146   4.902   8.851  3.2378  0.4388 -1.9024
    2SAPS  C216  202   4.278   4.732   8.899  0.2088  0.1249  0.2063
    2SAPS  H16R  203   4.316   4.676   8.987 -1.3826 -0.1401  0.7590
    2SAPS  H16S  204   4.368   4.766   8.843  0.4167  0.7788  0.9265
    2SAPS  C217  205   4.192   4.636   8.815 -0.3403  0.1026 -0.5186
    2SAPS  H17R  206   4.115   4.587   8.878  1.4311 -2.0134  0.1458
    2SAPS  H17S  207   4.259   4.553   8.785  0.9533  1.1394 -0.6309
    2SAPS  C218  208   4.114   4.698   8.697 -0.2534 -0.6011 -0.5118
    2SAPS  H18R  209   4.185   4.761   8.639  2.3662 -0.1855  2.7833
    2SAPS  H18S  210   4.037   4.758   8.751  1.9120  3.0292 -1.0923
    2SAPS  C219  211   4.033   4.590   8.616  0.0647  0.4772 -0.5128
    2SAPS  H19R  212   3.967   4.555   8.698  1.8805 -0.9404  0.4368
    2SAPS  H19S  213   4.096   4.506   8.579 -2.4957 -1.8434  0.0748
    2SAPS  C220  214   3.963   4.634   8.490  0.6928 -0.1380  0.0805
    2SAPS  H20R  215   4.042   4.673   8.422  1.9671 -0.8185  1.1275
    2SAPS  H20S  216   3.890   4.715   8.511  2.5557  1.7168 -0.3378
    2SAPS  H20T  217   3.918   4.545   8.442  0.8771  0.3625 -1.0435
    2SAPS   C33  218   3.643   4.567  10.266  0.5059 -0.2679 -0.1423
    2SAPS   H3X  219   3.730   4.603  10.206  1.1772 -3.4408 -1.2444
    2SAPS   H3Y  220   3.567   4.645  10.284  1.0244  0.1317  0.3662
    2SAPS   C34  221   3.578   4.457  10.184  0.2741  0.6362 -0.0110
    2SAPS   H4X  222   3.480   4.434  10.232 -0.2446 -0.1093 -1.3653
    2SAPS   H4Y  223   3.631   4.359  10.183 -0.0901  0.4375 -0.3314
    2SAPS   C35  224   3.533   4.502  10.044 -0.0967 -0.5736  0.1630
    2SAPS   H5X  225   3.629   4.521   9.991 -0.0440 -0.1896  0.3927
    2SAPS   H5Y  226   3.480   4.600  10.039 -0.6625 -0.8975 -0.3379
    2SAPS   C36  227   3.486   4.387   9.966 -0.5315  0.5402  0.3871
    2SAPS   H6X  228   3.379   4.362   9.977  0.0904 -2.4219  0.5574
    2SAPS   H6Y  229   3.534   4.291   9.996 -0.6649  0.2418 -0.3343
    2SAPS   C37  230   3.510   4.419   9.815 -0.6388  0.6848 -0.0414
    2SAPS   H7X  231   3.503   4.327   9.753  1.8078  1.7055 -1.9870
    2SAPS   H7Y  232   3.606   4.473   9.798 -0.8676  1.0094 -0.3114
    2SAPS   C38  233   3.401   4.515   9.765  0.2900 -0.0186  0.0789
    2SAPS   H8X  234   3.400   4.612   9.820  1.3435 -0.3305  0.6827
    2SAPS   H8Y  235   3.300   4.472   9.782  0.6906 -0.6998  0.7784
    2SAPS   C39  236   3.431   4.541   9.618 -0.2863 -0.3091  0.3649
    2SAPS   H9X  237   3.538   4.565   9.600 -0.5160  0.8414  0.4467
    2SAPS   H9Y  238   3.375   4.630   9.580  0.0940 -0.8499 -1.5937
    2SAPS  C310  239   3.390   4.423   9.525  0.3632  0.6517  0.5357
    2SAPS  H10X  240   3.287   4.387   9.544 -0.0114 -1.4018 -4.1236
    2SAPS  H10Y  241   3.451   4.337   9.558 -0.2711 -0.7363 -1.7473
    2SAPS  C311  242   3.397   4.463   9.374 -0.0410  0.5170 -0.0500
    2SAPS  H11X  243   3.477   4.415   9.314 -1.0820  0.3251 -1.3398
    2SAPS  H11Y  244   3.416   4.573   9.371 -2.3236  0.9663  0.0928
    2SAPS  C312  245   3.267   4.436   9.297 -0.0348  0.5152  0.1313
    2SAPS  H12X  246   3.192   4.497   9.352 -1.2010  1.3526 -2.1977
    2SAPS  H12Y  247   3.226   4.333   9.307  3.3230 -0.6705  3.6352
    2SAPS  C313  248   3.266   4.469   9.145 -0.3186 -0.4856 -0.3837
    2SAPS  H13X  249   3.333   4.556   9.131 -0.5761  0.0155  1.3063
    2SAPS  H13Y  250   3.166   4.511   9.119 -1.1158 -1.4726  0.9018
    2SAPS  C314  251   3.323   4.357   9.062  0.3118  0.4803  0.1465
    2SAPS  H14X  252   3.247   4.279   9.041  1.9839 -1.0767 -0.3250
    2SAPS  H14Y  253   3.398   4.302   9.122 -1.7005 -1.4664  1.0184
    2SAPS  C315  254   3.394   4.403   8.933 -0.0563  0.2803  0.6675
    2SAPS  H15X  255   3.335   4.461   8.859  2.1396  0.5046 -0.9986
    2SAPS  H15Y  256   3.404   4.311   8.870 -0.6845  0.9928 -0.5170
    2SAPS  C316  257   3.528   4.484   8.947 -0.0675  0.3999 -0.2374
    2SAPS  H16X  258   3.620   4.422   8.954  0.3832  0.5622 -3.2313
    2SAPS  H16Y  259   3.515   4.538   9.043 -0.0321 -2.4116  1.4408
    2SAPS  C317  260   3.552   4.579   8.829  0.4847 -0.2782 -0.9790
    2SAPS  H17X  261   3.632   4.648   8.863 -0.1768 -0.4131  0.9543
    2SAPS  H17Y  262   3.465   4.646   8.814  2.9558  3.4895  0.1743
    2SAPS  C318  263   3.606   4.510   8.701 -0.2708 -0.4684 -0.1700
    2SAPS  H18X  264   3.521   4.472   8.640  0.8353 -1.7106 -1.0004
    2SAPS  H18Y  265   3.671   4.422   8.723 -1.4234 -1.9424 -2.3152
    2SAPS  H18Z  266   3.667   4.579   8.639  0.8444 -0.5736  0.7727
    3SAPS     N  267   5.555   0.612  10.810 -0.6152 -0.0740  0.2980
    3SAPS   HN1  268   5.571   0.522  10.761  0.2337  0.5399 -0.5925
    3SAPS   HN2  269   5.481   0.591  10.880 -0.6044 -1.2661 -0.0372
    3SAPS   HN3  270   5.509   0.674  10.740  2.3374  1.6519 -0.3000
    3SAPS   C12  271   5.671   0.678  10.873 -0.9841  0.3465  0.9118
    3SAPS  H12A  272   5.745   0.667  10.796 -0.6874 -1.4862  1.4110
    3SAPS   C13  273   5.666   0.828  10.912 -0.2060  0.3258  0.2052
    3SAPS  O13A  274   5.556   0.884  10.915  0.4409 -0.0331 -0.6692
    3SAPS  O13B  275   5.766   0.879  10.975  0.5358  0.1817  0.0259
    3SAPS   C11  276   5.708   0.590  11.005 -0.6514 -0.7375  0.3317
    3SAPS  H11A  277   5.622   0.602  11.074 -1.0350  1.1393 -0.4193
    3SAPS  H11B  278   5.792   0.644  11.053  0.9008 -1.3634 -1.5518
    3SAPS     P  279   5.884   0.386  10.949 -0.1295  0.0320 -0.2229
    3SAPS   O13  280   5.992   0.475  10.993  0.4247  0.2124 -0.2745
    3SAPS   O14  281   5.896   0.246  10.999  0.5054  0.3808  1.0146
    3SAPS   O12  282   5.742   0.453  10.968 -0.0150 -0.0578  0.4043
    3SAPS   O11  283   5.878   0.393  10.795 -0.2257  0.4609 -0.2899
    3SAPS    C1  284   5.934   0.284  10.715 -0.2031  0.1158 -0.2831
    3SAPS    HA  285   6.019   0.229  10.760  1.1791  2.2744 -0.1281
    3SAPS    HB  286   5.857   0.208  10.690  1.2992 -1.8945  0.8720
    3SAPS    C2  287   5.974   0.334  10.569 -0.8259  0.0314 -0.4883
    3SAPS    HS  288   6.055   0.410  10.576 -1.7872  1.4814 -3.4014
    3SAPS   O21  289   5.861   0.390  10.505  0.4597  0.3590 -0.2762
    3SAPS   C21  290   5.868   0.509  10.456  0.4871 -0.4616 -0.6799
    3SAPS   O22  291   5.974   0.576  10.445  0.1016 -0.5575 -0.1660
    3SAPS   C22  292   5.736   0.554  10.394 -0.0387 -0.2212 -0.6419
    3SAPS   H2R  293   5.722   0.502  10.297  0.3136 -0.5042 -0.5423
    3SAPS   H2S  294   5.647   0.536  10.458  0.6005  1.6605  0.8761
    3SAPS    C3  295   6.028   0.218  10.484  0.3092  0.0815  0.5241
    3SAPS    HX  296   5.945   0.144  10.475  2.1576 -1.9394 -1.2137
    3SAPS    HY  297   6.111   0.163  10.532 -0.6252 -0.8168  1.1694
    3SAPS   O31  298   6.059   0.257  10.351 -0.1504 -0.1080  0.9447
    3SAPS   C31  299   6.174   0.325  10.326 -0.8958 -0.7458  0.0637
    3SAPS   O32  300   6.258   0.353  10.413  0.4536 -0.8030  1.0154
    3SAPS   C32  301   6.186   0.369  10.181 -0.3807  0.0046 -0.5228
    3SAPS   H2X  302   6.170   0.275  10.122  0.9567 -1.8129  1.8439
    3SAPS   H2Y  303   6.291   0.396  10.161 -0.5188  0.5407 -0.5355
    3SAPS   C23  304   5.747   0.703  10.358  0.6849  0.2211 -0.2987
    3SAPS   H3R  305   5.814   0.763  10.424 -0.3656  0.3685  0.6631
    3SAPS   H3S  306   5.648   0.751  10.372  0.3945 -0.5437  0.3234
    3SAPS   C24  307   5.773   0.723  10.201  0.0289  0.4621  0.0371
    3SAPS   H4R  308   5.693   0.669  10.147  0.7379 -0.4331 -0.1399
    3SAPS   H4S  309   5.869   0.683  10.164 -0.6733  0.3498 -1.7237
    3SAPS   C25  310   5.770   0.870  10.178 -0.1176  0.0801  0.4017
    3SAPS   H5R  311   5.835   0.928  10.245  1.4993 -0.0893 -0.9739
    3SAPS   C26  312   5.695   0.937  10.090 -0.0518 -0.0051 -0.3707
    3SAPS   H6R  313   5.706   1.046  10.086 -0.8539  0.0901 -0.1879
    3SAPS   C27  314   5.605   0.864   9.990  0.3007  0.5177 -0.6269
    3SAPS   H7R  315   5.654   0.778   9.940 -1.5611 -0.5909 -0.6399
    3SAPS   H7S  316   5.592   0.942   9.913  1.4061 -0.6886 -2.1023
    3SAPS   C28  317   5.477   0.823  10.055  0.0869  0.8598  0.2817
    3SAPS   H8R  318   5.479   0.788  10.159 -1.9033  2.3228  0.8688
    3SAPS   C29  319   5.361   0.842   9.990 -0.7828  0.5024 -0.1838
    3SAPS   H9R  320   5.270   0.818  10.046  0.6601 -1.0230  1.6732
    3SAPS  C210  321   5.338   0.893   9.843 -0.1240 -0.8292 -0.0476
    3SAPS  H10R  322   5.432   0.914   9.788  0.2937 -0.0839  0.9222
    3SAPS  H10S  323   5.292   0.993   9.850 -0.0039 -0.8332  1.0247
    3SAPS  C211  324   5.245   0.807   9.753 -0.5037 -0.2794 -0.6807
    3SAPS  H11R  325   5.140   0.817   9.784 -0.4420  0.1921 -0.6077
    3SAPS  C212  326   5.287   0.741   9.648  0.1672 -0.0856  0.7868
    3SAPS  H12R  327   5.219   0.684   9.584  1.5635  2.6514 -3.6045
    3SAPS  C213  328   5.434   0.728   9.607 -0.3713 -0.0180  0.8374
    3SAPS  H13R  329   5.508   0.746   9.687  0.9097  1.4913 -0.6171
    3SAPS  H13S  330   5.455   0.801   9.526 -0.2153  1.7933  2.4455
    3SAPS  C214  331   5.466   0.588   9.560  0.1111  0.2911  0.2842
    3SAPS  H14R  332   5.481   0.520   9.645  0.1288  0.9396  0.8021
    3SAPS  C215  333   5.492   0.543   9.431  0.1514 -0.5828 -0.5813
    3SAPS  H15R  334   5.519   0.438   9.414  2.6839 -0.1777  0.4688
    3SAPS  C216  335   5.482   0.632   9.308 -0.6212  0.5538 -0.5805
    3SAPS  H16R  336   5.406   0.711   9.323 -0.9109  0.5673 -1.9413
    3SAPS  H16S  337   5.437   0.565   9.232  1.2372  0.8385 -2.0233
    3SAPS  C217  338   5.616   0.691   9.264 -0.2824  0.2307 -0.3828
    3SAPS  H17R  339   5.648   0.756   9.349 -1.1475  0.9004 -0.5600
    3SAPS  H17S  340   5.594   0.768   9.187 -0.3925  0.0949 -0.4871
    3SAPS  C218  341   5.715   0.596   9.206 -0.0275 -0.4321  0.3916
    3SAPS  H18R  342   5.667   0.527   9.132  0.2931  0.7068 -0.9142
    3SAPS  H18S  343   5.753   0.524   9.282  0.5834 -0.0791  0.4218
    3SAPS  C219  344   5.819   0.671   9.129  0.0576 -0.6404  0.7768
    3SAPS  H19R  345   5.770   0.698   9.033  0.5895 -2.6087 -0.1058
    3SAPS  H19S  346   5.904   0.602   9.110  1.0167  1.1122 -1.6699
    3SAPS  C220  347   5.886   0.795   9.189  0.0508  0.2769 -0.3520
    3SAPS  H20R  348   5.807   0.873   9.199 -1.4944 -1.2643 -0.0091
    3SAPS  H20S  349   5.986   0.833   9.159  0.6329  1.0638  2.2954
    3SAPS  H20T  350   5.895   0.768   9.296 -1.5593 -2.5324 -0.8226
    3SAPS   C33  351   6.093   0.482  10.148  0.6216  0.1656 -0.1169
    3SAPS   H3X  352   6.095   0.570  10.215 -0.5255  1.2068 -1.3733
    3SAPS   H3Y  353   5.994   0.434  10.165 -0.7155  3.0900  1.0971
    3SAPS   C34  354   6.085   0.533  10.002 -0.2585  0.3570 -0.7363
    3SAPS   H4X  355   6.188   0.564   9.976  0.8769  0.3735  3.2154
    3SAPS   H4Y  356   6.010   0.615   9.996  1.2722  1.8194 -0.7168
    3SAPS   C35  357   6.034   0.435   9.897  0.8434 -0.1089 -0.4981
    3SAPS   H5X  358   5.924   0.423   9.899  0.8952 -1.6959 -2.9920
    3SAPS   H5Y  359   6.071   0.330   9.904 -1.2690 -0.9301 -0.9163
    3SAPS   C36  360   6.061   0.484   9.754 -0.3378  0.7089  0.1139
    3SAPS   H6X  361   6.032   0.403   9.683  1.4619  1.6542 -1.8310
    3SAPS   H6Y  362   6.171   0.494   9.748 -0.0485 -2.2468 -1.6385
    3SAPS   C37  363   5.994   0.615   9.715 -0.4556  0.2395 -0.3241
    3SAPS   H7X  364   6.010   0.702   9.781 -0.1886  0.8343 -1.1609
    3SAPS   H7Y  365   5.885   0.598   9.724 -0.2160 -1.3622  0.0226
    3SAPS   C38  366   6.020   0.662   9.569  0.1985  0.3872  0.0409
    3SAPS   H8X  367   5.955   0.752   9.560  0.4403  0.5844  0.2232
    3SAPS   H8Y  368   5.995   0.589   9.490  0.5818  0.9167 -0.5791
    3SAPS   C39  369   6.172   0.709   9.556  0.3495 -0.4538  0.5648
    3SAPS   H9X  370   6.242   0.626   9.577 -1.5296 -1.6481  2.5037
    3SAPS   H9Y  371   6.184   0.793   9.628  2.3427  0.4781 -0.7501
    3SAPS  C310  372   6.206   0.775   9.414  0.7694  0.7169 -0.0421
    3SAPS  H10X  373   6.292   0.843   9.431  0.7986  0.6620  0.0331
    3SAPS  H10Y  374   6.117   0.839   9.395  1.2669  1.6312  0.5957
    3SAPS  C311  375   6.245   0.683   9.303  0.1840 -0.3642 -0.4633
    3SAPS  H11X  376   6.153   0.625   9.281  1.7405 -2.6388 -1.5128
    3SAPS  H11Y  377   6.309   0.600   9.341  2.6788  0.3238 -2.8466
    3SAPS  C312  378   6.302   0.748   9.177 -0.3406 -0.1627 -0.0580
    3SAPS  H12X  379   6.393   0.804   9.209  0.4337 -0.7931 -1.1071
    3SAPS  H12Y  380   6.231   0.825   9.141  0.3148  1.7421  2.4050
    3SAPS  C313  381   6.342   0.637   9.079  0.0212 -0.2155 -0.2108
    3SAPS  H13X  382   6.247   0.583   9.056 -0.3121  0.2400  0.0915
    3SAPS  H13Y  383   6.424   0.573   9.119  1.0193  0.2915 -1.3765
    3SAPS  C314  384   6.390   0.707   8.953  0.1544 -0.0233  0.1337
    3SAPS  H14X  385   6.465   0.784   8.982  0.4146 -1.0897  2.4465
    3SAPS  H14Y  386   6.300   0.761   8.916  0.3201 -0.2817 -0.6671
    3SAPS  C315  387   6.448   0.600   8.850 -0.2885  0.6310 -0.3170
    3SAPS  H15X  388   6.361   0.532   8.839 -0.5713  0.6947  1.2974
    3SAPS  H15Y  389   6.540   0.554   8.892 -1.9304 -2.0450  0.6163
    3SAPS  C316  390   6.467   0.681   8.721 -0.5510 -0.1300  0.5231
    3SAPS  H16X  391   6.564   0.735   8.731  0.2088 -1.4283  0.4442
    3SAPS  H16Y  392   6.392   0.761   8.705  2.1696  2.4034 -0.4852
    3SAPS  C317  393   6.484   0.593   8.600 -0.5683  0.5667 -0.2795
    3SAPS  H17X  394   6.390   0.538   8.579  0.1917  0.4548 -3.9801
    3SAPS  H17Y  395   6.554   0.508   8.616 -1.3123 -0.4939 -2.3758
    3SAPS  C318  396   6.528   0.660   8.471 -0.1584 -0.0819  0.0639
    3SAPS  H18X  397   6.442   0.705   8.417 -0.7135 -1.6413 -0.4048
    3SAPS  H18Y  398   6.572   0.581   8.406 -1.2494  0.6398 -1.6383
    3SAPS  H18Z  399   6.596   0.741   8.503 -1.5539  0.2678  2.3529
    4SAPS     N  400   0.346   2.198  10.877 -0.0016  0.6173  0.0505
    4SAPS   HN1  401   0.363   2.175  10.776  1.4197 -0.3801  0.4852
    4SAPS   HN2  402   0.257   2.248  10.893 -1.4010 -1.3563 -1.0339
    4SAPS   HN3  403   0.425   2.256  10.912  0.6030 -0.1498 -0.0090
    4SAPS   C12  404   0.334   2.078  10.957  0.4208 -0.6243  0.0286
    4SAPS  H12A  405   0.434   2.039  10.957  0.6973 -0.0384 -2.4349
    4SAPS   C13  406   0.288   2.101  11.103 -0.0382 -0.0160 -0.5329
    4SAPS  O13A  407   0.250   2.212  11.147  0.2276 -0.2315  0.1204
    4SAPS  O13B  408   0.319   2.011  11.184  0.2521 -0.2688 -0.3862
    4SAPS   C11  409   0.243   1.980  10.884  0.2564  0.7517 -0.1637
    4SAPS  H11A  410   0.140   2.019  10.898  0.1852  0.4491  0.2056
    4SAPS  H11B  411   0.242   1.881  10.935 -0.9322  0.0820 -1.4496
    4SAPS     P  412   0.191   1.878  10.644  0.1219 -0.1291 -0.1431
    4SAPS   O13  413   0.276   1.865  10.522  0.1399 -0.0809  0.6774
    4SAPS   O14  414   0.150   1.752  10.711  0.7427 -0.2123 -0.6112
    4SAPS   O12  415   0.273   1.964  10.741  0.6066  0.2160 -0.6654
    4SAPS   O11  416   0.064   1.977  10.622 -0.9034 -0.3072 -0.2501
    4SAPS    C1  417   0.082   2.123  10.638 -0.5934 -0.0625 -0.3825
    4SAPS    HA  418   0.029   2.169  10.724 -0.0781  1.4940 -0.8691
    4SAPS    HB  419   0.186   2.159  10.644 -1.0405  1.2170  0.0287
    4SAPS    C2  420   0.034   2.199  10.510  0.3127  0.8254  0.9022
    4SAPS    HS  421  -0.065   2.162  10.477  1.4034  1.0376 -3.1263
    4SAPS   O21  422   0.135   2.190  10.403  0.1329  0.4171  0.1868
    4SAPS   C21  423   0.133   2.083  10.327  1.1577 -0.4538 -0.5006
    4SAPS   O22  424   0.048   1.993  10.331 -0.4422 -0.3929 -0.4051
    4SAPS   C22  425   0.246   2.088  10.221 -0.2254  0.3903  0.0898
    4SAPS   H2R  426   0.224   2.179  10.160  0.2133  0.2179 -0.3366
    4SAPS   H2S  427   0.341   2.098  10.278 -0.7367  0.6121  0.9082
    4SAPS    C3  428   0.016   2.347  10.549  0.4181 -0.5515  0.6195
    4SAPS    HX  429   0.120   2.383  10.562  0.8730 -2.0701  1.3742
    4SAPS    HY  430  -0.044   2.354  10.642 -2.1406 -3.1748 -0.6699
    4SAPS   O31  431  -0.058   2.426  10.454 -0.3355  0.5891  0.3352
    4SAPS   C31  432  -0.027   2.552  10.445 -0.0282 -0.3795  0.2796
    4SAPS   O32  433   0.073   2.608  10.492 -0.0478  0.2814 -0.1822
    4SAPS   C32  434  -0.125   2.632  10.365 -0.6032 -0.5808 -0.0372
    4SAPS   H2X  435  -0.151   2.724  10.421 -0.7170 -0.7438  0.1800
    4SAPS   H2Y  436  -0.216   2.571  10.351 -1.6488  0.5862  1.4242
    4SAPS   C23  437   0.241   1.962  10.125 -0.4620 -0.4513  1.0168
    4SAPS   H3R  438   0.142   1.934  10.084  1.1234 -1.7126 -2.3099
    4SAPS   H3S  439   0.274   1.876  10.188  1.0157 -0.7683 -0.1431
    4SAPS   C24  440   0.354   1.965  10.017 -0.0821 -0.4979  0.3505
    4SAPS   H4R  441   0.376   1.859   9.992 -0.5849 -0.8204  1.2379
    4SAPS   H4S  442   0.447   2.005  10.063 -0.3422  0.5182  0.0306
    4SAPS   C25  443   0.320   2.065   9.909  0.0724  0.1356  1.0195
    4SAPS   H5R  444   0.323   2.170   9.942 -1.0705  0.2358  0.8644
    4SAPS   C26  445   0.298   2.039   9.780 -0.4151  0.3925 -0.2803
    4SAPS   H6R  446   0.275   2.124   9.715 -0.2779  1.0485  0.5026
    4SAPS   C27  447   0.284   1.903   9.715  0.0001  0.0981  0.6684
    4SAPS   H7R  448   0.177   1.882   9.693 -0.2443  3.2162 -1.7804
    4SAPS   H7S  449   0.309   1.825   9.789 -0.5058 -0.1027  0.6327
    4SAPS   C28  450   0.368   1.885   9.588  0.2539 -0.3111 -0.8123
    4SAPS   H8R  451   0.359   1.955   9.503 -0.4616 -0.1553 -0.6078
    4SAPS   C29  452   0.442   1.781   9.554  0.4862  0.6373  0.3435
    4SAPS   H9R  453   0.473   1.759   9.451  0.8920  0.3516  0.5218
    4SAPS  C210  454   0.470   1.657   9.637  0.3645 -1.3750 -0.0312
    4SAPS  H10R  455   0.385   1.587   9.619 -1.4652  1.2899 -2.7198
    4SAPS  H10S  456   0.470   1.682   9.745  0.5989 -0.2319 -0.2883
    4SAPS  C211  457   0.599   1.590   9.612 -0.6997  0.1081  0.4064
    4SAPS  H11R  458   0.677   1.645   9.557 -0.1281 -0.3626  0.7268
    4SAPS  C212  459   0.629   1.469   9.650  0.9829  0.6157  0.1612
    4SAPS  H12R  460   0.720   1.420   9.612  0.7660  1.6921 -1.9005
    4SAPS  C213  461   0.527   1.369   9.708  0.5473 -0.0321 -0.3388
    4SAPS  H13R  462   0.460   1.344   9.624  1.9865 -1.6143 -1.0642
    4SAPS  H13S  463   0.466   1.434   9.775  2.7286  4.0034 -1.9097
    4SAPS  C214  464   0.586   1.248   9.780  0.0355  0.3222  0.0319
    4SAPS  H14R  465   0.648   1.283   9.863  3.1762  3.0519 -3.1146
    4SAPS  C215  466   0.581   1.116   9.743  0.4170  0.2505  0.3353
    4SAPS  H15R  467   0.630   1.042   9.809 -0.2505  1.7354  2.5843
    4SAPS  C216  468   0.510   1.068   9.621 -0.4603  0.1386 -0.4000
    4SAPS  H16R  469   0.437   1.139   9.578 -2.6942 -2.5492 -1.2939
    4SAPS  H16S  470   0.441   0.983   9.640  0.0996  0.0717  1.5903
    4SAPS  C217  471   0.608   1.038   9.506 -0.0106 -0.3687 -0.9348
    4SAPS  H17R  472   0.552   0.964   9.446 -0.5995 -1.5273  0.9307
    4SAPS  H17S  473   0.696   0.985   9.548  0.2573  0.1121 -0.8791
    4SAPS  C218  474   0.660   1.158   9.428  0.0588 -0.0060  0.6247
    4SAPS  H18R  475   0.722   1.224   9.492  1.7936  0.1185 -1.0711
    4SAPS  H18S  476   0.573   1.210   9.384  1.5130  1.7564 -0.3407
    4SAPS  C219  477   0.750   1.111   9.313 -0.1771 -0.4362 -0.2920
    4SAPS  H19R  478   0.778   1.208   9.265  0.6916 -0.3126  0.4475
    4SAPS  H19S  479   0.699   1.056   9.230 -0.5702  0.4256 -0.6456
    4SAPS  C220  480   0.877   1.037   9.365 -0.1188 -0.5316  0.5021
    4SAPS  H20R  481   0.909   1.102   9.450 -0.0794  0.8616 -0.5495
    4SAPS  H20S  482   0.963   1.043   9.295 -0.7811 -0.7465 -0.3512
    4SAPS  H20T  483   0.852   0.932   9.393  0.5122 -0.5228  1.1325
    4SAPS   C33  484  -0.065   2.688  10.234 -0.2320 -0.1448 -0.0243
    4SAPS   H3X  485  -0.081   2.615  10.152 -0.2436 -0.3705  0.1790
    4SAPS   H3Y  486   0.046   2.696  10.236 -0.2765  0.5918 -0.1772
    4SAPS   C34  487  -0.127   2.829  10.195  0.7918 -0.7791  0.5189
    4SAPS   H4X  488  -0.099   2.905  10.270  2.3145  2.5679 -3.1301
    4SAPS   H4Y  489  -0.237   2.812  10.201  0.7058 -0.1686  0.6947
    4SAPS   C35  490  -0.085   2.881  10.059  0.6364  0.0203  0.6889
    4SAPS   H5X  491   0.024   2.874  10.042  0.8744  0.2662  2.0517
    4SAPS   H5Y  492  -0.094   2.991  10.060  1.4754  0.0970  2.0764
    4SAPS   C36  493  -0.149   2.823   9.934  0.3877  0.0773  0.7686
    4SAPS   H6X  494  -0.254   2.859   9.927  1.5223  3.7368  0.3075
    4SAPS   H6Y  495  -0.139   2.713   9.946  0.9759 -0.5929 -3.9548
    4SAPS   C37  496  -0.079   2.874   9.805  0.3714 -0.2055 -0.3882
    4SAPS   H7X  497   0.032   2.875   9.811  0.4514  2.4966 -1.2400
    4SAPS   H7Y  498  -0.108   2.979   9.789  0.3585 -0.2621 -0.7370
    4SAPS   C38  499  -0.132   2.788   9.693  0.6223 -0.3645  0.1008
    4SAPS   H8X  500  -0.237   2.827   9.688  0.1300 -1.7874 -1.1968
    4SAPS   H8Y  501  -0.149   2.685   9.732 -0.7999  0.1817  1.0356
    4SAPS   C39  502  -0.063   2.799   9.557 -0.4541  0.0144 -0.0269
    4SAPS   H9X  503   0.022   2.728   9.565 -2.1940 -2.0384  2.1154
    4SAPS   H9Y  504  -0.019   2.899   9.541 -1.0526  0.1475 -0.9374
    4SAPS  C310  505  -0.153   2.763   9.442 -0.2521  0.3337  0.2214
    4SAPS  H10X  506  -0.226   2.845   9.424 -0.7520 -0.0745  0.3845
    4SAPS  H10Y  507  -0.212   2.670   9.449  0.0478 -0.0111 -1.4251
    4SAPS  C311  508  -0.058   2.746   9.317  0.2362  0.4127 -0.4043
    4SAPS  H11X  509   0.015   2.665   9.339  1.4742  1.5801 -0.0900
    4SAPS  H11Y  510  -0.002   2.840   9.294  0.5986  0.0024 -1.2516
    4SAPS  C312  511  -0.139   2.701   9.190  0.0763 -0.3319  0.3190
    4SAPS  H12X  512  -0.222   2.774   9.182 -1.6324 -2.1080  1.0175
    4SAPS  H12Y  513  -0.181   2.601   9.214 -0.0521  0.2372  2.6803
    4SAPS  C313  514  -0.054   2.701   9.059 -0.0671 -0.2836  0.1438
    4SAPS  H13X  515   0.045   2.655   9.077 -0.8890 -2.1846  0.0018
    4SAPS  H13Y  516  -0.040   2.805   9.023  0.1983 -1.2195 -2.6487
    4SAPS  C314  517  -0.130   2.633   8.951  0.8925 -0.2801  1.4178
    4SAPS  H14X  518  -0.075   2.646   8.855  0.3476  0.0189  1.1399
    4SAPS  H14Y  519  -0.225   2.686   8.928  2.4020  2.1448  0.3554
    4SAPS  C315  520  -0.164   2.486   8.965 -0.2637 -0.9804 -0.0037
    4SAPS  H15X  521  -0.255   2.491   9.027  0.4988  0.0106  1.0786
    4SAPS  H15Y  522  -0.093   2.430   9.029  0.3663 -2.3292 -1.7834
    4SAPS  C316  523  -0.196   2.400   8.836 -0.8008 -0.0962 -0.8287
    4SAPS  H16X  524  -0.219   2.299   8.877  0.1078 -1.5706 -3.7007
    4SAPS  H16Y  525  -0.098   2.394   8.784 -0.5237 -0.8392 -0.2355
    4SAPS  C317  526  -0.295   2.471   8.749 -0.0862  0.1141 -0.3745
    4SAPS  H17X  527  -0.264   2.577   8.743  2.0550 -0.3025  1.5848
    4SAPS  H17Y  528  -0.391   2.464   8.804 -0.1111  3.6451  0.2286
    4SAPS  C318  529  -0.303   2.415   8.610 -0.1725 -0.2286  0.7634
    4SAPS  H18X  530  -0.204   2.423   8.560  0.1574 -2.3718  0.9634
    4SAPS  H18Y  531  -0.368   2.479   8.547  1.3709  1.5533  0.8882
    4SAPS  H18Z  532  -0.349   2.314   8.614 -0.5828 -0.0463  0.6437
    5SAPS     N  533   3.916   6.702  10.907  0.1780 -0.0638  0.2140
    5SAPS   HN1  534   3.900   6.755  10.819  0.3644 -1.1589 -0.4983
    5SAPS   HN2  535   3.996   6.747  10.957 -1.6158  4.2549 -0.3735
    5SAPS   HN3  536   3.936   6.600  10.898  1.6893  0.2243 -0.0494
    5SAPS   C12  537   3.806   6.738  10.994 -0.3615 -0.1684  0.1156
    5SAPS  H12A  538   3.823   6.683  11.085 -3.9814 -0.9057  0.4987
    5SAPS   C13  539   3.792   6.888  11.039  0.5673  0.2306  0.2573
    5SAPS  O13A  540   3.891   6.958  11.015  0.0836  0.4107  0.1656
    5SAPS  O13B  541   3.734   6.889  11.151  0.0866  0.3137  0.7208
    5SAPS   C11  542   3.668   6.691  10.942 -0.2962 -0.7955 -0.7831
    5SAPS  H11A  543   3.652   6.740  10.843  2.3591 -1.5687 -1.6626
    5SAPS  H11B  544   3.593   6.721  11.019  0.7332 -0.7309  0.2097
    5SAPS     P  545   3.529   6.485  10.866 -0.5517 -0.2789 -0.1401
    5SAPS   O13  546   3.506   6.360  10.942  0.0844  0.1320 -0.3376
    5SAPS   O14  547   3.416   6.582  10.865 -0.8576  0.4128 -0.0612
    5SAPS   O12  548   3.658   6.548  10.940  0.2877 -0.0347 -0.1497
    5SAPS   O11  549   3.572   6.433  10.718  0.7473 -0.0733 -0.0935
    5SAPS    C1  550   3.693   6.477  10.651 -0.5380  0.0457  0.0670
    5SAPS    HA  551   3.708   6.587  10.654  1.1507 -0.1002 -1.4164
    5SAPS    HB  552   3.786   6.427  10.687 -0.2220 -1.3891 -2.5379
    5SAPS    C2  553   3.690   6.441  10.494 -0.3262  0.4256  0.3745
    5SAPS    HS  554   3.784   6.479  10.449  0.9825 -2.7227  0.1665
    5SAPS   O21  555   3.574   6.505  10.437  0.1414  0.1175 -0.3553
    5SAPS   C21  556   3.597   6.637  10.418 -0.2217  0.2972 -0.4069
    5SAPS   O22  557   3.698   6.699  10.446 -0.0568  0.8149 -0.4730
    5SAPS   C22  558   3.478   6.701  10.351  0.6987 -0.1577 -0.4215
    5SAPS   H2R  559   3.471   6.680  10.242 -0.2658 -0.7467 -0.2579
    5SAPS   H2S  560   3.388   6.652  10.396  1.5501  0.0164  1.5790
    5SAPS    C3  561   3.684   6.281  10.476  0.4806 -0.4392 -0.4257
    5SAPS    HX  562   3.584   6.253  10.515  0.4185 -0.7848 -0.8163
    5SAPS    HY  563   3.770   6.251  10.540  0.6365 -1.2379 -0.9834
    5SAPS   O31  564   3.706   6.231  10.342 -0.1814 -0.1204  0.8828
    5SAPS   C31  565   3.668   6.107  10.318  0.0176  0.0791 -0.4419
    5SAPS   O32  566   3.623   6.032  10.397  0.4800  0.4724 -0.6226
    5SAPS   C32  567   3.696   6.070  10.175  0.1110 -0.1819 -0.5077
    5SAPS   H2X  568   3.783   6.002  10.183 -0.0932 -0.4011 -0.1261
    5SAPS   H2Y  569   3.718   6.164  10.120  2.3995 -0.6733 -0.5319
    5SAPS   C23  570   3.476   6.855  10.371  0.6046  0.4169 -0.7603
    5SAPS   H3R  571   3.569   6.899  10.329  0.9350  0.6141  0.1652
    5SAPS   H3S  572   3.472   6.874  10.480 -1.6560 -0.5264 -0.6180
    5SAPS   C24  573   3.340   6.913  10.314 -0.4914  0.6320 -0.0417
    5SAPS   H4R  574   3.346   6.912  10.203  3.8414 -0.4458  0.0293
    5SAPS   H4S  575   3.329   7.023  10.329 -1.9920  0.2502  2.0108
    5SAPS   C25  576   3.220   6.853  10.373 -0.2941  0.0643  0.1313
    5SAPS   H5R  577   3.208   6.861  10.482 -1.1458 -2.3426  0.2738
    5SAPS   C26  578   3.115   6.803  10.301  0.0251  0.4005  0.1855
    5SAPS   H6R  579   3.026   6.754  10.343 -0.9246  0.6524 -1.4335
    5SAPS   C27  580   3.111   6.773  10.153 -0.3163  0.0770  0.3803
    5SAPS   H7R  581   3.017   6.719  10.128  0.3473 -0.6329 -0.7031
    5SAPS   H7S  582   3.193   6.698  10.141 -0.3902  0.1843 -1.0380
    5SAPS   C28  583   3.125   6.892  10.055 -0.2377 -0.2164 -0.7891
    5SAPS   H8R  584   3.056   6.975  10.074 -2.0014 -2.3175  3.4136
    5SAPS   C29  585   3.189   6.888   9.943 -0.1867 -0.4021  0.5243
    5SAPS   H9R  586   3.202   6.974   9.876 -1.9463 -0.0990  0.5076
    5SAPS  C210  587   3.262   6.773   9.886  0.6480 -0.3235  0.5425
    5SAPS  H10R  588   3.317   6.715   9.963  3.1490 -2.0442 -2.3154
    5SAPS  H10S  589   3.345   6.818   9.827 -0.4059  1.6160  0.4352
    5SAPS  C211  590   3.190   6.674   9.798 -0.2668 -0.2312 -0.0296
    5SAPS  H11R  591   3.161   6.584   9.854 -0.5045 -0.5567 -0.6600
    5SAPS  C212  592   3.162   6.693   9.670 -0.5224 -0.0822  1.1406
    5SAPS  H12R  593   3.096   6.621   9.620  0.5613 -0.7891  0.7007
    5SAPS  C213  594   3.179   6.818   9.586 -0.0700  0.0281  0.4201
    5SAPS  H13R  595   3.211   6.905   9.647 -0.0193 -0.6286  1.3500
    5SAPS  H13S  596   3.080   6.836   9.538  0.6056 -0.2290 -1.1351
    5SAPS  C214  597   3.283   6.812   9.481 -0.2474 -0.7061 -0.0422
    5SAPS  H14R  598   3.381   6.854   9.508 -0.9389  1.1318 -0.2635
    5SAPS  C215  599   3.274   6.760   9.357  0.2104  0.3996 -0.4388
    5SAPS  H15R  600   3.365   6.761   9.296  0.9764 -1.6861  0.5694
    5SAPS  C216  601   3.152   6.697   9.298  0.6918 -0.2972  0.1654
    5SAPS  H16R  602   3.058   6.706   9.357  1.1278  1.3574  0.6721
    5SAPS  H16S  603   3.171   6.588   9.293 -0.8838 -0.7677  2.7049
    5SAPS  C217  604   3.111   6.757   9.160  0.2379 -0.3393  0.2207
    5SAPS  H17R  605   3.098   6.866   9.179 -0.2393 -0.3791  0.1439
    5SAPS  H17S  606   3.012   6.726   9.119  0.0265  0.1956  0.3202
    5SAPS  C218  607   3.217   6.731   9.048  0.3910  0.2965 -0.4594
    5SAPS  H18R  608   3.315   6.781   9.067  1.0783 -0.7576 -1.1052
    5SAPS  H18S  609   3.231   6.621   9.043 -1.0640  0.1530 -2.9211
    5SAPS  C219  610   3.166   6.777   8.907 -0.7613  0.1020  0.2906
    5SAPS  H19R  611   3.244   6.837   8.855  0.0991 -1.6380 -0.4880
    5SAPS  H19S  612   3.069   6.832   8.903 -1.6301 -1.4077 -0.5207
    5SAPS  C220  613   3.141   6.656   8.813 -0.6831 -0.6694  0.0952
    5SAPS  H20R  614   3.223   6.582   8.824 -0.8535 -0.6230  2.2746
    5SAPS  H20S  615   3.140   6.683   8.706  2.0754  0.6768  0.3222
    5SAPS  H20T  616   3.046   6.611   8.849 -1.3094 -0.1368 -0.8537
    5SAPS   C33  617   3.571   6.006  10.106 -0.3594 -0.0234  0.6088
    5SAPS   H3X  618   3.488   6.079  10.117 -0.6448 -0.2554 -0.0161
    5SAPS   H3Y  619   3.549   5.908  10.154 -1.1644 -1.3670 -2.2890
    5SAPS   C34  620   3.591   5.974   9.961  0.0498  0.2398 -0.4598
    5SAPS   H4X  621   3.682   5.910   9.964 -0.5558 -0.6925  3.1216
    5SAPS   H4Y  622   3.613   6.070   9.908 -0.8147  1.0384  0.5974
    5SAPS   C35  623   3.468   5.914   9.900 -0.5502  0.1472 -0.0375
    5SAPS   H5X  624   3.372   5.963   9.928  0.2987  0.9963  1.5228
    5SAPS   H5Y  625   3.454   5.806   9.921  0.7186 -0.3999 -1.7638
    5SAPS   C36  626   3.494   5.907   9.750 -0.1074  0.0281  0.0434
    5SAPS   H6X  627   3.596   5.868   9.727  0.1748  0.6207  0.2713
    5SAPS   H6Y  628   3.481   6.009   9.710  0.9555  1.4127  2.9824
    5SAPS   C37  629   3.384   5.824   9.683 -0.5403  0.0161  0.8328
    5SAPS   H7X  630   3.285   5.836   9.731 -1.1042  1.2581 -0.5575
    5SAPS   H7Y  631   3.418   5.718   9.692 -0.7793 -0.1366  0.0573
    5SAPS   C38  632   3.384   5.852   9.528  0.3519 -0.2825  0.4987
    5SAPS   H8X  633   3.402   5.755   9.475  0.2675 -0.7933  1.3815
    5SAPS   H8Y  634   3.466   5.919   9.495  0.9801 -2.1213 -2.0284
    5SAPS   C39  635   3.255   5.924   9.486 -0.3726 -0.2392 -0.0382
    5SAPS   H9X  636   3.271   6.034   9.487  2.2690 -0.5232  1.7675
    5SAPS   H9Y  637   3.168   5.898   9.550 -0.6277 -0.6430 -0.5440
    5SAPS  C310  638   3.220   5.883   9.339 -0.4005 -0.0195 -0.3621
    5SAPS  H10X  639   3.115   5.909   9.312  0.0611  1.9828 -0.4084
    5SAPS  H10Y  640   3.219   5.772   9.338  2.5510 -0.1394 -1.9055
    5SAPS  C311  641   3.315   5.937   9.225 -0.2607 -0.0230 -0.7095
    5SAPS  H11X  642   3.417   5.896   9.240 -0.9133 -1.4908 -0.1443
    5SAPS  H11Y  643   3.319   6.048   9.238 -2.5612 -0.0270  0.6367
    5SAPS  C312  644   3.252   5.900   9.090  0.0184 -0.4857  0.4363
    5SAPS  H12X  645   3.299   5.947   9.001  1.2113 -0.6727  0.9553
    5SAPS  H12Y  646   3.149   5.942   9.096 -0.8315 -2.5192  1.1338
    5SAPS  C313  647   3.252   5.749   9.055 -0.3672  0.2653 -0.5172
    5SAPS  H13X  648   3.215   5.685   9.137 -1.7534  0.6901 -0.7901
    5SAPS  H13Y  649   3.357   5.714   9.042 -0.3365  0.1241  0.0775
    5SAPS  C314  650   3.165   5.712   8.931 -0.3737  0.3508 -0.1880
    5SAPS  H14X  651   3.196   5.790   8.858  2.0700  0.8224  1.2535
    5SAPS  H14Y  652   3.056   5.721   8.951  0.0573 -1.0431  3.5733
    5SAPS  C315  653   3.205   5.580   8.864 -0.8128 -0.2531  0.7166
    5SAPS  H15X  654   3.126   5.556   8.790  1.0576  0.5026 -1.6484
    5SAPS  H15Y  655   3.207   5.506   8.946  0.2396 -1.2217 -0.1538
    5SAPS  C316  656   3.342   5.581   8.796  0.0995 -0.1162  0.1070
    5SAPS  H16X  657   3.430   5.581   8.863  1.9163 -1.7387 -2.0945
    5SAPS  H16Y  658   3.340   5.679   8.744 -1.7229  0.9880  2.0922
    5SAPS  C317  659   3.353   5.473   8.689  0.0085 -0.8634 -0.1905
    5SAPS  H17X  660   3.265   5.467   8.622  2.4289 -0.8459 -3.6102
    5SAPS  H17Y  661   3.367   5.373   8.737 -1.1640 -0.8064  0.2830
    5SAPS  C318  662   3.486   5.500   8.614 -0.6136 -0.3318 -0.2340
    5SAPS  H18X  663   3.576   5.485   8.677 -0.0311  0.7570 -0.7745
    5SAPS  H18Y  664   3.493   5.605   8.577  1.4690  0.1825  1.4318
    5SAPS  H18Z  665   3.485   5.437   8.523  0.3969 -0.1945 -0.3506
    6SAPS     N  666   5.136   5.691  10.837 -0.3890 -0.3943 -0.1978
    6SAPS   HN1  667   5.126   5.791  10.860 -0.0463 -0.7002  1.4352
    6SAPS   HN2  668   5.172   5.647  10.924  1.1486 -0.8362 -0.9977
    6SAPS   HN3  669   5.213   5.675  10.768  0.4224  1.0653  0.3302
    6SAPS   C12  670   5.010   5.637  10.791  0.5402 -0.3377 -0.1330
    6SAPS  H12A  671   5.027   5.542  10.742  0.6353 -0.5681  0.3421
    6SAPS   C13  672   4.909   5.612  10.899  0.3682  0.0441  0.2107
    6SAPS  O13A  673   4.942   5.644  11.016  0.6179  0.0218  0.3744
    6SAPS  O13B  674   4.792   5.566  10.869 -0.0270 -0.3985 -0.1518
    6SAPS   C11  675   4.945   5.726  10.688 -0.5921  0.1546 -0.2470
    6SAPS  H11A  676   4.847   5.684  10.656 -0.9023 -1.3077  2.3187
    6SAPS  H11B  677   5.007   5.732  10.596 -1.5564 -1.0038 -1.0043
    6SAPS     P  678   4.854   5.973  10.656  0.1347  0.0904  0.0709
    6SAPS   O13  679   4.719   5.986  10.720 -0.3597 -0.2319  0.4752
    6SAPS   O14  680   4.942   6.088  10.660 -1.0043 -0.1072 -0.4712
    6SAPS   O12  681   4.927   5.859  10.732 -0.4156 -0.4770 -0.3108
    6SAPS   O11  682   4.853   5.918  10.508  0.3329 -0.6190 -0.2748
    6SAPS    C1  683   4.803   5.985  10.397 -0.0980  0.4447 -0.5443
    6SAPS    HA  684   4.817   6.095  10.399 -1.1602  0.6741 -2.5149
    6SAPS    HB  685   4.857   5.953  10.305  0.0182  0.9839 -0.6704
    6SAPS    C2  686   4.666   5.942  10.353 -0.1128  0.2923  0.2831
    6SAPS    HS  687   4.592   5.957  10.434 -0.7330  0.3222 -0.2824
    6SAPS   O21  688   4.666   5.804  10.309  0.1121  0.6814  1.4675
    6SAPS   C21  689   4.607   5.714  10.391  0.6053  0.2120  0.0510
    6SAPS   O22  690   4.548   5.740  10.491 -0.1594  1.0153  0.1862
    6SAPS   C22  691   4.614   5.570  10.339  0.1700 -0.0505 -0.2001
    6SAPS   H2R  692   4.724   5.551  10.337  0.4343  1.3069  0.0863
    6SAPS   H2S  693   4.581   5.499  10.417  1.4450 -2.0599 -1.3760
    6SAPS    C3  694   4.616   6.017  10.229  0.6690 -0.0486  0.2808
    6SAPS    HX  695   4.519   5.976  10.193 -0.2379  0.8655  1.5937
    6SAPS    HY  696   4.695   5.991  10.156 -0.6962 -3.6810 -0.1578
    6SAPS   O31  697   4.608   6.157  10.244 -1.5369  0.2982 -0.5047
    6SAPS   C31  698   4.492   6.210  10.296  0.0598  0.4892 -0.4432
    6SAPS   O32  699   4.388   6.149  10.318 -1.0485  0.1108  0.0162
    6SAPS   C32  700   4.523   6.347  10.360 -0.2919  0.2209  1.0549
    6SAPS   H2X  701   4.631   6.372  10.362 -0.2191  0.1815 -1.0765
    6SAPS   H2Y  702   4.479   6.330  10.461 -3.3944  0.4177 -0.1573
    6SAPS   C23  703   4.544   5.560  10.198 -0.6282  0.2416  0.2747
    6SAPS   H3R  704   4.471   5.643  10.197 -0.2567  0.5845 -1.4551
    6SAPS   H3S  705   4.484   5.466  10.190  0.1889 -0.3913  1.3250
    6SAPS   C24  706   4.653   5.552  10.081  0.3802  0.2092  0.0817
    6SAPS   H4R  707   4.603   5.530   9.984  1.1187 -2.2026  0.2021
    6SAPS   H4S  708   4.715   5.466  10.112 -0.0045  0.4882  1.6921
    6SAPS   C25  709   4.750   5.667  10.068  0.2502 -0.9454  0.3333
    6SAPS   H5R  710   4.826   5.681  10.146 -1.0960  1.5516  1.3102
    6SAPS   C26  711   4.740   5.774   9.981  0.7130 -0.4711 -0.1113
    6SAPS   H6R  712   4.822   5.844   9.963 -0.6809  0.9180 -1.2697
    6SAPS   C27  713   4.632   5.777   9.879 -0.5732  0.6712  0.0032
    6SAPS   H7R  714   4.536   5.747   9.925 -0.5247  0.5516  0.0276
    6SAPS   H7S  715   4.654   5.690   9.813 -0.0662  0.0124  1.0134
    6SAPS   C28  716   4.601   5.908   9.812 -0.2076 -0.1047 -0.6911
    6SAPS   H8R  717   4.539   5.972   9.877  1.1736 -0.4401  1.0248
    6SAPS   C29  718   4.631   5.942   9.685 -0.2746  0.5112  0.4751
    6SAPS   H9R  719   4.607   6.043   9.649  1.8413  0.2969 -1.7418
    6SAPS  C210  720   4.699   5.862   9.581  0.4703  0.5272  0.4032
    6SAPS  H10R  721   4.643   5.867   9.486 -1.1725  0.3519  1.3266
    6SAPS  H10S  722   4.691   5.758   9.618 -0.4975  0.7303  0.8078
    6SAPS  C211  723   4.843   5.900   9.556  0.0490  0.0007  0.1125
    6SAPS  H11R  724   4.917   5.863   9.628 -0.3082 -0.5984  0.1854
    6SAPS  C212  725   4.893   5.960   9.448 -0.4275 -0.5044  0.2971
    6SAPS  H12R  726   4.999   5.986   9.439 -0.4356 -1.1050 -2.5397
    6SAPS  C213  727   4.813   6.015   9.332 -0.0069  0.1444  0.6448
    6SAPS  H13R  728   4.709   6.026   9.368  0.8321  1.0481  3.0193
    6SAPS  H13S  729   4.826   5.942   9.250 -0.1147 -0.6048  1.2746
    6SAPS  C214  730   4.862   6.147   9.273 -0.1766 -0.3539  0.2847
    6SAPS  H14R  731   4.965   6.172   9.301 -0.0433 -0.3546 -0.2008
    6SAPS  C215  732   4.793   6.225   9.184 -0.5800 -0.2893 -0.1540
    6SAPS  H15R  733   4.827   6.327   9.158 -0.7399 -0.8359 -2.7786
    6SAPS  C216  734   4.654   6.195   9.144  0.3480  0.4153 -0.4747
    6SAPS  H16R  735   4.594   6.284   9.117  1.8139  2.2748  1.9663
    6SAPS  H16S  736   4.603   6.148   9.231  0.5852 -0.1468 -0.6314
    6SAPS  C217  737   4.654   6.096   9.018 -0.2303  0.4476 -0.4215
    6SAPS  H17R  738   4.545   6.074   9.015 -0.2598  0.2454  1.2741
    6SAPS  H17S  739   4.710   6.004   9.044  3.9369  2.9760  0.4906
    6SAPS  C218  740   4.701   6.151   8.879 -0.7327 -0.6698 -0.4307
    6SAPS  H18R  741   4.811   6.161   8.896 -1.0846 -0.1212  1.8772
    6SAPS  H18S  742   4.658   6.252   8.862 -0.1766 -0.0178  1.6889
    6SAPS  C219  743   4.668   6.060   8.760  0.0845  0.2461  0.3198
    6SAPS  H19R  744   4.718   5.962   8.777 -2.3772 -0.7512  2.3303
    6SAPS  H19S  745   4.710   6.106   8.668  1.9435 -3.0069 -0.6289
    6SAPS  C220  746   4.519   6.036   8.741 -0.0081 -0.4005 -0.1471
    6SAPS  H20R  747   4.490   5.986   8.646  0.3258 -1.4205  0.2723
    6SAPS  H20S  748   4.455   6.126   8.755  0.4307 -0.0759 -0.1992
    6SAPS  H20T  749   4.486   5.960   8.815  1.0862 -1.2504 -0.5078
    6SAPS   C33  750   4.452   6.456  10.284 -0.1404  0.0756 -0.3580
    6SAPS   H3X  751   4.477   6.545  10.345 -0.6372 -0.4042  0.5658
    6SAPS   H3Y  752   4.341   6.445  10.286 -0.1054 -0.2931  1.8130
    6SAPS   C34  753   4.506   6.485  10.145 -0.4563  0.2411  0.6736
    6SAPS   H4X  754   4.616   6.498  10.157 -0.3802  2.5336 -1.6432
    6SAPS   H4Y  755   4.471   6.580  10.101  0.9108 -0.6116 -2.5091
    6SAPS   C35  756   4.459   6.375  10.040  0.1467 -0.3917  0.1300
    6SAPS   H5X  757   4.350   6.353  10.038  0.0209  0.1351 -1.8983
    6SAPS   H5Y  758   4.514   6.280  10.057 -0.8963 -0.7500  1.7365
    6SAPS   C36  759   4.472   6.408   9.893 -0.0552 -0.8468  0.5347
    6SAPS   H6X  760   4.579   6.403   9.861 -0.4149  0.8808 -1.1157
    6SAPS   H6Y  761   4.432   6.510   9.875  0.9506 -0.2782  1.4100
    6SAPS   C37  762   4.391   6.301   9.812  1.1569 -0.8614 -0.7478
    6SAPS   H7X  763   4.283   6.307   9.838  1.1087  0.1259 -1.1076
    6SAPS   H7Y  764   4.436   6.205   9.843  0.9291 -0.0848  2.2816
    6SAPS   C38  765   4.405   6.332   9.667  0.9963 -0.3579 -0.0850
    6SAPS   H8X  766   4.514   6.337   9.645  1.2044  3.6352  0.9822
    6SAPS   H8Y  767   4.366   6.434   9.648 -0.2227 -1.2878 -3.1505
    6SAPS   C39  768   4.339   6.238   9.568  0.3550 -0.3375 -0.6413
    6SAPS   H9X  769   4.231   6.242   9.596  0.4957  1.0207 -0.2548
    6SAPS   H9Y  770   4.384   6.139   9.594  0.6213 -0.5823 -1.9341
    6SAPS  C310  771   4.343   6.262   9.423  0.1384 -0.6835 -0.2926
    6SAPS  H10X  772   4.452   6.270   9.402  0.0049 -0.2280 -0.8408
    6SAPS  H10Y  773   4.283   6.353   9.402 -0.9546 -1.6962 -1.8094
    6SAPS  C311  774   4.280   6.144   9.356  0.4815  0.1920  0.5037
    6SAPS  H11X  775   4.176   6.129   9.393 -0.9353 -0.0687 -3.2078
    6SAPS  H11Y  776   4.340   6.056   9.387 -0.2786 -0.6462 -0.3309
    6SAPS  C312  777   4.279   6.151   9.199 -0.4573  0.1220 -0.0193
    6SAPS  H12X  778   4.381   6.173   9.158 -0.8760  1.2892 -0.4916
    6SAPS  H12Y  779   4.209   6.227   9.159 -1.5198 -1.3631 -1.0974
    6SAPS  C313  780   4.234   6.018   9.140  0.3689  0.1087  0.0508
    6SAPS  H13X  781   4.132   5.981   9.164  0.5026  0.0008  0.4672
    6SAPS  H13Y  782   4.301   5.937   9.177  0.6605 -0.4281 -1.5935
    6SAPS  C314  783   4.237   6.003   8.988  0.5091 -0.8413 -0.5853
    6SAPS  H14X  784   4.343   5.977   8.963  0.3609 -2.8607  0.7262
    6SAPS  H14Y  785   4.205   6.091   8.927  2.0356  1.4754  1.7378
    6SAPS  C315  786   4.156   5.878   8.948 -0.2566  0.0686 -0.4831
    6SAPS  H15X  787   4.051   5.887   8.981 -0.5484 -0.9757 -1.0604
    6SAPS  H15Y  788   4.212   5.799   9.001  0.4311  0.3156 -0.8250
    6SAPS  C316  789   4.176   5.846   8.800  0.5659  0.3954  0.7368
    6SAPS  H16X  790   4.129   5.748   8.777  0.2810 -0.0779  3.0145
    6SAPS  H16Y  791   4.285   5.829   8.796  0.6942  1.4325 -1.0346
    6SAPS  C317  792   4.133   5.954   8.701 -1.0397 -0.0061  0.4659
    6SAPS  H17X  793   4.211   6.033   8.707 -1.1205  0.2119 -0.9639
    6SAPS  H17Y  794   4.043   6.007   8.740 -0.6652  2.0829 -1.2823
    6SAPS  C318  795   4.121   5.918   8.557  0.3895  0.9197  0.7952
    6SAPS  H18X  796   4.204   5.851   8.527 -0.5144 -0.3903  1.1148
    6SAPS  H18Y  797   4.117   6.014   8.501  0.4542  2.1823  2.8526
    6SAPS  H18Z  798   4.030   5.855   8.549  0.0493  1.1486  2.4596
    7SAPS     N  799   0.290   6.454  10.824 -0.2232  0.3793 -0.0276
    7SAPS   HN1  800   0.311   6.555  10.810 -0.0480  0.2585 -0.6482
    7SAPS   HN2  801   0.244   6.446  10.917  0.7346 -2.7268  0.3068
    7SAPS   HN3  802   0.380   6.402  10.822  0.0370  0.8420 -0.7373
    7SAPS   C12  803   0.205   6.410  10.731 -0.0780 -0.2472  0.8601
    7SAPS  H12A  804   0.268   6.391  10.646 -0.9803 -2.6510  0.6337
    7SAPS   C13  805   0.154   6.265  10.757  0.6627  0.4381 -0.1055
    7SAPS  O13A  806   0.216   6.190  10.832 -0.2604 -0.1880  0.3724
    7SAPS  O13B  807   0.064   6.224  10.678  0.6707 -0.1027 -0.5065
    7SAPS   C11  808   0.092   6.517  10.711 -0.2715 -0.5897 -0.1032
    7SAPS  H11A  809   0.049   6.543  10.810 -0.9492  2.9005 -1.1699
    7SAPS  H11B  810   0.011   6.469  10.652  0.5008 -1.1889 -0.6952
    7SAPS     P  811   0.187   6.661  10.509  0.0894 -0.4376  0.5520
    7SAPS   O13  812   0.304   6.751  10.516 -0.1363  0.2622 -0.2301
    7SAPS   O14  813   0.212   6.529  10.446 -0.2420  0.3970 -0.0613
    7SAPS   O12  814   0.138   6.642  10.658  0.3348  0.7697  0.0778
    7SAPS   O11  815   0.067   6.747  10.441  0.0969 -0.0198  0.0520
    7SAPS    C1  816  -0.059   6.687  10.424  0.5633  0.2854 -0.2589
    7SAPS    HA  817  -0.067   6.582  10.460  2.4762 -0.5172 -1.9500
    7SAPS    HB  818  -0.129   6.738  10.493  0.5630 -0.9507  0.7024
    7SAPS    C2  819  -0.119   6.705  10.281 -0.1983  0.0731  0.5422
    7SAPS    HS  820  -0.224   6.670  10.294 -0.9024  2.2293  1.1142
    7SAPS   O21  821  -0.045   6.631  10.178 -0.0475 -0.0448 -0.1328
    7SAPS   C21  822  -0.051   6.497  10.198  0.3090 -0.1766  0.1045
    7SAPS   O22  823  -0.131   6.442  10.265  0.6265 -0.2781 -0.6231
    7SAPS   C22  824   0.045   6.423  10.105 -0.1722 -0.1671  0.0550
    7SAPS   H2R  825   0.139   6.483  10.100 -0.8901  0.9932  0.0765
    7SAPS   H2S  826   0.058   6.329  10.162 -0.8264  0.1206  0.6971
    7SAPS    C3  827  -0.129   6.857  10.252 -0.7434 -0.1247  0.7550
    7SAPS    HX  828  -0.023   6.885  10.269 -0.5965 -0.8793  1.1251
    7SAPS    HY  829  -0.192   6.907  10.329 -0.0938  1.0815  0.5215
    7SAPS   O31  830  -0.152   6.896  10.116  0.2342 -0.0310  0.1435
    7SAPS   C31  831  -0.286   6.908  10.085 -0.6973  0.6123  0.3618
    7SAPS   O32  832  -0.373   6.875  10.160 -0.3878 -0.3736 -0.4679
    7SAPS   C32  833  -0.290   6.943   9.936  0.9095  0.0700  0.2785
    7SAPS   H2X  834  -0.263   6.853   9.877  1.3986 -0.4045  1.2220
    7SAPS   H2Y  835  -0.214   7.020   9.909  1.3705 -0.2990  0.5221
    7SAPS   C23  836  -0.016   6.374   9.970  0.5523  0.0685 -0.8575
    7SAPS   H3R  837  -0.011   6.453   9.892  2.9776  1.6664  0.7546
    7SAPS   H3S  838  -0.118   6.335   9.990 -0.2953  1.8887 -1.4368
    7SAPS   C24  839   0.047   6.243   9.919  0.3756  0.2999 -0.3966
    7SAPS   H4R  840  -0.008   6.222   9.825  1.7133  1.0797 -1.3950
    7SAPS   H4S  841   0.039   6.159   9.991 -2.6044 -1.7637 -2.8853
    7SAPS   C25  842   0.195   6.251   9.876  0.7458 -0.5264  0.0909
    7SAPS   H5R  843   0.235   6.352   9.854 -1.6360  1.0387  2.2914
    7SAPS   C26  844   0.276   6.149   9.848  0.3432  0.4118  0.5426
    7SAPS   H6R  845   0.380   6.173   9.823  1.0501 -1.9570  0.9735
    7SAPS   C27  846   0.242   6.008   9.852  0.6127 -0.0770  0.7567
    7SAPS   H7R  847   0.229   5.967   9.954 -1.4125 -1.3906  0.0191
    7SAPS   H7S  848   0.333   5.969   9.800  0.9245  3.1597 -1.4490
    7SAPS   C28  849   0.131   5.976   9.756 -0.1535  0.3959  0.2011
    7SAPS   H8R  850   0.036   6.012   9.799 -0.0119 -0.7356  1.5443
    7SAPS   C29  851   0.139   5.910   9.634 -0.6157 -0.6809 -0.2130
    7SAPS   H9R  852   0.048   5.912   9.573  0.2183  0.3510 -1.4614
    7SAPS  C210  853   0.255   5.861   9.557 -0.4148 -0.9212 -0.7392
    7SAPS  H10R  854   0.239   5.755   9.527  1.4178 -0.6664 -2.8559
    7SAPS  H10S  855   0.347   5.862   9.621 -1.3308 -1.6901  0.6456
    7SAPS  C211  856   0.278   5.931   9.429 -0.3635 -0.4253  0.5592
    7SAPS  H11R  857   0.358   6.006   9.438 -1.1260  0.3787  0.7136
    7SAPS  C212  858   0.221   5.911   9.309  0.1885 -0.2717 -0.2048
    7SAPS  H12R  859   0.252   5.978   9.227 -0.2180  0.7132  0.4187
    7SAPS  C213  860   0.117   5.811   9.265  0.2565  0.5290 -0.1489
    7SAPS  H13R  861   0.029   5.871   9.233 -0.6478 -0.1918  0.9457
    7SAPS  H13S  862   0.078   5.752   9.350  0.0799  1.7517  0.6425
    7SAPS  C214  863   0.168   5.707   9.168  0.4784 -0.3209 -0.1383
    7SAPS  H14R  864   0.227   5.628   9.217  3.5203  1.4481 -0.6847
    7SAPS  C215  865   0.130   5.692   9.039 -0.1844  0.3676 -0.0851
    7SAPS  H15R  866   0.174   5.610   8.980 -0.5640  0.0250  0.1124
    7SAPS  C216  867   0.029   5.771   8.960  0.2636  0.0484  0.6783
    7SAPS  H16R  868   0.072   5.799   8.862  0.0336 -2.1502 -0.1129
    7SAPS  H16S  869   0.017   5.871   9.007  3.2159  1.1256 -0.6168
    7SAPS  C217  870  -0.106   5.704   8.925  0.1660  0.7291 -0.8436
    7SAPS  H17R  871  -0.140   5.660   9.022 -0.6126  0.2972 -1.3023
    7SAPS  H17S  872  -0.091   5.623   8.851  1.3440  1.2613 -1.2134
    7SAPS  C218  873  -0.210   5.805   8.877 -0.1355 -0.2245 -0.2234
    7SAPS  H18R  874  -0.186   5.843   8.775 -1.0445 -0.8150 -0.6789
    7SAPS  H18S  875  -0.211   5.896   8.940 -0.0882  0.7947 -1.6584
    7SAPS  C219  876  -0.346   5.735   8.868 -0.4251 -0.2392  0.3709
    7SAPS  H19R  877  -0.425   5.810   8.888 -3.1891 -2.6286 -0.8780
    7SAPS  H19S  878  -0.350   5.650   8.940 -0.7640 -0.3995  0.1671
    7SAPS  C220  879  -0.379   5.687   8.718  0.5733  0.5292  0.0224
    7SAPS  H20R  880  -0.396   5.766   8.642 -0.6149 -0.9453 -1.3148
    7SAPS  H20S  881  -0.477   5.634   8.720  0.5020  0.6826  0.8439
    7SAPS  H20T  882  -0.299   5.620   8.679  2.1274  3.1966 -1.6504
    7SAPS   C33  883  -0.431   6.994   9.897  0.0224  0.0000 -0.2066
    7SAPS   H3X  884  -0.470   7.063   9.975  1.6489 -1.4863  2.0287
    7SAPS   H3Y  885  -0.506   6.912   9.899  1.0231 -1.0660 -2.5666
    7SAPS   C34  886  -0.452   7.058   9.754 -0.1670  0.5380  0.0955
    7SAPS   H4X  887  -0.410   7.160   9.749 -2.1035  1.3145 -2.1535
    7SAPS   H4Y  888  -0.561   7.074   9.741 -0.1727 -0.0627 -0.6839
    7SAPS   C35  889  -0.392   6.971   9.637  0.1210 -0.5177  0.0186
    7SAPS   H5X  890  -0.471   6.900   9.601 -0.3423  0.0256 -0.0506
    7SAPS   H5Y  891  -0.313   6.901   9.671  0.9882  0.1183 -0.6548
    7SAPS   C36  892  -0.343   7.055   9.521 -0.4935  0.1908  0.0971
    7SAPS   H6X  893  -0.271   7.134   9.551  0.1040 -0.2637 -0.1214
    7SAPS   H6Y  894  -0.435   7.103   9.481 -0.0622  0.2172 -0.8744
    7SAPS   C37  895  -0.300   6.977   9.397 -0.0267 -0.7466 -0.0095
    7SAPS   H7X  896  -0.393   6.923   9.369 -0.6214  0.3975 -0.2737
    7SAPS   H7Y  897  -0.224   6.903   9.430  0.3546 -1.7985 -2.9739
    7SAPS   C38  898  -0.259   7.070   9.284  0.2430  0.1588  0.2062
    7SAPS   H8X  899  -0.151   7.097   9.289  0.0370  0.9559  0.5232
    7SAPS   H8Y  900  -0.322   7.160   9.269 -2.3243 -1.8811 -2.1420
    7SAPS   C39  901  -0.283   7.001   9.144  0.3470  0.4533 -0.7631
    7SAPS   H9X  902  -0.390   6.974   9.142  0.7800 -1.8591  1.5239
    7SAPS   H9Y  903  -0.236   6.901   9.156 -1.7831 -0.3926  1.0918
    7SAPS  C310  904  -0.249   7.076   9.021  0.1535  0.0147  0.3733
    7SAPS  H10X  905  -0.148   7.121   9.031  0.0767 -0.0848  1.8614
    7SAPS  H10Y  906  -0.321   7.157   8.998 -0.5411 -0.3880  1.1060
    7SAPS  C311  907  -0.272   6.987   8.890  0.1842 -0.1762 -0.1218
    7SAPS  H11X  908  -0.379   6.958   8.894  0.2082 -0.1369  3.0986
    7SAPS  H11Y  909  -0.202   6.901   8.902 -0.2421 -0.5067  0.0510
    7SAPS  C312  910  -0.250   7.064   8.760 -0.9015 -0.3915  0.0132
    7SAPS  H12X  911  -0.146   7.097   8.742  0.0323 -2.4704  1.1829
    7SAPS  H12Y  912  -0.312   7.156   8.770  0.1508  0.3053  0.1796
    7SAPS  C313  913  -0.293   6.979   8.637  0.3784  0.1546  0.0020
    7SAPS  H13X  914  -0.404   6.973   8.637  0.3894 -0.1761  1.2332
    7SAPS  H13Y  915  -0.245   6.879   8.632  0.2467  0.1382 -1.3507
    7SAPS  C314  916  -0.264   7.063   8.513  0.0090  0.0346 -0.1507
    7SAPS  H14X  917  -0.155   7.086   8.519 -0.3189  1.3954  0.8666
    7SAPS  H14Y  918  -0.315   7.161   8.525  1.3777  0.6286  1.1123
    7SAPS  C315  919  -0.307   7.011   8.374  0.1256  0.9495 -0.2674
    7SAPS  H15X  920  -0.326   7.099   8.310 -0.9586  0.8370 -0.1145
    7SAPS  H15Y  921  -0.394   6.942   8.377  1.8100 -1.2856  0.1401
    7SAPS  C316  922  -0.197   6.928   8.309 -0.5953  0.4746 -1.0355
    7SAPS  H16X  923  -0.193   6.830   8.361 -1.4874  1.3636  0.8269
    7SAPS  H16Y  924  -0.104   6.988   8.318 -0.6668  0.2962  2.2286
    7SAPS  C317  925  -0.221   6.912   8.164 -0.3847 -0.2821 -0.6827
    7SAPS  H17X  926  -0.207   7.012   8.119  0.6076  0.3002  0.8344
    7SAPS  H17Y  927  -0.323   6.870   8.149 -0.6182  0.8065 -2.3763
    7SAPS  C318  928  -0.133   6.805   8.097 -0.1419 -0.3295 -0.3704
    7SAPS  H18X  929  -0.146   6.703   8.139 -0.2712  0.4506  1.5924
    7SAPS  H18Y  930  -0.028   6.843   8.108  0.1116 -1.4339  1.5937
    7SAPS  H18Z  931  -0.155   6.792   7.989  1.0608 -0.8639 -0.5648
    8SAPS     N  932   2.792   3.798  11.586  0.0835  0.4892 -0.2629
    8SAPS   HN1  933   2.734   3.880  11.612 -0.3601 -0.4709  1.9776
    8SAPS   HN2  934   2.835   3.767  11.675  3.4847  0.5901 -1.7132
    8SAPS   HN3  935   2.872   3.832  11.530 -0.4009 -0.7869 -1.8231
    8SAPS   C12  936   2.721   3.697  11.504  0.0823  0.1606  0.6853
    8SAPS  H12A  937   2.794   3.626  11.466  1.4354  0.8792  1.8476
    8SAPS   C13  938   2.607   3.611  11.568 -0.3945 -0.2176 -0.2942
    8SAPS  O13A  939   2.602   3.615  11.695 -0.6325  0.7770  0.7577
    8SAPS  O13B  940   2.551   3.519  11.503  0.1012 -0.1750 -0.0058
    8SAPS   C11  941   2.670   3.779  11.383  0.5564 -0.0105  0.4848
    8SAPS  H11A  942   2.604   3.863  11.416 -2.3925 -1.5825 -1.0821
    8SAPS  H11B  943   2.614   3.712  11.315  1.9153 -2.6230  1.8212
    8SAPS     P  944   2.812   3.825  11.158 -0.4304 -0.0232  0.8428
    8SAPS   O13  945   2.916   3.926  11.123 -0.3457  0.2549 -0.0965
    8SAPS   O14  946   2.840   3.682  11.124  0.1033  0.1664 -0.6571
    8SAPS   O12  947   2.776   3.840  11.312 -0.6196  0.4893  0.1102
    8SAPS   O11  948   2.680   3.881  11.094 -0.1593  0.2767 -0.1689
    8SAPS    C1  949   2.610   3.822  10.982 -0.0026 -0.2391 -0.9280
    8SAPS    HA  950   2.606   3.711  10.987  0.0301 -0.1762  1.2034
    8SAPS    HB  951   2.509   3.866  10.990 -0.0668  0.6894 -4.8386
    8SAPS    C2  952   2.662   3.859  10.843  0.4938  0.4796 -0.4862
    8SAPS    HS  953   2.587   3.845  10.762 -0.4134  4.2159 -0.4659
    8SAPS   O21  954   2.779   3.789  10.811  0.3119 -0.2085 -0.5273
    8SAPS   C21  955   2.763   3.667  10.776  0.2443 -0.4929  0.7864
    8SAPS   O22  956   2.656   3.606  10.764  0.2100  0.6934 -0.2212
    8SAPS   C22  957   2.900   3.608  10.777 -0.2969 -0.3502 -0.0221
    8SAPS   H2R  958   2.960   3.652  10.694 -0.0845  1.0567  0.8472
    8SAPS   H2S  959   2.955   3.632  10.871 -0.8347  0.6141  0.0564
    8SAPS    C3  960   2.681   4.015  10.825  0.0916 -0.4523 -0.6038
    8SAPS    HX  961   2.737   4.051  10.914 -0.2900 -0.6002 -0.3024
    8SAPS    HY  962   2.585   4.071  10.828 -1.1174 -2.4701  2.1340
    8SAPS   O31  963   2.747   4.039  10.696  0.2561 -0.5034  0.3251
    8SAPS   C31  964   2.876   4.030  10.701 -0.3833  0.7058 -0.5655
    8SAPS   O32  965   2.942   4.014  10.804  0.3338  0.3175 -0.3680
    8SAPS   C32  966   2.933   4.027  10.560 -0.2008  0.3489 -0.0191
    8SAPS   H2X  967   3.016   3.954  10.566 -0.0847  0.1194 -2.9034
    8SAPS   H2Y  968   2.986   4.123  10.543  1.1289 -0.6920 -2.3436
    8SAPS   C23  969   2.883   3.453  10.770 -0.5833  0.0827 -0.4019
    8SAPS   H3R  970   2.831   3.430  10.674 -0.4454 -1.2223 -0.1837
    8SAPS   H3S  971   2.824   3.413  10.855 -0.1926 -1.5700 -0.8836
    8SAPS   C24  972   3.022   3.388  10.772 -0.2973 -0.6016 -0.2150
    8SAPS   H4R  973   3.077   3.414  10.865  0.2885 -0.7656 -0.5147
    8SAPS   H4S  974   3.095   3.435  10.704 -0.7628  0.9783  0.3214
    8SAPS   C25  975   3.009   3.239  10.765 -0.4403 -0.5937  0.2198
    8SAPS   H5R  976   2.989   3.187  10.861 -2.1184 -0.1182  0.1643
    8SAPS   C26  977   3.029   3.166  10.649  0.4252 -0.4765  0.2366
    8SAPS   H6R  978   3.005   3.059  10.649 -2.8324  0.0911  2.6048
    8SAPS   C27  979   3.063   3.219  10.510  0.0354 -0.1649  0.7228
    8SAPS   H7R  980   3.173   3.231  10.501  0.1656  0.5425  2.7947
    8SAPS   H7S  981   3.022   3.322  10.503 -1.0011 -0.6231 -0.5363
    8SAPS   C28  982   3.015   3.122  10.397 -0.1951  0.7427 -0.0791
    8SAPS   H8R  983   3.060   3.022  10.386 -1.9678  0.0346 -1.3723
    8SAPS   C29  984   2.916   3.157  10.310 -0.3067  0.0995 -0.2887
    8SAPS   H9R  985   2.876   3.092  10.231 -2.5194  1.2303 -0.1879
    8SAPS  C210  986   2.849   3.291  10.294 -0.0745 -0.1675  0.1388
    8SAPS  H10R  987   2.797   3.295  10.196 -0.3257 -1.0461  0.2266
    8SAPS  H10S  988   2.924   3.369  10.271 -1.4301  1.9746  2.4848
    8SAPS  C211  989   2.760   3.344  10.405  0.4128 -0.3891 -0.2302
    8SAPS  H11R  990   2.710   3.274  10.474  0.9997 -0.0693  0.5338
    8SAPS  C212  991   2.735   3.471  10.431  0.5375 -0.0748  0.0751
    8SAPS  H12R  992   2.666   3.488  10.515 -0.0193 -1.1294 -0.1567
    8SAPS  C213  993   2.772   3.592  10.356 -0.1388 -0.3476  0.2770
    8SAPS  H13R  994   2.878   3.587  10.324  0.2369  0.8784  1.2440
    8SAPS  H13S  995   2.767   3.676  10.428 -0.2087 -0.8902  0.9083
    8SAPS  C214  996   2.691   3.633  10.234  0.4131  0.0746 -0.4868
    8SAPS  H14R  997   2.584   3.623  10.258  0.3125  3.0619  0.7121
    8SAPS  C215  998   2.733   3.689  10.120 -0.9211  0.7843 -0.1402
    8SAPS  H15R  999   2.667   3.696  10.033  0.2915  1.5750 -1.0233
    8SAPS  C216 1000   2.882   3.723  10.092  0.1002  0.0936  0.0144
    8SAPS  H16R 1001   2.940   3.734  10.186 -2.0307  1.7181  1.2459
    8SAPS  H16S 1002   2.887   3.828  10.057  1.6319  0.5958  1.6278
    8SAPS  C217 1003   2.963   3.638   9.995 -0.4134  0.4244  0.1798
    8SAPS  H17R 1004   2.967   3.528  10.011  3.2979  0.4338  0.1607
    8SAPS  H17S 1005   3.068   3.674  10.001  0.1287 -0.7254 -1.6172
    8SAPS  C218 1006   2.925   3.661   9.841  0.0992  0.1021  0.5433
    8SAPS  H18R 1007   2.921   3.770   9.818  0.5368 -0.2697 -1.5750
    8SAPS  H18S 1008   2.832   3.607   9.814  1.2350 -1.6928  0.0606
    8SAPS  C219 1009   3.031   3.592   9.743  0.2301  0.3278  0.5597
    8SAPS  H19R 1010   3.030   3.485   9.775  2.7788  0.0722 -0.0137
    8SAPS  H19S 1011   3.131   3.637   9.758  0.7651 -0.6438 -0.0409
    8SAPS  C220 1012   2.985   3.594   9.598 -0.1433 -0.9366 -0.4143
    8SAPS  H20R 1013   2.965   3.700   9.570  1.6595 -0.6630 -0.8289
    8SAPS  H20S 1014   2.881   3.555   9.596 -1.9499  2.7722  3.8050
    8SAPS  H20T 1015   3.057   3.540   9.532  0.8911  1.9601 -1.8623
    8SAPS   C33 1016   2.837   3.973  10.452 -0.4441 -0.5604 -0.6077
    8SAPS   H3X 1017   2.749   3.922  10.497  0.3965  0.0088  1.8297
    8SAPS   H3Y 1018   2.880   3.888  10.394  0.1850  0.1939 -1.2674
    8SAPS   C34 1019   2.796   4.090  10.366 -0.4492 -0.0052 -0.4549
    8SAPS   H4X 1020   2.883   4.121  10.304 -0.4077  0.1891 -0.3012
    8SAPS   H4Y 1021   2.752   4.183  10.408  0.4923 -0.1276  0.8892
    8SAPS   C35 1022   2.700   4.029  10.260  0.3441 -0.5180  0.5203
    8SAPS   H5X 1023   2.612   3.972  10.298 -0.2868 -0.4876 -0.8321
    8SAPS   H5Y 1024   2.758   3.954  10.203  2.2983  0.8858  0.5667
    8SAPS   C36 1025   2.652   4.142  10.158 -0.3373  0.8804  0.5664
    8SAPS   H6X 1026   2.743   4.203  10.138  0.2775  0.5659  2.2986
    8SAPS   H6Y 1027   2.583   4.215  10.206  0.1616  1.1270  0.9171
    8SAPS   C37 1028   2.601   4.084  10.028  0.2012  0.1445  0.5852
    8SAPS   H7X 1029   2.522   4.016  10.066 -0.5133  1.7430  2.1020
    8SAPS   H7Y 1030   2.682   4.043   9.965 -0.7164  0.1346 -0.6348
    8SAPS   C38 1031   2.521   4.190   9.946 -0.0942  0.0534  0.6642
    8SAPS   H8X 1032   2.576   4.287   9.944 -0.6730  0.3800 -0.2802
    8SAPS   H8Y 1033   2.427   4.220   9.997 -0.7086 -2.7984  1.3636
    8SAPS   C39 1034   2.476   4.143   9.800  0.1624  0.1379 -0.1800
    8SAPS   H9X 1035   2.379   4.192   9.777 -0.5714 -1.5013 -0.7472
    8SAPS   H9Y 1036   2.450   4.038   9.826  0.5536  0.4550  1.6253
    8SAPS  C310 1037   2.571   4.159   9.684 -0.2921  0.0335 -0.1270
    8SAPS  H10X 1038   2.657   4.088   9.687 -1.0771 -0.8917  1.2404
    8SAPS  H10Y 1039   2.605   4.265   9.684  0.4707 -0.1744 -2.1178
    8SAPS  C311 1040   2.489   4.141   9.553 -0.3520 -0.2326  0.4026
    8SAPS  H11X 1041   2.411   4.219   9.568  0.1829 -0.0151  2.4304
    8SAPS  H11Y 1042   2.442   4.041   9.542 -1.5716  0.2595  0.9936
    8SAPS  C312 1043   2.564   4.189   9.425 -0.1714 -0.4524 -0.0550
    8SAPS  H12X 1044   2.662   4.138   9.424  0.9785  1.6406 -1.4134
    8SAPS  H12Y 1045   2.602   4.294   9.427  0.5189 -0.7017  1.7745
    8SAPS  C313 1046   2.483   4.161   9.301  0.3033 -0.4609 -0.3830
    8SAPS  H13X 1047   2.387   4.210   9.327  0.2119 -0.7035 -0.2663
    8SAPS  H13Y 1048   2.469   4.051   9.293  3.1845 -0.9939  0.7487
    8SAPS  C314 1049   2.541   4.218   9.174 -0.3272 -0.2818 -0.3067
    8SAPS  H14X 1050   2.633   4.159   9.154 -0.3243 -0.9851  1.5363
    8SAPS  H14Y 1051   2.574   4.324   9.186 -0.7898 -0.1393 -0.2771
    8SAPS  C315 1052   2.446   4.209   9.051  0.0012  0.1972 -0.0661
    8SAPS  H15X 1053   2.370   4.131   9.075 -0.1242  0.5015  0.5634
    8SAPS  H15Y 1054   2.503   4.193   8.957  0.4228 -1.5215  0.4430
    8SAPS  C316 1055   2.373   4.343   9.051 -0.4565  0.4910 -0.1377
    8SAPS  H16X 1056   2.442   4.418   9.008 -1.6519  2.2032  0.7928
    8SAPS  H16Y 1057   2.350   4.370   9.156  1.0881  0.4820  0.2154
    8SAPS  C317 1058   2.257   4.333   8.952 -0.3605  0.5047 -0.0136
    8SAPS  H17X 1059   2.175   4.262   8.972  0.0889 -0.0016  0.0475
    8SAPS  H17Y 1060   2.301   4.291   8.859  0.5739  0.1943  0.5610
    8SAPS  C318 1061   2.187   4.460   8.916  0.2157 -1.0218  0.1994
    8SAPS  H18X 1062   2.261   4.537   8.886 -0.1135 -0.1041  1.6148
    8SAPS  H18Y 1063   2.133   4.492   9.008  3.1773  0.5617  1.5113
    8SAPS  H18Z 1064   2.115   4.451   8.831 -0.0373  0.6378  0.1938
    9SAPS     N 1065   4.778   1.814   6.167 -0.2553  0.3101 -0.0400
    9SAPS   HN1 1066   4.757   1.897   6.226  1.1991 -0.6903  1.9897
    9SAPS   HN2 1067   4.706   1.798   6.093  0.0396  1.3096 -0.5607
    9SAPS   HN3 1068   4.765   1.729   6.226 -0.2396 -0.8919 -1.6875
    9SAPS   C12 1069   4.919   1.820   6.122  0.1903  0.4143  0.1021
    9SAPS  H12A 1070   4.939   1.717   6.095 -0.9326 -0.7756  3.3807
    9SAPS   C13 1071   4.937   1.918   6.006  0.3320  0.3344  0.2673
    9SAPS  O13A 1072   4.840   1.982   5.960 -0.1064  0.5497 -0.0463
    9SAPS  O13B 1073   5.030   1.890   5.933 -0.4732  0.0427  0.0421
    9SAPS   C11 1074   5.023   1.842   6.235  0.0915 -0.1274  0.2267
    9SAPS  H11A 1075   5.026   1.950   6.263 -0.1673 -0.1245  0.2463
    9SAPS  H11B 1076   5.117   1.824   6.179 -0.6406 -0.8634 -0.7935
    9SAPS     P 1077   5.057   1.789   6.484  0.1805  0.5207  0.3258
    9SAPS   O13 1078   4.976   1.703   6.568  0.0378 -0.4531  0.0125
    9SAPS   O14 1079   5.202   1.761   6.476  0.0026  0.4719  0.0669
    9SAPS   O12 1080   5.003   1.752   6.343  0.3933 -0.0860  0.1729
    9SAPS   O11 1081   5.023   1.942   6.506 -0.1333 -0.1002  0.1226
    9SAPS    C1 1082   5.120   2.034   6.557  0.5889  0.0585 -0.0269
    9SAPS    HA 1083   5.214   2.023   6.499 -0.1681  3.0627 -2.0608
    9SAPS    HB 1084   5.074   2.135   6.550  2.1034  0.9859  2.0729
    9SAPS    C2 1085   5.135   2.013   6.708 -0.3815 -0.1695  0.9265
    9SAPS    HS 1086   5.191   1.919   6.726  0.7531  0.6519  1.8170
    9SAPS   O21 1087   5.004   2.007   6.764  0.5153 -1.0330 -0.8380
    9SAPS   C21 1088   4.995   1.943   6.880  0.0320  0.6816  0.5231
    9SAPS   O22 1089   5.089   1.884   6.932 -0.1201 -0.2634  0.0026
    9SAPS   C22 1090   4.857   1.962   6.933 -0.8488 -0.4731 -0.6513
    9SAPS   H2R 1091   4.851   2.066   6.971  2.1813 -0.4195  0.0001
    9SAPS   H2S 1092   4.784   1.948   6.851  0.6883 -0.4807 -2.0746
    9SAPS    C3 1093   5.222   2.128   6.763  0.5669  0.1407 -0.7518
    9SAPS    HX 1094   5.176   2.228   6.750 -0.1571 -0.1279 -0.2895
    9SAPS    HY 1095   5.316   2.141   6.705  0.1632 -0.8135 -1.6799
    9SAPS   O31 1096   5.251   2.106   6.906 -1.2485 -0.3293 -0.3796
    9SAPS   C31 1097   5.357   2.034   6.935 -0.0098  0.4561 -0.0436
    9SAPS   O32 1098   5.448   2.008   6.857 -0.1226 -0.2372 -0.2068
    9SAPS   C32 1099   5.351   1.990   7.073 -0.8538  0.2997  0.7428
    9SAPS   H2X 1100   5.456   1.974   7.103 -0.4981  1.9904  0.5152
    9SAPS   H2Y 1101   5.303   1.891   7.089  0.2341 -0.1524  1.3143
    9SAPS   C23 1102   4.830   1.858   7.045  0.2198 -0.1051 -0.2480
    9SAPS   H3R 1103   4.887   1.883   7.137 -0.8154 -1.3979  0.7961
    9SAPS   H3S 1104   4.861   1.754   7.020 -0.9529 -0.6888  0.6155
    9SAPS   C24 1105   4.680   1.832   7.088 -0.6536 -0.3502  0.3628
    9SAPS   H4R 1106   4.690   1.752   7.164  2.5002 -1.3449 -0.9366
    9SAPS   H4S 1107   4.621   1.793   7.002  0.4183 -0.8551 -0.1755
    9SAPS   C25 1108   4.629   1.957   7.150 -0.5993  0.0633 -0.4851
    9SAPS   H5R 1109   4.611   2.040   7.080 -0.0251  0.1089 -0.5851
    9SAPS   C26 1110   4.608   1.979   7.280  0.4435 -0.3222 -0.0137
    9SAPS   H6R 1111   4.585   2.084   7.303  3.2427  0.2608  0.5172
    9SAPS   C27 1112   4.633   1.872   7.385  0.3809  0.3305 -0.1401
    9SAPS   H7R 1113   4.738   1.842   7.366 -0.0792 -0.3640 -1.7004
    9SAPS   H7S 1114   4.573   1.779   7.378 -0.0544  0.3994  1.9197
    9SAPS   C28 1115   4.606   1.921   7.522  0.1422  0.2045 -0.1165
    9SAPS   H8R 1116   4.511   1.880   7.560  0.2632 -0.3683 -0.4332
    9SAPS   C29 1117   4.683   2.001   7.596  0.0705 -0.4111 -0.2295
    9SAPS   H9R 1118   4.652   2.033   7.697  0.9624 -0.8223  0.1895
    9SAPS  C210 1119   4.810   2.070   7.569  0.3484 -0.0600  0.4073
    9SAPS  H10R 1120   4.802   2.175   7.605 -0.7180  0.2523 -0.6790
    9SAPS  H10S 1121   4.836   2.076   7.461 -2.0201  1.8977 -0.1304
    9SAPS  C211 1122   4.927   2.011   7.639 -0.2937  0.3442  0.1857
    9SAPS  H11R 1123   4.991   1.946   7.578 -1.7249  0.0875 -1.1222
    9SAPS  C212 1124   4.949   2.022   7.771 -0.2132 -0.0587  0.6521
    9SAPS  H12R 1125   5.049   1.993   7.806  0.4118  2.2607  0.9959
    9SAPS  C213 1126   4.873   2.099   7.876 -0.2458 -0.6568  0.0987
    9SAPS  H13R 1127   4.763   2.091   7.860  0.1058 -0.8337 -2.6949
    9SAPS  H13S 1128   4.894   2.208   7.873 -3.1164 -0.0070  0.7837
    9SAPS  C214 1129   4.904   2.041   8.015  0.1941 -1.3789  0.3501
    9SAPS  H14R 1130   4.961   1.947   8.023 -1.9443 -3.0826 -2.4833
    9SAPS  C215 1131   4.848   2.090   8.132  0.3801  0.3868  1.4988
    9SAPS  H15R 1132   4.870   2.029   8.221  0.3041 -1.3045  0.4090
    9SAPS  C216 1133   4.747   2.205   8.137 -0.0195 -0.3825  0.6052
    9SAPS  H16R 1134   4.647   2.168   8.169 -0.2954 -0.4706 -0.3436
    9SAPS  H16S 1135   4.730   2.255   8.039 -0.8629  1.0542  1.4459
    9SAPS  C217 1136   4.781   2.309   8.239  0.7079 -0.0046 -0.6644
    9SAPS  H17R 1137   4.788   2.259   8.338 -0.5927 -0.1893 -0.6434
    9SAPS  H17S 1138   4.688   2.365   8.263  1.2896  1.4207 -1.5977
    9SAPS  C218 1139   4.916   2.392   8.218  0.6960 -0.1557  0.2501
    9SAPS  H18R 1140   4.904   2.446   8.122 -1.7908  0.3071  0.7545
    9SAPS  H18S 1141   4.994   2.317   8.196 -0.4601 -0.4691 -3.4564
    9SAPS  C219 1142   4.962   2.480   8.339  0.1936  0.3580 -0.1536
    9SAPS  H19R 1143   4.930   2.431   8.433 -3.6406  1.3773 -0.7350
    9SAPS  H19S 1144   4.918   2.582   8.329 -1.2087 -0.2865 -0.9135
    9SAPS  C220 1145   5.112   2.495   8.335  0.4025  0.4634  0.1817
    9SAPS  H20R 1146   5.164   2.397   8.347 -0.9501 -0.2018  0.8116
    9SAPS  H20S 1147   5.135   2.575   8.409 -0.6432 -0.5854  1.7126
    9SAPS  H20T 1148   5.143   2.531   8.235 -1.8345 -1.3661 -1.2659
    9SAPS   C33 1149   5.295   2.092   7.181 -0.2258 -0.1689 -0.0243
    9SAPS   H3X 1150   5.341   2.191   7.165 -0.1206  0.1771  2.1706
    9SAPS   H3Y 1151   5.327   2.054   7.280  0.4507  1.7828  0.5423
    9SAPS   C34 1152   5.145   2.109   7.168  0.2419  0.6898 -0.2069
    9SAPS   H4X 1153   5.111   2.007   7.143  0.5154  0.7150 -0.6884
    9SAPS   H4Y 1154   5.132   2.181   7.084  2.6820  1.2747 -0.1851
    9SAPS   C35 1155   5.065   2.143   7.302  0.2441  0.2061  0.5822
    9SAPS   H5X 1156   5.094   2.071   7.381  1.0791 -0.1968 -0.0638
    9SAPS   H5Y 1157   4.958   2.142   7.274  0.6516  3.0010 -1.4930
    9SAPS   C36 1158   5.099   2.282   7.344 -0.0437  0.3581  0.3886
    9SAPS   H6X 1159   5.085   2.345   7.254  0.4668 -0.8106 -0.5270
    9SAPS   H6Y 1160   5.206   2.290   7.373 -0.2256  1.4105  0.8337
    9SAPS   C37 1161   5.017   2.351   7.455  0.3436  0.0546  0.0899
    9SAPS   H7X 1162   5.026   2.307   7.556 -0.2330 -1.8173 -0.6207
    9SAPS   H7Y 1163   4.911   2.324   7.436  0.0085  1.3052  0.0743
    9SAPS   C38 1164   5.040   2.498   7.445 -0.2709 -0.2011  0.3332
    9SAPS   H8X 1165   5.042   2.532   7.340  1.2130  1.7525  0.9390
    9SAPS   H8Y 1166   5.138   2.525   7.491 -1.2953  2.8642  0.9530
    9SAPS   C39 1167   4.938   2.571   7.532  1.2775 -0.0616 -0.9788
    9SAPS   H9X 1168   4.840   2.557   7.481  2.0503 -1.4062 -2.1905
    9SAPS   H9Y 1169   4.959   2.680   7.536 -0.0705  0.1964 -0.4583
    9SAPS  C310 1170   4.928   2.544   7.678 -0.3697 -0.0354  0.6512
    9SAPS  H10X 1171   5.029   2.548   7.724 -1.2790  1.8172  2.6961
    9SAPS  H10Y 1172   4.892   2.441   7.696 -0.5486 -0.5003 -2.0380
    9SAPS  C311 1173   4.827   2.640   7.743 -0.3814 -1.2481  0.0512
    9SAPS  H11X 1174   4.730   2.648   7.690 -0.0657 -1.6513 -0.6070
    9SAPS  H11Y 1175   4.871   2.742   7.746  0.1350 -1.3978 -1.5318
    9SAPS  C312 1176   4.799   2.594   7.889  0.1681  0.1838 -0.0547
    9SAPS  H12X 1177   4.899   2.568   7.928  0.9097  0.5890 -1.5921
    9SAPS  H12Y 1178   4.727   2.510   7.880 -1.8557  1.7204  0.9032
    9SAPS  C313 1179   4.736   2.699   7.989 -0.1005 -0.3879  0.4966
    9SAPS  H13X 1180   4.698   2.640   8.075 -0.8450  0.3844  0.7075
    9SAPS  H13Y 1181   4.650   2.756   7.950 -0.3504 -0.6486  0.6667
    9SAPS  C314 1182   4.830   2.811   8.046  0.0564 -0.4936  0.1538
    9SAPS  H14X 1183   4.875   2.868   7.962  1.1352 -0.1176  0.9606
    9SAPS  H14Y 1184   4.910   2.762   8.106  1.3883  1.0081 -0.3347
    9SAPS  C315 1185   4.765   2.920   8.131 -0.2248 -0.3760 -0.0185
    9SAPS  H15X 1186   4.673   2.944   8.072 -0.9759 -2.0940  0.3931
    9SAPS  H15Y 1187   4.832   3.007   8.148 -3.3307  2.1699  0.2247
    9SAPS  C316 1188   4.703   2.862   8.251 -0.2867  1.0025 -0.1851
    9SAPS  H16X 1189   4.763   2.775   8.287  0.0367  0.1887 -2.5414
    9SAPS  H16Y 1190   4.603   2.820   8.228  0.6178 -1.4294 -0.0080
    9SAPS  C317 1191   4.671   2.962   8.365  1.1035  0.0061  0.0380
    9SAPS  H17X 1192   4.761   3.026   8.383 -0.2535  2.0338 -0.0762
    9SAPS  H17Y 1193   4.636   2.900   8.450 -2.5091  1.0855 -0.5010
    9SAPS  C318 1194   4.561   3.066   8.331 -0.1287  0.4389  0.2380
    9SAPS  H18X 1195   4.576   3.110   8.230 -0.1832 -1.2606 -0.5379
    9SAPS  H18Y 1196   4.550   3.142   8.412  2.6736  1.8727 -0.6201
    9SAPS  H18Z 1197   4.466   3.008   8.330 -0.5361  1.0459  1.4513
   10SAPS     N 1198   4.850   1.454   6.547 -1.1406 -0.1642  0.1270
   10SAPS   HN1 1199   4.929   1.519   6.561  0.4097 -1.5022 -1.8661
   10SAPS   HN2 1200   4.773   1.497   6.603 -1.0549  0.4367 -0.2137
   10SAPS   HN3 1201   4.878   1.367   6.597  3.9271  0.6283 -0.8229
   10SAPS   C12 1202   4.800   1.434   6.407  0.0329  0.1416 -0.6427
   10SAPS  H12A 1203   4.735   1.350   6.426  1.8656 -0.9515  1.1769
   10SAPS   C13 1204   4.708   1.551   6.353 -0.1401  0.0112 -0.0589
   10SAPS  O13A 1205   4.708   1.655   6.419  0.1130 -0.0142 -0.3701
   10SAPS  O13B 1206   4.654   1.543   6.240 -0.0317 -0.0697  0.0639
   10SAPS   C11 1207   4.921   1.392   6.317 -0.2381  0.0189 -0.1114
   10SAPS  H11A 1208   4.981   1.482   6.292 -1.3685  0.5947 -0.7937
   10SAPS  H11B 1209   4.884   1.355   6.219  0.6991  0.4421 -0.6433
   10SAPS     P 1210   5.144   1.301   6.417 -0.1563  0.2526 -0.0081
   10SAPS   O13 1211   5.203   1.165   6.442  0.5421 -0.0470  0.0248
   10SAPS   O14 1212   5.212   1.381   6.320  0.3556 -0.3531 -0.2430
   10SAPS   O12 1213   4.995   1.281   6.372 -0.0588 -0.1921  0.1397
   10SAPS   O11 1214   5.135   1.381   6.549  0.2281 -0.5061  0.0994
   10SAPS    C1 1215   5.256   1.420   6.620  0.4536 -0.1652 -0.0775
   10SAPS    HA 1216   5.343   1.360   6.587 -1.0983 -3.3705  1.2653
   10SAPS    HB 1217   5.273   1.526   6.590  1.6204 -0.3624 -0.1277
   10SAPS    C2 1218   5.248   1.406   6.775 -0.1688  0.8438 -0.2739
   10SAPS    HS 1219   5.350   1.408   6.820 -0.3248 -2.1664  0.4091
   10SAPS   O21 1220   5.198   1.272   6.812  0.4786 -0.6947 -0.3606
   10SAPS   C21 1221   5.265   1.172   6.790 -0.3705 -0.3036  0.3204
   10SAPS   O22 1222   5.379   1.167   6.738  0.1403 -0.3776  0.1091
   10SAPS   C22 1223   5.201   1.051   6.857  0.3754  0.1468 -0.2709
   10SAPS   H2R 1224   5.183   1.091   6.959 -1.7440  1.1462 -0.9878
   10SAPS   H2S 1225   5.103   1.034   6.807 -0.9855  2.8190  1.2699
   10SAPS    C3 1226   5.165   1.520   6.845 -0.0765 -0.2414 -0.9931
   10SAPS    HX 1227   5.062   1.513   6.803  0.3261  0.8732 -2.2148
   10SAPS    HY 1228   5.194   1.626   6.832 -2.7323  0.6163 -0.5216
   10SAPS   O31 1229   5.148   1.496   6.987  0.0466 -0.1898  0.0802
   10SAPS   C31 1230   5.228   1.559   7.061 -0.1496 -0.5327  0.3897
   10SAPS   O32 1231   5.326   1.627   7.028 -0.0336  0.2101 -0.5712
   10SAPS   C32 1232   5.193   1.536   7.198  0.7116  0.0185 -0.1425
   10SAPS   H2X 1233   5.269   1.473   7.249 -0.1028 -1.1976 -0.4016
   10SAPS   H2Y 1234   5.095   1.484   7.207  1.1949 -1.0518 -0.9912
   10SAPS   C23 1235   5.292   0.917   6.868 -0.0045  0.0990  0.4954
   10SAPS   H3R 1236   5.364   0.929   6.784 -1.3800 -1.8947 -1.0713
   10SAPS   H3S 1237   5.219   0.839   6.836 -1.1686  1.5558 -0.5556
   10SAPS   C24 1238   5.362   0.889   6.997 -0.4193  0.6783  0.2338
   10SAPS   H4R 1239   5.424   0.797   6.993 -2.2662 -0.5447 -1.4591
   10SAPS   H4S 1240   5.289   0.866   7.077 -0.2935 -1.7387 -0.2866
   10SAPS   C25 1241   5.467   0.988   7.038 -0.0724  0.2468 -0.0938
   10SAPS   H5R 1242   5.543   1.014   6.962  0.4185 -1.8288 -0.3778
   10SAPS   C26 1243   5.472   1.047   7.157  0.6638  0.2915 -0.4846
   10SAPS   H6R 1244   5.544   1.129   7.175  2.3372 -0.3220 -3.6771
   10SAPS   C27 1245   5.370   1.036   7.276  0.4898  0.2287 -0.4635
   10SAPS   H7R 1246   5.406   0.973   7.360 -0.0966  2.2992  1.4305
   10SAPS   H7S 1247   5.287   0.970   7.242 -0.7531  2.4851 -2.1168
   10SAPS   C28 1248   5.310   1.160   7.339  0.7752 -0.0718 -0.2709
   10SAPS   H8R 1249   5.224   1.203   7.285  0.0527 -2.2789 -0.9905
   10SAPS   C29 1250   5.351   1.234   7.444 -0.3117  0.7531 -1.0063
   10SAPS   H9R 1251   5.309   1.332   7.470  1.6594  1.7614 -1.4705
   10SAPS  C210 1252   5.475   1.219   7.529  0.2840  0.2548 -0.0788
   10SAPS  H10R 1253   5.510   1.115   7.513  1.0581  0.4991  0.0084
   10SAPS  H10S 1254   5.446   1.229   7.636 -0.7070 -1.0011 -0.1972
   10SAPS  C211 1255   5.595   1.307   7.503  0.0794 -0.6909 -0.2668
   10SAPS  H11R 1256   5.620   1.326   7.398  2.2938  0.9702  0.4821
   10SAPS  C212 1257   5.680   1.350   7.596  0.3499 -0.5200 -0.3592
   10SAPS  H12R 1258   5.761   1.410   7.553 -2.5950  2.4051 -2.2724
   10SAPS  C213 1259   5.671   1.324   7.745 -0.2259 -0.0280  0.0558
   10SAPS  H13R 1260   5.606   1.236   7.763  0.2189 -0.2807  0.4270
   10SAPS  H13S 1261   5.622   1.416   7.785  1.3872  1.1860 -0.6559
   10SAPS  C214 1262   5.809   1.291   7.808  0.6137 -0.2690 -0.1864
   10SAPS  H14R 1263   5.889   1.362   7.784  0.8974 -0.5405 -0.0508
   10SAPS  C215 1264   5.835   1.183   7.887 -0.1085  0.6638  0.0619
   10SAPS  H15R 1265   5.938   1.161   7.918 -0.9584 -2.0489  1.2340
   10SAPS  C216 1266   5.743   1.073   7.919  0.8876  0.1046  0.3718
   10SAPS  H16R 1267   5.793   0.979   7.889  2.3993  1.1810 -0.6674
   10SAPS  H16S 1268   5.658   1.069   7.847  1.0804  0.9235  0.0892
   10SAPS  C217 1269   5.683   1.086   8.054 -0.6326  0.1652 -0.5222
   10SAPS  H17R 1270   5.589   1.027   8.060  0.3568 -1.2875  1.7711
   10SAPS  H17S 1271   5.654   1.194   8.054  0.3243  0.4554  1.1107
   10SAPS  C218 1272   5.779   1.052   8.164  0.7808  0.1371 -0.0102
   10SAPS  H18R 1273   5.860   1.127   8.181 -0.3988  1.8333 -1.4559
   10SAPS  H18S 1274   5.831   0.959   8.136  1.2872  0.9038 -1.7642
   10SAPS  C219 1275   5.704   1.013   8.293  0.3245  0.3086 -0.4470
   10SAPS  H19R 1276   5.780   0.973   8.363  1.5263 -1.7810 -2.7998
   10SAPS  H19S 1277   5.625   0.937   8.273 -0.1093  1.0750 -1.7686
   10SAPS  C220 1278   5.644   1.134   8.368 -0.1229  0.3002 -0.0189
   10SAPS  H20R 1279   5.585   1.190   8.292  1.3562  3.4164  0.9742
   10SAPS  H20S 1280   5.729   1.201   8.393  2.1453 -1.7224 -1.7055
   10SAPS  H20T 1281   5.575   1.113   8.452  0.0969  2.7225  0.8369
   10SAPS   C33 1282   5.196   1.672   7.277  0.0128  0.2951 -0.4289
   10SAPS   H3X 1283   5.113   1.743   7.257 -1.4199 -1.3625 -0.7277
   10SAPS   H3Y 1284   5.281   1.736   7.248 -1.4892  0.8606 -4.1486
   10SAPS   C34 1285   5.187   1.640   7.423  0.1493  0.1808 -0.2000
   10SAPS   H4X 1286   5.256   1.555   7.444  1.5242 -0.2788 -5.1373
   10SAPS   H4Y 1287   5.082   1.613   7.446  0.3951  0.8270  1.8235
   10SAPS   C35 1288   5.217   1.760   7.509 -0.2336  0.1107 -0.2136
   10SAPS   H5X 1289   5.139   1.839   7.497 -0.3695 -0.1721 -1.3137
   10SAPS   H5Y 1290   5.315   1.802   7.479  0.4957 -0.8014  0.7949
   10SAPS   C36 1291   5.233   1.719   7.652  0.3868 -0.0005 -0.8132
   10SAPS   H6X 1292   5.297   1.627   7.650 -2.1968 -2.0230  1.5046
   10SAPS   H6Y 1293   5.133   1.685   7.685  1.3185 -1.8955  0.2277
   10SAPS   C37 1294   5.298   1.825   7.741  0.1398  0.3418  0.5359
   10SAPS   H7X 1295   5.242   1.921   7.735 -1.0407 -0.3700 -0.0865
   10SAPS   H7Y 1296   5.401   1.850   7.709  0.4373  1.3262  2.1296
   10SAPS   C38 1297   5.319   1.770   7.884 -0.1817 -0.5929 -0.5674
   10SAPS   H8X 1298   5.412   1.715   7.906 -0.5114 -0.2549  1.9496
   10SAPS   H8Y 1299   5.245   1.689   7.899 -1.2446  0.5777  0.7876
   10SAPS   C39 1300   5.304   1.886   7.985  0.7691  0.5176  0.0794
   10SAPS   H9X 1301   5.200   1.926   7.981 -0.2713 -1.9270  0.7747
   10SAPS   H9Y 1302   5.373   1.964   7.948 -0.0061  0.5734 -1.2959
   10SAPS  C310 1303   5.323   1.845   8.131 -0.0411 -0.4408 -0.6984
   10SAPS  H10X 1304   5.432   1.832   8.149  0.1400 -1.4271 -2.2806
   10SAPS  H10Y 1305   5.292   1.740   8.149  0.4857 -1.2356 -3.8396
   10SAPS  C311 1306   5.252   1.934   8.229  0.2600  0.2695  0.2177
   10SAPS  H11X 1307   5.142   1.920   8.226  0.1978 -0.1792  2.6561
   10SAPS  H11Y 1308   5.266   2.040   8.200 -3.3501  0.4951 -1.2125
   10SAPS  C312 1309   5.311   1.918   8.371 -0.2243  0.0029 -0.7167
   10SAPS  H12X 1310   5.422   1.915   8.364 -0.1617 -1.8472  0.3860
   10SAPS  H12Y 1311   5.279   1.820   8.411 -1.1346  1.3599  2.0957
   10SAPS  C313 1312   5.268   2.032   8.465 -0.1726  0.7374  0.6519
   10SAPS  H13X 1313   5.281   2.129   8.412 -2.7365  1.0293  0.4254
   10SAPS  H13Y 1314   5.330   2.038   8.557 -0.5701 -1.2802  1.0998
   10SAPS  C314 1315   5.119   2.025   8.503 -0.3899  0.7624  0.1026
   10SAPS  H14X 1316   5.101   1.934   8.564 -0.2124  0.5854 -0.1111
   10SAPS  H14Y 1317   5.054   2.006   8.415 -4.8613  0.2129  3.1750
   10SAPS  C315 1318   5.077   2.145   8.592  0.4680 -0.4834 -0.3230
   10SAPS  H15X 1319   5.107   2.239   8.541  0.1677 -1.3086 -2.1118
   10SAPS  H15Y 1320   5.151   2.145   8.675 -0.4737 -0.1164  0.5285
   10SAPS  C316 1321   4.940   2.138   8.651  0.7215  0.1972  0.3396
   10SAPS  H16X 1322   4.949   2.046   8.714  2.5296  1.9273  2.8172
   10SAPS  H16Y 1323   4.867   2.116   8.571 -1.9920 -1.2159  3.0195
   10SAPS  C317 1324   4.893   2.260   8.727 -0.8727  0.1175 -0.0308
   10SAPS  H17X 1325   4.903   2.353   8.667  0.2767 -0.1800 -0.3361
   10SAPS  H17Y 1326   4.958   2.280   8.816  0.0612 -0.2535 -0.6183
   10SAPS  C318 1327   4.750   2.240   8.781 -0.4362 -0.0742 -0.1017
   10SAPS  H18X 1328   4.681   2.222   8.696 -0.4913  2.3860 -0.6366
   10SAPS  H18Y 1329   4.710   2.334   8.823 -0.6271  0.6479 -1.8099
   10SAPS  H18Z 1330   4.733   2.153   8.848  1.4131  0.1416  0.7123
   11SAPS     N 1331   6.819   5.438   6.076  0.6066  0.1426  0.4214
   11SAPS   HN1 1332   6.858   5.445   6.172  4.7986 -0.5456 -1.0278
   11SAPS   HN2 1333   6.785   5.531   6.044  0.6503  0.5898  1.6011
   11SAPS   HN3 1334   6.733   5.379   6.071  1.1418 -0.5929 -0.2661
   11SAPS   C12 1335   6.925   5.379   5.992  0.5342 -0.8613 -0.2342
   11SAPS  H12A 1336   6.971   5.299   6.049 -1.9105 -0.4336  2.6457
   11SAPS   C13 1337   6.869   5.325   5.861 -0.1029 -0.4554 -0.2035
   11SAPS  O13A 1338   6.746   5.305   5.841  0.1561 -0.2139  0.0647
   11SAPS  O13B 1339   6.948   5.289   5.768  0.4249  0.0484 -0.1562
   11SAPS   C11 1340   7.030   5.481   5.965  0.1681 -0.0257 -0.6801
   11SAPS  H11A 1341   6.987   5.563   5.904  1.4882 -0.0300 -1.6495
   11SAPS  H11B 1342   7.112   5.428   5.912 -0.0480 -1.1397  0.0574
   11SAPS     P 1343   7.219   5.617   6.105 -0.1066 -0.3905  0.1429
   11SAPS   O13 1344   7.254   5.699   5.984  0.0912  0.2061 -0.4162
   11SAPS   O14 1345   7.224   5.679   6.243 -0.0064 -0.0595 -0.1430
   11SAPS   O12 1346   7.074   5.546   6.084  0.1143 -0.0934 -0.1465
   11SAPS   O11 1347   7.308   5.490   6.105  0.7279  0.4789  0.0470
   11SAPS    C1 1348   7.285   5.382   6.201 -0.2620  0.2011 -0.1093
   11SAPS    HA 1349   7.183   5.384   6.244  0.0204  2.0393  0.5665
   11SAPS    HB 1350   7.289   5.282   6.152 -0.1273 -0.4191  1.1286
   11SAPS    C2 1351   7.394   5.363   6.308 -0.4578  0.6323  0.3724
   11SAPS    HS 1352   7.353   5.282   6.373  0.0098 -2.0857 -2.4533
   11SAPS   O21 1353   7.425   5.492   6.367 -0.2878  0.1026  0.3747
   11SAPS   C21 1354   7.342   5.530   6.462 -0.6366 -0.3192  0.8779
   11SAPS   O22 1355   7.246   5.467   6.502  0.0722  0.3275 -0.3786
   11SAPS   C22 1356   7.382   5.670   6.519 -0.8753 -0.0237 -0.2554
   11SAPS   H2R 1357   7.461   5.716   6.456 -1.9053  1.3400 -0.6080
   11SAPS   H2S 1358   7.291   5.733   6.508 -0.2619  0.7172 -1.2578
   11SAPS    C3 1359   7.524   5.296   6.256 -0.4625  1.1472 -0.5691
   11SAPS    HX 1360   7.600   5.362   6.209  0.5568  1.1187  0.9548
   11SAPS    HY 1361   7.501   5.231   6.169  0.2836 -0.8735  0.6668
   11SAPS   O31 1362   7.587   5.224   6.363 -0.0380 -0.7072  0.4152
   11SAPS   C31 1363   7.680   5.293   6.428 -0.0659  0.2907 -1.0064
   11SAPS   O32 1364   7.720   5.403   6.390  0.3509  0.1632  0.0319
   11SAPS   C32 1365   7.723   5.215   6.550  0.1733  0.5406 -0.4266
   11SAPS   H2X 1366   7.783   5.288   6.609 -0.4267 -0.5979  1.6549
   11SAPS   H2Y 1367   7.777   5.123   6.520  1.3494 -0.0818  3.1238
   11SAPS   C23 1368   7.421   5.669   6.666 -0.5649 -0.2846  0.3485
   11SAPS   H3R 1369   7.518   5.615   6.676  0.4886  1.5083  0.1682
   11SAPS   H3S 1370   7.343   5.622   6.729  0.6786 -0.4773  1.7930
   11SAPS   C24 1371   7.424   5.812   6.726 -0.2614  0.0988  0.5315
   11SAPS   H4R 1372   7.472   5.888   6.660 -0.9639  0.1321  0.0484
   11SAPS   H4S 1373   7.494   5.802   6.811 -1.5582 -1.1935  1.4864
   11SAPS   C25 1374   7.287   5.867   6.763 -0.3328  0.5666 -0.1446
   11SAPS   H5R 1375   7.227   5.892   6.674 -0.9051  0.3357  0.1754
   11SAPS   C26 1376   7.248   5.894   6.887  0.4199  0.0487  0.0848
   11SAPS   H6R 1377   7.154   5.950   6.892 -0.3257 -1.1629  0.1113
   11SAPS   C27 1378   7.319   5.883   7.016 -0.2612 -0.1526  0.0950
   11SAPS   H7R 1379   7.298   5.965   7.088  1.3437  0.8314 -0.5058
   11SAPS   H7S 1380   7.428   5.889   6.994 -0.1019 -0.2391  0.8222
   11SAPS   C28 1381   7.275   5.747   7.066 -0.3285  1.2444  0.4179
   11SAPS   H8R 1382   7.307   5.663   7.003 -1.2217  2.3657 -1.6230
   11SAPS   C29 1383   7.229   5.720   7.191 -1.3317  0.0283  0.4253
   11SAPS   H9R 1384   7.197   5.617   7.216  0.9015 -0.5658  1.0346
   11SAPS  C210 1385   7.206   5.816   7.297  0.6079 -0.1542  0.9227
   11SAPS  H10R 1386   7.193   5.918   7.253  3.9961 -0.1133 -0.2896
   11SAPS  H10S 1387   7.293   5.815   7.366  1.2584 -3.4364  0.2242
   11SAPS  C211 1388   7.081   5.776   7.374  0.6291 -0.0080 -0.0380
   11SAPS  H11R 1389   6.993   5.764   7.308 -0.6870 -3.5837  2.1312
   11SAPS  C212 1390   7.067   5.759   7.505  0.6143  0.0918 -0.6574
   11SAPS  H12R 1391   6.963   5.741   7.538  0.5669 -0.5810 -1.1587
   11SAPS  C213 1392   7.180   5.777   7.613  0.7896 -0.6019 -1.3530
   11SAPS  H13R 1393   7.283   5.779   7.571  1.3876 -2.0256 -0.0298
   11SAPS  H13S 1394   7.179   5.685   7.675  0.0074  0.8953  1.0080
   11SAPS  C214 1395   7.149   5.902   7.703  0.6148 -0.7878  0.5352
   11SAPS  H14R 1396   7.095   5.982   7.649 -0.3498 -1.6341  0.2176
   11SAPS  C215 1397   7.182   5.929   7.828  0.2167 -0.2029  0.2757
   11SAPS  H15R 1398   7.149   6.023   7.875  0.1051  1.0255 -2.1078
   11SAPS  C216 1399   7.255   5.836   7.913 -0.3941  0.5650  0.0555
   11SAPS  H16R 1400   7.345   5.889   7.953  0.5906 -0.4551 -0.7369
   11SAPS  H16S 1401   7.303   5.752   7.859 -1.1791 -0.1031  0.3878
   11SAPS  C217 1402   7.189   5.781   8.036  0.0444  0.0562  0.4048
   11SAPS  H17R 1403   7.261   5.702   8.064  0.6855  1.0393  1.6537
   11SAPS  H17S 1404   7.091   5.739   8.005  1.3788 -1.4412 -2.0773
   11SAPS  C218 1405   7.173   5.884   8.152  0.5602  0.4698  0.1356
   11SAPS  H18R 1406   7.094   5.862   8.227 -0.4054  1.1430 -0.6545
   11SAPS  H18S 1407   7.139   5.978   8.105  0.4005  0.0714 -0.5723
   11SAPS  C219 1408   7.298   5.925   8.229 -0.5381 -0.2537 -0.0300
   11SAPS  H19R 1409   7.375   5.945   8.150 -1.0152  0.4161 -0.3368
   11SAPS  H19S 1410   7.326   5.835   8.288 -1.7424  0.4111  1.6156
   11SAPS  C220 1411   7.272   6.039   8.329 -0.0962  0.4356 -0.5961
   11SAPS  H20R 1412   7.234   6.129   8.276 -0.1759  0.7896  0.0519
   11SAPS  H20S 1413   7.359   6.069   8.391 -0.9157  0.7166  0.4391
   11SAPS  H20T 1414   7.199   6.003   8.404  2.2124 -2.1345  0.6039
   11SAPS   C33 1415   7.607   5.182   6.647 -0.2042 -0.1052 -0.2588
   11SAPS   H3X 1416   7.656   5.148   6.740 -0.4448  0.2871  0.0156
   11SAPS   H3Y 1417   7.541   5.102   6.606 -0.3054  0.3334 -0.9715
   11SAPS   C34 1418   7.518   5.299   6.699  0.5219  0.3444  0.1775
   11SAPS   H4X 1419   7.433   5.303   6.627  0.9092  0.9244 -0.2559
   11SAPS   H4Y 1420   7.562   5.400   6.694  1.5480 -0.0551  0.8286
   11SAPS   C35 1421   7.475   5.278   6.849 -0.6490  0.7991  0.1154
   11SAPS   H5X 1422   7.543   5.331   6.919 -1.5442 -0.5757  2.1194
   11SAPS   H5Y 1423   7.497   5.173   6.878  1.9552  0.7238 -1.8197
   11SAPS   C36 1424   7.333   5.316   6.877 -0.0456  0.0696 -0.0430
   11SAPS   H6X 1425   7.266   5.236   6.837 -1.2426  0.6474  0.7320
   11SAPS   H6Y 1426   7.304   5.410   6.826  0.2122 -0.1705 -0.6328
   11SAPS   C37 1427   7.308   5.325   7.028 -0.2229  0.0146 -0.2173
   11SAPS   H7X 1428   7.363   5.417   7.059  1.0709 -0.8253  0.0636
   11SAPS   H7Y 1429   7.348   5.231   7.071  2.6972  0.3806 -1.8637
   11SAPS   C38 1430   7.158   5.325   7.052 -0.0316  0.9425 -0.8599
   11SAPS   H8X 1431   7.122   5.220   7.044 -0.1253  0.6429  2.3722
   11SAPS   H8Y 1432   7.101   5.391   6.983  1.2088  0.6121 -2.2552
   11SAPS   C39 1433   7.098   5.355   7.187  0.6869  0.4245  0.0546
   11SAPS   H9X 1434   7.006   5.293   7.190  1.9500 -1.5309  0.8628
   11SAPS   H9Y 1435   7.074   5.463   7.196 -4.3802 -0.3469 -1.0109
   11SAPS  C310 1436   7.182   5.320   7.313  0.3231 -0.3298  0.4235
   11SAPS  H10X 1437   7.281   5.370   7.301 -0.1033  1.4150  3.2943
   11SAPS  H10Y 1438   7.203   5.212   7.323 -3.4489 -1.3488 -1.1310
   11SAPS  C311 1439   7.111   5.372   7.437  0.1715 -0.1560 -0.6007
   11SAPS  H11X 1440   7.014   5.317   7.438 -0.2373  0.5506 -0.8561
   11SAPS  H11Y 1441   7.092   5.481   7.424 -3.0412 -0.7099 -1.3824
   11SAPS  C312 1442   7.172   5.325   7.571 -0.3295 -0.1056  0.1507
   11SAPS  H12X 1443   7.268   5.377   7.592 -1.7948  2.3569  1.1270
   11SAPS  H12Y 1444   7.184   5.215   7.564  1.3524 -0.0205  0.9861
   11SAPS  C313 1445   7.083   5.361   7.687 -0.1842  0.3608  0.1566
   11SAPS  H13X 1446   6.976   5.348   7.663 -0.5470  2.7945  0.1859
   11SAPS  H13Y 1447   7.097   5.470   7.705  0.0182  0.1099  1.7231
   11SAPS  C314 1448   7.119   5.287   7.814  0.4362 -0.4526 -0.3437
   11SAPS  H14X 1449   7.111   5.180   7.786 -0.7266  0.0512 -2.0389
   11SAPS  H14Y 1450   7.041   5.303   7.892  0.6057 -3.5160  0.5972
   11SAPS  C315 1451   7.253   5.308   7.870 -0.3898 -0.1388 -0.0721
   11SAPS  H15X 1452   7.240   5.408   7.918 -0.4940  0.2704 -0.9370
   11SAPS  H15Y 1453   7.328   5.304   7.788 -0.7979 -1.0607 -0.4052
   11SAPS  C316 1454   7.290   5.212   7.983 -0.4682  0.7178 -0.4049
   11SAPS  H16X 1455   7.294   5.106   7.949  0.0789  0.3515  0.7577
   11SAPS  H16Y 1456   7.210   5.210   8.060 -1.2531  0.6721 -1.2098
   11SAPS  C317 1457   7.425   5.247   8.049  0.7747 -0.2298  0.3155
   11SAPS  H17X 1458   7.403   5.337   8.110  3.0743  0.1452  0.6666
   11SAPS  H17Y 1459   7.503   5.279   7.977  2.4628  2.4964  3.1152
   11SAPS  C318 1460   7.468   5.138   8.142  1.3311  0.1624  1.0210
   11SAPS  H18X 1461   7.388   5.112   8.214  0.8895 -3.2666 -0.5137
   11SAPS  H18Y 1462   7.559   5.171   8.198  2.5409  0.8401 -1.2154
   11SAPS  H18Z 1463   7.495   5.041   8.095 -1.2653 -0.5375  0.8350
   12SAPS     N 1464   0.435   0.282   6.289 -0.1024  0.0963  0.2923
   12SAPS   HN1 1465   0.534   0.308   6.274 -0.6405  0.6032 -3.2674
   12SAPS   HN2 1466   0.371   0.333   6.224 -1.0081 -1.2989  0.0362
   12SAPS   HN3 1467   0.423   0.300   6.391  1.4686  1.2321  0.3101
   12SAPS   C12 1468   0.418   0.138   6.257  0.0920  0.6818 -0.4295
   12SAPS  H12A 1469   0.444   0.126   6.153  0.5700 -2.4126 -0.0640
   12SAPS   C13 1470   0.517   0.037   6.327 -0.3007  0.0532  0.4504
   12SAPS  O13A 1471   0.608   0.083   6.402 -0.1947  0.2767 -0.2736
   12SAPS  O13B 1472   0.510  -0.083   6.294  0.0599 -0.0451  0.0383
   12SAPS   C11 1473   0.273   0.100   6.276  0.8932  0.1941  0.5461
   12SAPS  H11A 1474   0.243   0.134   6.378  2.0035  1.3527  0.5071
   12SAPS  H11B 1475   0.265  -0.011   6.271 -2.8311  0.3646 -0.7219
   12SAPS     P 1476   0.044   0.096   6.126  0.0972  0.5300 -0.4924
   12SAPS   O13 1477  -0.019   0.181   6.021  0.0089  0.1217  0.2907
   12SAPS   O14 1478   0.073  -0.042   6.076  0.3061 -0.0667  0.1003
   12SAPS   O12 1479   0.183   0.161   6.177  0.0097  0.5093  0.1112
   12SAPS   O11 1480  -0.044   0.101   6.255 -0.0539 -0.5991  0.0495
   12SAPS    C1 1481  -0.057  -0.020   6.327  0.0217 -0.5179  0.5526
   12SAPS    HA 1482  -0.137  -0.088   6.289 -0.6972  0.2254  0.7138
   12SAPS    HB 1483   0.039  -0.075   6.328 -0.5055 -1.4588  0.3071
   12SAPS    C2 1484  -0.075   0.008   6.477  0.2727 -0.5347 -0.0285
   12SAPS    HS 1485  -0.183   0.024   6.499  0.4196 -0.8716  0.9817
   12SAPS   O21 1486  -0.012   0.128   6.514  0.1583 -0.0764 -0.2985
   12SAPS   C21 1487  -0.067   0.197   6.615 -0.1945  0.3776  0.1486
   12SAPS   O22 1488  -0.168   0.173   6.675  0.4186 -0.0878  0.1158
   12SAPS   C22 1489   0.019   0.325   6.635 -0.2681  0.1550  0.0686
   12SAPS   H2R 1490   0.122   0.291   6.656 -0.1369  0.9382  0.7687
   12SAPS   H2S 1491   0.015   0.378   6.538  0.3956 -0.1531 -0.1312
   12SAPS    C3 1492  -0.039  -0.117   6.569  0.2655  0.1655  0.1621
   12SAPS    HX 1493  -0.098  -0.201   6.527  0.8870 -0.3265  0.2693
   12SAPS    HY 1494  -0.071  -0.103   6.675  1.8051 -1.4337  0.8974
   12SAPS   O31 1495   0.099  -0.159   6.562  0.3836 -0.4055  0.2742
   12SAPS   C31 1496   0.177  -0.103   6.654  0.0498 -0.0347 -0.0768
   12SAPS   O32 1497   0.136  -0.045   6.753 -0.4643  0.3135 -0.0920
   12SAPS   C32 1498   0.322  -0.137   6.632 -0.3842 -0.5149  0.0076
   12SAPS   H2X 1499   0.353  -0.093   6.535  1.8414 -0.1402  0.8132
   12SAPS   H2Y 1500   0.321  -0.247   6.620  4.5893 -0.7326 -0.6867
   12SAPS   C23 1501  -0.031   0.412   6.744 -0.0291  0.3760 -0.7882
   12SAPS   H3R 1502  -0.045   0.353   6.838  1.2576  2.1714  0.6007
   12SAPS   H3S 1503  -0.130   0.455   6.720  0.8118  1.8283 -1.7912
   12SAPS   C24 1504   0.064   0.530   6.786  0.2398  0.2503 -0.2581
   12SAPS   H4R 1505   0.020   0.584   6.873 -0.3041 -2.4394  1.2428
   12SAPS   H4S 1506   0.082   0.603   6.704  0.1008 -0.4290 -0.9037
   12SAPS   C25 1507   0.187   0.462   6.841  0.0037 -0.3580  0.8491
   12SAPS   H5R 1508   0.249   0.424   6.759  0.0818 -0.4858  0.9673
   12SAPS   C26 1509   0.220   0.437   6.966 -0.5024  0.8172 -0.1745
   12SAPS   H6R 1510   0.315   0.382   6.974 -0.3896  0.7615 -1.6654
   12SAPS   C27 1511   0.149   0.471   7.095 -0.0279  0.5608 -0.1138
   12SAPS   H7R 1512   0.045   0.501   7.069  0.2024  2.4137  0.9606
   12SAPS   H7S 1513   0.201   0.558   7.141 -0.6156  1.2181 -0.6773
   12SAPS   C28 1514   0.153   0.356   7.190  0.1498  0.4769 -0.0030
   12SAPS   H8R 1515   0.168   0.258   7.141 -3.9164  0.3916 -1.4724
   12SAPS   C29 1516   0.143   0.354   7.324  0.1851 -0.5466  0.9156
   12SAPS   H9R 1517   0.163   0.260   7.377  0.7742  0.3837  2.4197
   12SAPS  C210 1518   0.115   0.480   7.413  0.0742  0.5479 -0.0788
   12SAPS  H10R 1519   0.128   0.573   7.354  0.0278 -0.4371 -1.6997
   12SAPS  H10S 1520   0.199   0.489   7.485  1.5071  0.3499 -1.6593
   12SAPS  C211 1521  -0.020   0.458   7.474  0.7069  0.5287  0.1755
   12SAPS  H11R 1522  -0.100   0.451   7.399 -1.0032  1.5396  1.8315
   12SAPS  C212 1523  -0.065   0.454   7.599 -0.2292 -0.1782  0.1960
   12SAPS  H12R 1524  -0.169   0.428   7.623 -0.0532 -0.6850  0.4299
   12SAPS  C213 1525   0.031   0.459   7.717 -0.8339  0.1930 -0.2964
   12SAPS  H13R 1526  -0.007   0.533   7.791  1.6077 -0.2537  1.5382
   12SAPS  H13S 1527   0.130   0.493   7.680  0.1706 -2.8036 -0.6356
   12SAPS  C214 1528   0.058   0.330   7.782  0.7941  0.6625 -0.8826
   12SAPS  H14R 1529   0.073   0.253   7.705 -1.0821 -0.3659 -0.2834
   12SAPS  C215 1530   0.043   0.297   7.913 -0.0139 -0.0959  0.9311
   12SAPS  H15R 1531   0.053   0.193   7.948 -1.0937  0.2455  2.3095
   12SAPS  C216 1532  -0.008   0.397   8.010  0.0618  0.1443 -1.0654
   12SAPS  H16R 1533  -0.115   0.377   8.032 -0.1068  1.5343 -0.4981
   12SAPS  H16S 1534   0.007   0.502   7.976  0.5116  0.1632 -0.8196
   12SAPS  C217 1535   0.067   0.374   8.139 -0.2864 -0.1215  0.2699
   12SAPS  H17R 1536   0.176   0.384   8.123 -0.0605 -1.0846  1.1030
   12SAPS  H17S 1537   0.064   0.265   8.164 -1.0210 -0.2980 -0.5247
   12SAPS  C218 1538   0.024   0.463   8.253  0.5455  0.0249 -0.3172
   12SAPS  H18R 1539  -0.080   0.436   8.280  0.5523  0.6173  0.3403
   12SAPS  H18S 1540   0.018   0.570   8.224 -0.5263  0.0134 -0.1964
   12SAPS  C219 1541   0.115   0.443   8.374 -0.3275  0.3531 -0.0155
   12SAPS  H19R 1542   0.215   0.485   8.352 -1.0901  2.4598  0.2927
   12SAPS  H19S 1543   0.126   0.332   8.380  0.6811  0.5152  1.3790
   12SAPS  C220 1544   0.071   0.513   8.503  0.0633  0.0062  0.5982
   12SAPS  H20R 1545   0.026   0.613   8.492 -0.8040 -0.5210 -0.9056
   12SAPS  H20S 1546   0.157   0.508   8.574  1.6305  1.1146 -1.1129
   12SAPS  H20T 1547  -0.010   0.459   8.556 -0.6585  1.7930  1.3985
   12SAPS   C33 1548   0.419  -0.102   6.747 -0.0953 -0.0882  0.2351
   12SAPS   H3X 1549   0.517  -0.152   6.733  0.2429 -0.0397  2.1301
   12SAPS   H3Y 1550   0.381  -0.150   6.840 -1.4747  2.2969  0.9964
   12SAPS   C34 1551   0.427   0.053   6.767 -0.1258 -0.0007  0.3363
   12SAPS   H4X 1552   0.321   0.085   6.772 -0.3056 -0.6350  0.6602
   12SAPS   H4Y 1553   0.467   0.095   6.672 -0.1981 -0.5625  0.0542
   12SAPS   C35 1554   0.508   0.104   6.888  0.5005 -0.1645 -0.0094
   12SAPS   H5X 1555   0.530   0.212   6.872 -0.7819  0.1119 -0.0236
   12SAPS   H5Y 1556   0.605   0.050   6.885  1.5545  1.3692  2.8617
   12SAPS   C36 1557   0.428   0.089   7.016  0.5705 -0.4520  0.2885
   12SAPS   H6X 1558   0.408  -0.017   7.043  0.4545  0.0871  2.5366
   12SAPS   H6Y 1559   0.325   0.130   7.009  0.2295 -1.4805 -1.0632
   12SAPS   C37 1560   0.486   0.166   7.123 -0.1484  0.1526  0.6344
   12SAPS   H7X 1561   0.456   0.271   7.109 -1.9562  0.3278  4.4509
   12SAPS   H7Y 1562   0.594   0.168   7.097 -0.7810 -0.7510 -2.4197
   12SAPS   C38 1563   0.455   0.127   7.265  0.6077 -0.1695 -0.4376
   12SAPS   H8X 1564   0.488   0.023   7.287 -0.6131 -0.3510  0.6470
   12SAPS   H8Y 1565   0.344   0.125   7.268  0.5706 -0.7530 -1.6250
   12SAPS   C39 1566   0.486   0.231   7.369 -0.6384 -0.0471  0.3854
   12SAPS   H9X 1567   0.448   0.328   7.331  0.4528 -0.2424 -1.3180
   12SAPS   H9Y 1568   0.597   0.235   7.370 -0.4812 -1.3193 -2.9147
   12SAPS  C310 1569   0.438   0.199   7.507  0.3523 -0.4328 -0.4756
   12SAPS  H10X 1570   0.503   0.119   7.548 -0.6386 -0.5290  0.9900
   12SAPS  H10Y 1571   0.330   0.173   7.495 -0.1390  1.8270 -1.3909
   12SAPS  C311 1572   0.445   0.329   7.592  0.0778  0.1145 -0.0106
   12SAPS  H11X 1573   0.366   0.401   7.560  0.5457  1.5773  1.9856
   12SAPS  H11Y 1574   0.541   0.377   7.563 -0.1287  2.1877  2.4483
   12SAPS  C312 1575   0.451   0.306   7.744 -0.0922 -0.6430 -0.6708
   12SAPS  H12X 1576   0.520   0.224   7.771  0.1663  0.2520  1.6014
   12SAPS  H12Y 1577   0.348   0.284   7.780  0.5509 -0.8451  1.1922
   12SAPS  C313 1578   0.505   0.427   7.826  0.0341  0.4208 -0.7533
   12SAPS  H13X 1579   0.435   0.503   7.784 -5.8776 -3.9042 -0.0403
   12SAPS  H13Y 1580   0.614   0.448   7.820  0.3377  0.8316  3.3691
   12SAPS  C314 1581   0.477   0.411   7.977 -0.2707  0.9440 -0.4392
   12SAPS  H14X 1582   0.533   0.327   8.024 -1.2835 -1.0641 -2.6205
   12SAPS  H14Y 1583   0.370   0.385   7.993  0.6942 -1.4320  3.6780
   12SAPS  C315 1584   0.503   0.536   8.063  0.1299 -0.1554 -0.2335
   12SAPS  H15X 1585   0.423   0.605   8.031  2.4990  2.7144 -0.4412
   12SAPS  H15Y 1586   0.602   0.575   8.030  1.8072 -3.0822  0.8902
   12SAPS  C316 1587   0.522   0.514   8.213  0.1979 -0.1173  0.3395
   12SAPS  H16X 1588   0.605   0.442   8.228  1.3793  1.1589  0.1525
   12SAPS  H16Y 1589   0.430   0.464   8.251 -0.1039 -0.0422 -0.2748
   12SAPS  C317 1590   0.534   0.641   8.292 -0.0181 -0.0298  0.4110
   12SAPS  H17X 1591   0.434   0.686   8.308 -1.1375 -1.8696 -0.9860
   12SAPS  H17Y 1592   0.603   0.722   8.258  1.7904 -1.0173  1.6031
   12SAPS  C318 1593   0.574   0.616   8.440 -0.3909 -0.4440  0.4360
   12SAPS  H18X 1594   0.669   0.560   8.434 -0.1037  0.1265 -0.8772
   12SAPS  H18Y 1595   0.501   0.550   8.490 -0.1402 -1.3157 -0.3325
   12SAPS  H18Z 1596   0.588   0.713   8.493 -0.2317 -0.1398 -0.1450
   13SAPS     N 1597   6.712   3.326   5.980  0.0076  0.5416  0.3182
   13SAPS   HN1 1598   6.721   3.264   5.897  1.5957 -0.7294  1.3534
   13SAPS   HN2 1599   6.785   3.278   6.036 -0.9970  0.2676  1.4250
   13SAPS   HN3 1600   6.619   3.305   6.022  0.2239  2.5559  1.9689
   13SAPS   C12 1601   6.748   3.473   5.949  0.2109 -0.0283 -0.8856
   13SAPS  H12A 1602   6.854   3.482   5.931  0.4267  1.1009  0.7007
   13SAPS   C13 1603   6.669   3.523   5.826  0.2331  0.1959  0.0400
   13SAPS  O13A 1604   6.590   3.440   5.769 -0.0508 -0.5432  0.2763
   13SAPS  O13B 1605   6.724   3.610   5.748  0.2802  0.0862 -0.4236
   13SAPS   C11 1606   6.704   3.572   6.062 -0.1518 -0.2680  0.0479
   13SAPS  H11A 1607   6.593   3.577   6.057 -0.2754 -2.1921 -0.0702
   13SAPS  H11B 1608   6.741   3.671   6.030 -0.4911 -0.6748 -1.7023
   13SAPS     P 1609   6.851   3.622   6.273 -0.0043 -0.1852 -0.1435
   13SAPS   O13 1610   6.972   3.618   6.185  1.2663  0.7007 -0.5709
   13SAPS   O14 1611   6.781   3.754   6.296  0.3964  0.5851 -0.3528
   13SAPS   O12 1612   6.748   3.531   6.194  0.3343  0.6451 -0.1999
   13SAPS   O11 1613   6.879   3.556   6.411  0.3802  0.1555 -0.1839
   13SAPS    C1 1614   6.879   3.411   6.432 -0.1383 -0.4408  0.4625
   13SAPS    HA 1615   6.785   3.370   6.390  2.2364 -2.7042 -3.2916
   13SAPS    HB 1616   6.966   3.371   6.375  0.9147  1.1209  0.9016
   13SAPS    C2 1617   6.895   3.361   6.576 -0.5474 -0.2063 -0.3377
   13SAPS    HS 1618   6.885   3.251   6.586  0.8120 -0.1634  2.5575
   13SAPS   O21 1619   6.815   3.435   6.669  0.1530 -0.3560 -0.4637
   13SAPS   C21 1620   6.692   3.388   6.684  0.7525  0.1237 -0.2246
   13SAPS   O22 1621   6.644   3.295   6.625 -0.2209 -0.5645 -0.4084
   13SAPS   C22 1622   6.627   3.457   6.807  0.1890 -0.0547 -0.3460
   13SAPS   H2R 1623   6.569   3.380   6.863  2.1146  2.1023  5.3428
   13SAPS   H2S 1624   6.713   3.477   6.874  1.2035 -1.2289 -1.2553
   13SAPS    C3 1625   7.041   3.379   6.629 -0.2741  0.4475 -0.4068
   13SAPS    HX 1626   7.046   3.481   6.672 -0.7010  1.2032 -2.0519
   13SAPS    HY 1627   7.115   3.365   6.547 -0.5937 -0.7067 -0.5253
   13SAPS   O31 1628   7.073   3.300   6.743 -0.0429 -0.0643  0.0792
   13SAPS   C31 1629   7.208   3.285   6.758  1.0104  0.6247 -0.2952
   13SAPS   O32 1630   7.290   3.316   6.674  0.0441 -0.3708  0.4929
   13SAPS   C32 1631   7.243   3.213   6.891  0.3452 -0.1216  0.5304
   13SAPS   H2X 1632   7.216   3.107   6.873 -0.2211  0.0425  0.4181
   13SAPS   H2Y 1633   7.188   3.265   6.973  0.0318  0.6048 -0.1243
   13SAPS   C23 1634   6.533   3.574   6.777  0.3936  0.6513 -0.0540
   13SAPS   H3R 1635   6.458   3.539   6.703 -0.6367  0.0236  1.2478
   13SAPS   H3S 1636   6.595   3.652   6.728  0.3463 -0.1502 -1.4398
   13SAPS   C24 1637   6.456   3.616   6.899  0.1700  0.5135  0.0852
   13SAPS   H4R 1638   6.415   3.520   6.938  2.8856 -0.0311  1.8831
   13SAPS   H4S 1639   6.366   3.670   6.864 -0.4842 -0.3135  0.4513
   13SAPS   C25 1640   6.539   3.698   6.987  0.2120 -0.5340 -0.4217
   13SAPS   H5R 1641   6.551   3.799   6.945 -0.9986 -0.4450 -0.5832
   13SAPS   C26 1642   6.588   3.666   7.112  0.1439 -0.1370  0.1927
   13SAPS   H6R 1643   6.654   3.740   7.161  0.7421 -0.9815  0.6975
   13SAPS   C27 1644   6.583   3.525   7.171 -0.1830  0.3235  0.1612
   13SAPS   H7R 1645   6.683   3.480   7.160 -0.6150 -0.4009 -0.8973
   13SAPS   H7S 1646   6.508   3.461   7.120 -0.5396  0.2602  0.7484
   13SAPS   C28 1647   6.549   3.529   7.321 -0.2342 -1.0677  0.3997
   13SAPS   H8R 1648   6.448   3.550   7.360  0.1619  0.5366  0.6274
   13SAPS   C29 1649   6.633   3.502   7.425  0.0783 -0.0471 -0.8459
   13SAPS   H9R 1650   6.592   3.512   7.527 -1.2143 -0.2549 -1.3269
   13SAPS  C210 1651   6.784   3.474   7.417 -0.3487 -0.3294 -0.2736
   13SAPS  H10R 1652   6.848   3.564   7.409  1.2230 -1.3937  0.0187
   13SAPS  H10S 1653   6.813   3.409   7.332  0.7124  0.1399 -0.2866
   13SAPS  C211 1654   6.823   3.405   7.552  0.3356  0.0404 -0.2700
   13SAPS  H11R 1655   6.836   3.296   7.544  0.5075  0.1454 -1.9071
   13SAPS  C212 1656   6.854   3.460   7.668 -0.0704  0.7021 -0.8006
   13SAPS  H12R 1657   6.880   3.389   7.748  0.1707 -1.2286 -2.5231
   13SAPS  C213 1658   6.856   3.604   7.698  0.4410  0.0003  0.0619
   13SAPS  H13R 1659   6.766   3.661   7.668 -0.4499 -1.0668  0.6179
   13SAPS  H13S 1660   6.937   3.650   7.637 -0.8812  0.4292 -1.4272
   13SAPS  C214 1661   6.887   3.633   7.841 -0.0425 -0.0146  0.4825
   13SAPS  H14R 1662   6.797   3.668   7.894 -0.4652 -1.9259  1.1454
   13SAPS  C215 1663   7.010   3.633   7.896 -0.0713 -0.3609  0.0325
   13SAPS  H15R 1664   7.019   3.644   8.005 -2.6048  0.3766  0.2255
   13SAPS  C216 1665   7.135   3.591   7.824  0.5368  0.2480  0.0313
   13SAPS  H16R 1666   7.204   3.678   7.831  0.8457 -0.0252  0.4034
   13SAPS  H16S 1667   7.123   3.586   7.713  0.9755  0.4569 -0.0298
   13SAPS  C217 1668   7.198   3.461   7.871 -0.3258  0.3161 -0.5443
   13SAPS  H17R 1669   7.302   3.454   7.832 -0.8407  0.0078 -1.9249
   13SAPS  H17S 1670   7.144   3.372   7.834  1.7520 -0.5308 -1.7200
   13SAPS  C218 1671   7.196   3.444   8.026  0.5083 -0.1619 -0.3158
   13SAPS  H18R 1672   7.239   3.349   8.064 -0.9202 -0.9402 -0.6123
   13SAPS  H18S 1673   7.090   3.434   8.056  1.4798 -1.1611  3.3431
   13SAPS  C219 1674   7.271   3.544   8.107  0.1555 -0.4193 -0.1341
   13SAPS  H19R 1675   7.264   3.650   8.075  2.0935  0.1470  1.1473
   13SAPS  H19S 1676   7.379   3.528   8.085  0.9690  2.9650  0.8731
   13SAPS  C220 1677   7.236   3.549   8.257 -0.0046 -0.8201  0.1376
   13SAPS  H20R 1678   7.274   3.639   8.311  1.0895 -0.4300 -1.2132
   13SAPS  H20S 1679   7.272   3.459   8.311  0.1426 -0.2759  0.9580
   13SAPS  H20T 1680   7.125   3.560   8.258 -0.0617 -1.2624 -0.8303
   13SAPS   C33 1681   7.393   3.218   6.933  0.2932 -0.2319  0.0550
   13SAPS   H3X 1682   7.425   3.324   6.924 -0.4806  0.1211  1.1488
   13SAPS   H3Y 1683   7.441   3.159   6.852  2.5782  1.9219 -0.2761
   13SAPS   C34 1684   7.421   3.150   7.072  0.5142  0.5742  0.3548
   13SAPS   H4X 1685   7.513   3.090   7.056  1.0683  1.0973  1.4166
   13SAPS   H4Y 1686   7.342   3.076   7.098  1.1259  0.3640  1.7141
   13SAPS   C35 1687   7.435   3.257   7.182  0.1110  0.3611  0.3326
   13SAPS   H5X 1688   7.354   3.331   7.196 -0.5762 -0.2410 -0.4239
   13SAPS   H5Y 1689   7.528   3.310   7.150 -0.1671 -0.1328 -1.3694
   13SAPS   C36 1690   7.469   3.187   7.316 -0.0763  0.9187 -0.5176
   13SAPS   H6X 1691   7.551   3.120   7.282 -0.2500  0.7569 -0.6173
   13SAPS   H6Y 1692   7.379   3.128   7.342  0.3259  0.7740  0.5847
   13SAPS   C37 1693   7.517   3.260   7.441 -0.0829 -0.1312  0.2123
   13SAPS   H7X 1694   7.458   3.354   7.450 -0.0572  0.0246 -1.0291
   13SAPS   H7Y 1695   7.625   3.276   7.421  0.1348 -2.2533 -0.5648
   13SAPS   C38 1696   7.499   3.181   7.574  0.4715  0.4649  0.0601
   13SAPS   H8X 1697   7.557   3.087   7.562  1.2249  1.0269 -0.8855
   13SAPS   H8Y 1698   7.396   3.148   7.597  0.5516  0.3100  0.1971
   13SAPS   C39 1699   7.545   3.270   7.691  0.1427  1.0513  0.1105
   13SAPS   H9X 1700   7.464   3.346   7.691  0.4294  1.3602  0.4643
   13SAPS   H9Y 1701   7.639   3.328   7.696  0.5719  0.2915  1.0739
   13SAPS  C310 1702   7.535   3.191   7.824  0.6355 -1.0240  0.3725
   13SAPS  H10X 1703   7.604   3.104   7.831  0.9378 -0.9578 -1.3099
   13SAPS  H10Y 1704   7.430   3.157   7.837 -0.0523  0.5834 -0.7207
   13SAPS  C311 1705   7.559   3.281   7.946  0.1329 -0.8104 -0.5928
   13SAPS  H11X 1706   7.477   3.356   7.949 -1.3641 -2.3993  0.0049
   13SAPS  H11Y 1707   7.657   3.332   7.940 -0.1982 -0.0883  0.0226
   13SAPS  C312 1708   7.548   3.199   8.075  0.5297  0.7292  0.4050
   13SAPS  H12X 1709   7.633   3.127   8.072 -0.7893 -0.8588 -0.1863
   13SAPS  H12Y 1710   7.455   3.140   8.088  1.1180 -0.2215  0.4393
   13SAPS  C313 1711   7.567   3.283   8.204 -0.1573 -0.4210  0.9625
   13SAPS  H13X 1712   7.472   3.339   8.216  0.1921  1.1623 -2.5485
   13SAPS  H13Y 1713   7.651   3.355   8.199 -2.3892  2.5610  2.9801
   13SAPS  C314 1714   7.586   3.191   8.330 -0.4761 -0.0289 -0.2415
   13SAPS  H14X 1715   7.682   3.135   8.326 -1.8899 -2.8107  1.4465
   13SAPS  H14Y 1716   7.502   3.118   8.330 -0.1766 -0.3748  0.0602
   13SAPS  C315 1717   7.594   3.268   8.457  0.3475 -0.0497 -0.8970
   13SAPS  H15X 1718   7.682   3.336   8.460  0.2821 -0.0037  0.4341
   13SAPS  H15Y 1719   7.604   3.202   8.545 -0.7757 -0.4794 -1.0674
   13SAPS  C316 1720   7.464   3.351   8.482 -0.4011  0.6316 -0.2544
   13SAPS  H16X 1721   7.379   3.283   8.463  0.1858  0.5514 -2.9299
   13SAPS  H16Y 1722   7.457   3.431   8.406 -0.5010  1.6756  0.8105
   13SAPS  C317 1723   7.463   3.411   8.621  0.0979 -0.2638  1.1879
   13SAPS  H17X 1724   7.561   3.458   8.644  0.7162 -0.8893 -0.0826
   13SAPS  H17Y 1725   7.450   3.332   8.698 -1.1925 -0.3175  0.9493
   13SAPS  C318 1726   7.347   3.507   8.635  0.0777 -0.3968 -0.0194
   13SAPS  H18X 1727   7.344   3.590   8.561  1.1917 -0.7912 -0.5336
   13SAPS  H18Y 1728   7.340   3.558   8.733  0.0842  0.7694 -0.6039
   13SAPS  H18Z 1729   7.254   3.449   8.621  0.5129 -1.0385 -0.3244
   14SAPS     N 1730   2.739   0.151   6.081 -0.1646 -0.5719 -0.2388
   14SAPS   HN1 1731   2.748   0.249   6.049 -2.8787  0.5640  2.0577
   14SAPS   HN2 1732   2.644   0.131   6.117  0.7764 -1.4388  1.9755
   14SAPS   HN3 1733   2.815   0.137   6.152  1.8971 -0.0267 -2.2158
   14SAPS   C12 1734   2.760   0.043   5.983 -0.3156 -0.3404 -0.0733
   14SAPS  H12A 1735   2.857   0.042   5.935 -1.8731 -3.2849 -3.6653
   14SAPS   C13 1736   2.771  -0.103   6.039  0.3695  0.5697  0.2486
   14SAPS  O13A 1737   2.744  -0.136   6.156 -0.2526  0.5237  0.7494
   14SAPS  O13B 1738   2.807  -0.195   5.958  0.4805  0.0194  0.4069
   14SAPS   C11 1739   2.639   0.035   5.878  0.3928 -0.6871  0.0278
   14SAPS  H11A 1740   2.658  -0.055   5.815 -0.1909  0.1334 -1.3790
   14SAPS  H11B 1741   2.635   0.124   5.812  1.3065 -1.0764 -0.5706
   14SAPS     P 1742   2.379  -0.004   5.870  0.0370  0.1822 -0.4811
   14SAPS   O13 1743   2.342   0.105   5.781  0.1344 -0.2131 -0.0643
   14SAPS   O14 1744   2.382  -0.134   5.805 -0.4454  0.1839  0.4178
   14SAPS   O12 1745   2.510   0.021   5.954  0.3630  0.4586  0.0348
   14SAPS   O11 1746   2.265  -0.014   5.976 -0.1112 -0.4070  0.1752
   14SAPS    C1 1747   2.303  -0.027   6.119 -0.4878  0.7317  0.2147
   14SAPS    HA 1748   2.355  -0.121   6.144  0.1976  0.6606 -1.3720
   14SAPS    HB 1749   2.365   0.064   6.138  0.5189  0.1125 -0.0208
   14SAPS    C2 1750   2.182  -0.018   6.210  0.9359 -0.1862  0.2850
   14SAPS    HS 1751   2.215  -0.032   6.316 -1.4437  1.2153  1.2993
   14SAPS   O21 1752   2.075  -0.112   6.176 -0.1319  0.1637  0.1865
   14SAPS   C21 1753   2.098  -0.235   6.189  0.4906  1.2253 -0.5007
   14SAPS   O22 1754   2.196  -0.290   6.229 -0.4108 -0.0630 -0.4903
   14SAPS   C22 1755   1.967  -0.320   6.162 -0.3075 -0.3240 -0.1439
   14SAPS   H2R 1756   1.881  -0.278   6.217  0.1840 -1.8675  1.9504
   14SAPS   H2S 1757   1.944  -0.327   6.054 -3.8327 -0.7395  0.5387
   14SAPS    C3 1758   2.135   0.131   6.204 -0.2512 -0.2994  0.0221
   14SAPS    HX 1759   2.096   0.146   6.101  1.1968  1.4959 -0.2960
   14SAPS    HY 1760   2.229   0.188   6.207  0.0586 -0.5179 -2.6965
   14SAPS   O31 1761   2.050   0.173   6.310  0.7240  1.0057 -0.5163
   14SAPS   C31 1762   1.919   0.171   6.297 -0.5453 -0.4869  0.3679
   14SAPS   O32 1763   1.858   0.139   6.196  0.3341 -0.4747  0.2476
   14SAPS   C32 1764   1.850   0.241   6.413  0.0089 -0.3226 -0.4371
   14SAPS   H2X 1765   1.910   0.333   6.432  0.8896 -1.3949  2.5571
   14SAPS   H2Y 1766   1.854   0.174   6.502 -0.1905 -0.0048 -0.1851
   14SAPS   C23 1767   1.984  -0.475   6.215  0.2368 -1.1741  0.4123
   14SAPS   H3R 1768   2.063  -0.472   6.292  1.2379  0.8922 -0.6250
   14SAPS   H3S 1769   2.004  -0.542   6.128  0.2116 -2.7689  1.5886
   14SAPS   C24 1770   1.862  -0.532   6.296  0.3299 -0.2202 -0.3024
   14SAPS   H4R 1771   1.878  -0.642   6.300 -0.1193 -0.2561  1.5866
   14SAPS   H4S 1772   1.765  -0.517   6.243  0.4781 -0.2148 -0.5758
   14SAPS   C25 1773   1.845  -0.469   6.436 -0.6281  0.0438 -0.2606
   14SAPS   H5R 1774   1.785  -0.376   6.431 -0.5507  0.3642  3.0769
   14SAPS   C26 1775   1.903  -0.502   6.554 -0.0268 -0.8479  0.1565
   14SAPS   H6R 1776   1.896  -0.428   6.635  1.3553  0.8024 -1.1607
   14SAPS   C27 1777   2.001  -0.612   6.569  0.2463  0.7878  0.1846
   14SAPS   H7R 1778   2.098  -0.585   6.615  2.3632 -2.3699 -1.9895
   14SAPS   H7S 1779   2.038  -0.638   6.467  1.3578  1.6947  0.3313
   14SAPS   C28 1780   1.948  -0.738   6.627 -0.1110 -0.0012  0.5679
   14SAPS   H8R 1781   1.925  -0.822   6.560 -1.5336  0.6571  0.1872
   14SAPS   C29 1782   1.917  -0.755   6.755  0.0603  0.2061 -0.5981
   14SAPS   H9R 1783   1.908  -0.859   6.789  2.2243  0.3565  0.6538
   14SAPS  C210 1784   1.931  -0.649   6.865 -0.4525  0.2252  0.3158
   14SAPS  H10R 1785   1.836  -0.592   6.856 -0.6239  0.2341  1.8953
   14SAPS  H10S 1786   2.011  -0.574   6.847  1.6299 -1.0609  3.3645
   14SAPS  C211 1787   1.938  -0.701   7.008 -0.4218  0.1041 -0.1960
   14SAPS  H11R 1788   1.950  -0.809   7.023  0.2592  0.3599  1.2699
   14SAPS  C212 1789   1.946  -0.624   7.116 -0.2387  0.0071  0.5061
   14SAPS  H12R 1790   1.949  -0.670   7.216 -0.0476 -1.8369 -0.2871
   14SAPS  C213 1791   1.950  -0.470   7.115 -0.5927  0.5618 -0.1370
   14SAPS  H13R 1792   1.974  -0.423   7.018  0.5517  0.3920  0.0483
   14SAPS  H13S 1793   2.029  -0.437   7.186 -0.6543 -0.6919  0.5427
   14SAPS  C214 1794   1.820  -0.416   7.162  0.1524 -0.1700  0.3046
   14SAPS  H14R 1795   1.759  -0.384   7.077 -0.2102  0.4378  0.7800
   14SAPS  C215 1796   1.762  -0.408   7.288  0.7954 -0.4464  0.6916
   14SAPS  H15R 1797   1.659  -0.371   7.297  1.1877  0.5960  1.0848
   14SAPS  C216 1798   1.819  -0.459   7.419  0.3438  0.3642 -0.3025
   14SAPS  H16R 1799   1.787  -0.562   7.447  1.0033  0.4909  1.0032
   14SAPS  H16S 1800   1.773  -0.390   7.493  0.6687  1.1778 -0.8521
   14SAPS  C217 1801   1.975  -0.454   7.431 -0.0984 -0.2740  0.1921
   14SAPS  H17R 1802   2.003  -0.355   7.387  0.4156 -0.7059 -0.4765
   14SAPS  H17S 1803   2.020  -0.535   7.370 -1.7090  1.2483 -3.3056
   14SAPS  C218 1804   2.020  -0.470   7.580 -0.5722 -0.0018 -0.3467
   14SAPS  H18R 1805   2.129  -0.449   7.580 -0.9228  2.0343 -0.8081
   14SAPS  H18S 1806   1.998  -0.573   7.616 -2.1644  1.0857  2.0749
   14SAPS  C219 1807   1.948  -0.390   7.691 -0.2946  0.2336 -0.9364
   14SAPS  H19R 1808   1.842  -0.418   7.710 -1.4899  4.7463  0.0017
   14SAPS  H19S 1809   1.932  -0.284   7.664 -2.0898  0.4948  0.8992
   14SAPS  C220 1810   2.012  -0.389   7.834  0.4520  0.3707 -0.1898
   14SAPS  H20R 1811   1.956  -0.347   7.920  1.6590  0.7083  0.4535
   14SAPS  H20S 1812   2.111  -0.337   7.830  1.9740 -2.3401 -0.5596
   14SAPS  H20T 1813   2.025  -0.497   7.859 -0.7282  0.1735 -0.3713
   14SAPS   C33 1814   1.699   0.269   6.376  0.6897  0.1552 -0.0321
   14SAPS   H3X 1815   1.647   0.174   6.349 -0.0112  0.3542  0.5702
   14SAPS   H3Y 1816   1.693   0.341   6.292 -0.2047 -0.4945 -0.5443
   14SAPS   C34 1817   1.618   0.339   6.481  0.5101  0.1391 -0.5883
   14SAPS   H4X 1818   1.516   0.348   6.439  0.9186  1.1603 -1.3957
   14SAPS   H4Y 1819   1.662   0.439   6.499 -2.3761  1.1975  1.1241
   14SAPS   C35 1820   1.608   0.254   6.612  0.0466 -0.6468  0.4869
   14SAPS   H5X 1821   1.701   0.274   6.669 -0.7120 -0.1503  1.5897
   14SAPS   H5Y 1822   1.595   0.144   6.600 -1.9920 -0.1937 -2.5729
   14SAPS   C36 1823   1.492   0.305   6.694  0.1750  0.3744  0.2958
   14SAPS   H6X 1824   1.396   0.294   6.639  0.3678 -0.9451  0.2015
   14SAPS   H6Y 1825   1.506   0.414   6.711  1.1520  0.3976 -0.5803
   14SAPS   C37 1826   1.478   0.240   6.837  0.3945 -0.6578  0.8914
   14SAPS   H7X 1827   1.578   0.218   6.881  0.7908  0.2794  0.5051
   14SAPS   H7Y 1828   1.434   0.143   6.807  1.1276 -0.4640 -0.9416
   14SAPS   C38 1829   1.376   0.315   6.929  0.8808  0.4020 -0.9060
   14SAPS   H8X 1830   1.278   0.305   6.877  1.0540 -0.5643 -1.0628
   14SAPS   H8Y 1831   1.408   0.421   6.925  1.1820  0.4722  1.5970
   14SAPS   C39 1832   1.379   0.259   7.069  0.1381 -0.4394  0.0478
   14SAPS   H9X 1833   1.485   0.252   7.103  0.9446  0.1914 -2.1071
   14SAPS   H9Y 1834   1.349   0.152   7.073  1.0396 -0.6840  0.6597
   14SAPS  C310 1835   1.292   0.333   7.167 -0.8380 -0.0700  0.3080
   14SAPS  H10X 1836   1.182   0.321   7.155 -0.8323  0.4586 -0.3993
   14SAPS  H10Y 1837   1.308   0.442   7.154  0.3565 -0.4730 -2.4764
   14SAPS  C311 1838   1.345   0.308   7.308 -0.1070 -0.3471  0.4751
   14SAPS  H11X 1839   1.444   0.353   7.326 -0.7167  2.0417 -1.5679
   14SAPS  H11Y 1840   1.336   0.198   7.325  0.5127 -0.2180  1.6995
   14SAPS  C312 1841   1.244   0.365   7.417  0.6731  0.0861  0.0107
   14SAPS  H12X 1842   1.141   0.324   7.403 -0.6295  3.2217 -0.5016
   14SAPS  H12Y 1843   1.243   0.475   7.400  0.0457 -0.3252 -3.3237
   14SAPS  C313 1844   1.293   0.326   7.556  0.0518  0.0964  0.0438
   14SAPS  H13X 1845   1.398   0.359   7.561  0.1853 -0.5072  2.5355
   14SAPS  H13Y 1846   1.290   0.216   7.573 -1.4341  0.2026  0.6721
   14SAPS  C314 1847   1.200   0.389   7.666  0.0865 -0.0792 -0.5491
   14SAPS  H14X 1848   1.096   0.368   7.632 -0.2150  1.0132 -0.3205
   14SAPS  H14Y 1849   1.218   0.498   7.663  1.3512 -0.1404  1.8832
   14SAPS  C315 1850   1.223   0.334   7.808 -0.0666 -0.2597 -0.0166
   14SAPS  H15X 1851   1.326   0.368   7.831  0.7455 -2.1874 -0.6245
   14SAPS  H15Y 1852   1.218   0.223   7.807 -0.1611 -0.2546 -0.9368
   14SAPS  C316 1853   1.122   0.390   7.904 -0.1544  0.4586 -0.2140
   14SAPS  H16X 1854   1.025   0.397   7.850 -0.6630  0.7564  0.7148
   14SAPS  H16Y 1855   1.162   0.489   7.933  0.6815 -0.5916  2.5750
   14SAPS  C317 1856   1.097   0.308   8.033 -0.1821 -0.9326 -0.5980
   14SAPS  H17X 1857   1.191   0.305   8.092  0.9584  1.3343 -2.1614
   14SAPS  H17Y 1858   1.056   0.208   8.007 -1.5138  0.1109 -2.8045
   14SAPS  C318 1859   0.991   0.382   8.119  0.3365  0.6590  0.4279
   14SAPS  H18X 1860   0.895   0.391   8.065 -0.6265 -1.1430  1.7442
   14SAPS  H18Y 1861   1.037   0.481   8.141 -0.3895  1.1227 -0.1143
   14SAPS  H18Z 1862   0.976   0.314   8.205 -0.7057  0.7340  0.3161
   15SAPS     N 1863   5.696   5.504   6.088 -0.7273 -0.0336  0.1648
   15SAPS   HN1 1864   5.654   5.413   6.117 -0.9801 -0.1092 -0.4397
   15SAPS   HN2 1865   5.758   5.539   6.164 -1.8129  0.1620  0.9791
   15SAPS   HN3 1866   5.620   5.573   6.075 -0.7391  0.1474  1.0822
   15SAPS   C12 1867   5.771   5.492   5.959  0.9402 -0.2977  0.6752
   15SAPS  H12A 1868   5.832   5.404   5.976  1.2721  0.1097  1.6222
   15SAPS   C13 1869   5.685   5.469   5.831 -0.2388 -0.5014  0.5702
   15SAPS  O13A 1870   5.560   5.469   5.841  0.5355 -0.2170  0.7427
   15SAPS  O13B 1871   5.738   5.437   5.718 -0.2216  0.2219 -0.8323
   15SAPS   C11 1872   5.865   5.614   5.937 -0.0121  0.6602  0.5221
   15SAPS  H11A 1873   5.791   5.698   5.937 -1.3970 -0.4712 -1.4421
   15SAPS  H11B 1874   5.908   5.599   5.836 -1.8797 -0.9441 -0.1122
   15SAPS     P 1875   5.969   5.685   6.185 -0.1256  0.7259 -0.1290
   15SAPS   O13 1876   6.102   5.675   6.258  0.1216  0.1101  0.0252
   15SAPS   O14 1877   5.911   5.818   6.177 -0.1593  0.8819 -0.0059
   15SAPS   O12 1878   5.968   5.620   6.040 -0.3355  0.2920 -0.0820
   15SAPS   O11 1879   5.872   5.590   6.272 -0.3395  0.3032  0.1690
   15SAPS    C1 1880   5.821   5.619   6.405  0.2124 -0.9056  0.3380
   15SAPS    HA 1881   5.846   5.724   6.431 -1.4357 -0.4883  0.3858
   15SAPS    HB 1882   5.710   5.612   6.404  0.1600 -0.4941 -1.9445
   15SAPS    C2 1883   5.871   5.520   6.511  0.6796 -0.2370 -0.6346
   15SAPS    HS 1884   5.845   5.564   6.610  1.8515 -1.0822  0.0704
   15SAPS   O21 1885   6.014   5.505   6.515 -0.4765  0.4145 -0.7549
   15SAPS   C21 1886   6.082   5.616   6.567  0.6074  0.7992  0.6707
   15SAPS   O22 1887   6.028   5.713   6.611  0.4419  0.0626  0.3854
   15SAPS   C22 1888   6.229   5.591   6.589 -0.1389  0.1401 -0.0762
   15SAPS   H2R 1889   6.254   5.545   6.491 -3.5632 -3.4354  0.4864
   15SAPS   H2S 1890   6.275   5.691   6.603 -2.5354  1.4241 -0.7777
   15SAPS    C3 1891   5.798   5.377   6.497 -0.7287  0.0597 -0.1027
   15SAPS    HX 1892   5.802   5.347   6.390 -1.9158  1.3747 -0.5440
   15SAPS    HY 1893   5.688   5.387   6.501 -0.7684  0.6297 -1.6791
   15SAPS   O31 1894   5.856   5.283   6.588 -0.7028  0.9660  0.4689
   15SAPS   C31 1895   5.812   5.276   6.704 -0.3609 -0.3353 -0.7378
   15SAPS   O32 1896   5.718   5.341   6.750  0.3089  0.4536  0.0498
   15SAPS   C32 1897   5.889   5.173   6.791  0.0786 -0.4169  0.7440
   15SAPS   H2X 1898   5.995   5.204   6.792  0.2777 -1.0827  2.1556
   15SAPS   H2Y 1899   5.887   5.071   6.747  0.1777 -0.3561  0.5983
   15SAPS   C23 1900   6.270   5.482   6.696 -0.3991  0.7065 -0.4919
   15SAPS   H3R 1901   6.374   5.452   6.675 -0.3040  0.1612  0.7123
   15SAPS   H3S 1902   6.191   5.406   6.680  0.3321 -0.9571  2.8508
   15SAPS   C24 1903   6.256   5.551   6.838 -0.2314 -0.1213  0.1213
   15SAPS   H4R 1904   6.228   5.471   6.910 -0.3273  0.4084  0.6896
   15SAPS   H4S 1905   6.159   5.606   6.838 -1.0782 -1.5718  0.4506
   15SAPS   C25 1906   6.369   5.631   6.894 -0.2318 -0.1343  0.1786
   15SAPS   H5R 1907   6.456   5.657   6.832  1.1919 -0.4470  1.9619
   15SAPS   C26 1908   6.381   5.665   7.021 -0.2062  0.4250  0.4989
   15SAPS   H6R 1909   6.454   5.743   7.045  0.5610 -0.1177 -0.0379
   15SAPS   C27 1910   6.295   5.630   7.142  0.1266  0.1783 -0.0491
   15SAPS   H7R 1911   6.337   5.559   7.215 -1.0465  0.4445  0.9186
   15SAPS   H7S 1912   6.196   5.588   7.113 -0.7542  0.0154  2.9354
   15SAPS   C28 1913   6.261   5.749   7.228 -0.0255  0.4598 -0.0527
   15SAPS   H8R 1914   6.329   5.835   7.228  0.2549  0.2836  1.7726
   15SAPS   C29 1915   6.160   5.755   7.321  0.1547  0.0863 -0.1561
   15SAPS   H9R 1916   6.137   5.849   7.374  1.9284 -0.5792  1.9264
   15SAPS  C210 1917   6.057   5.644   7.349  0.2413 -0.2649  0.2508
   15SAPS  H10R 1918   6.101   5.544   7.372 -0.2230 -0.6388 -0.4617
   15SAPS  H10S 1919   6.010   5.618   7.252 -0.9265 -1.3965  1.0770
   15SAPS  C211 1920   5.949   5.673   7.452  0.2317 -0.2109  0.9039
   15SAPS  H11R 1921   5.848   5.673   7.406  0.4145 -4.9653 -0.0446
   15SAPS  C212 1922   5.962   5.685   7.580 -0.0171 -0.5450  0.3638
   15SAPS  H12R 1923   5.871   5.699   7.639 -0.7005  0.3023 -0.8330
   15SAPS  C213 1924   6.095   5.679   7.650 -0.6879  0.2910 -0.4831
   15SAPS  H13R 1925   6.179   5.695   7.579 -0.5284 -0.0897 -0.3783
   15SAPS  H13S 1926   6.108   5.574   7.684 -1.5866 -0.0349 -1.0991
   15SAPS  C214 1927   6.107   5.776   7.761 -0.1758 -0.7549  0.1532
   15SAPS  H14R 1928   6.055   5.873   7.755 -1.7892 -1.5159  1.0803
   15SAPS  C215 1929   6.192   5.770   7.863 -0.0249  0.3047 -0.1243
   15SAPS  H15R 1930   6.194   5.853   7.936 -0.1703  0.0930  0.1216
   15SAPS  C216 1931   6.284   5.653   7.895 -0.0780  0.0220 -1.2910
   15SAPS  H16R 1932   6.383   5.693   7.925 -0.8021  0.2568  0.9560
   15SAPS  H16S 1933   6.287   5.583   7.808  1.5659 -0.4187 -0.9227
   15SAPS  C217 1934   6.232   5.567   8.019 -0.4289 -0.6498  0.4882
   15SAPS  H17R 1935   6.308   5.496   8.056  0.0294  0.4198  1.6965
   15SAPS  H17S 1936   6.141   5.515   7.980 -0.1981  0.4049 -1.5886
   15SAPS  C218 1937   6.197   5.657   8.141  0.4951  0.1268  0.0391
   15SAPS  H18R 1938   6.110   5.724   8.124 -0.7853 -1.5034 -0.0299
   15SAPS  H18S 1939   6.281   5.720   8.177 -1.1133  0.9968  2.5135
   15SAPS  C219 1940   6.159   5.573   8.266  0.2546  0.2628 -0.9515
   15SAPS  H19R 1941   6.245   5.507   8.290 -0.6453 -0.5987 -0.0090
   15SAPS  H19S 1942   6.069   5.513   8.243 -1.0792  1.6815  0.2947
   15SAPS  C220 1943   6.118   5.648   8.394  0.4533  0.1525  0.4226
   15SAPS  H20R 1944   6.108   5.583   8.484  1.9234 -0.3472  0.2668
   15SAPS  H20S 1945   6.024   5.701   8.368  0.1340 -1.0793 -1.0847
   15SAPS  H20T 1946   6.194   5.725   8.422  1.0090  0.3609 -1.5555
   15SAPS   C33 1947   5.856   5.180   6.940  0.1610  0.3250 -0.0744
   15SAPS   H3X 1948   5.918   5.100   6.986  0.8444  1.0356  0.2634
   15SAPS   H3Y 1949   5.747   5.170   6.954  0.1992 -1.3251 -0.6494
   15SAPS   C34 1950   5.897   5.317   6.994 -0.1255  0.4613  0.0675
   15SAPS   H4X 1951   5.841   5.404   6.956  1.7950  1.7727  0.0855
   15SAPS   H4Y 1952   6.007   5.306   6.980 -0.3931 -0.7947 -1.1996
   15SAPS   C35 1953   5.870   5.329   7.140 -0.6259 -0.0222 -0.8943
   15SAPS   H5X 1954   5.766   5.318   7.175  0.0095 -0.3453  1.0048
   15SAPS   H5Y 1955   5.914   5.428   7.169 -0.0233 -0.7606  0.8150
   15SAPS   C36 1956   5.933   5.215   7.221 -0.4886  0.3898 -0.0607
   15SAPS   H6X 1957   6.026   5.176   7.175  0.2636  0.3545  1.4276
   15SAPS   H6Y 1958   5.866   5.126   7.226  0.4290 -0.2590  1.3791
   15SAPS   C37 1959   5.953   5.248   7.374  0.8774 -0.8043 -0.4196
   15SAPS   H7X 1960   6.038   5.319   7.383  0.0615  0.2784 -1.0007
   15SAPS   H7Y 1961   5.979   5.153   7.425 -2.0674 -1.2669  0.4338
   15SAPS   C38 1962   5.825   5.318   7.437  0.0743 -0.3418 -0.1695
   15SAPS   H8X 1963   5.739   5.248   7.431  1.4300 -2.1595  0.5125
   15SAPS   H8Y 1964   5.821   5.413   7.380 -0.1816 -1.1594 -1.5506
   15SAPS   C39 1965   5.861   5.357   7.579  0.3152  0.2887  0.4450
   15SAPS   H9X 1966   5.944   5.431   7.572 -0.1622  0.8986  1.0177
   15SAPS   H9Y 1967   5.906   5.266   7.624  1.5185 -0.3614 -1.9126
   15SAPS  C310 1968   5.739   5.410   7.657 -0.2724 -0.4184 -0.3107
   15SAPS  H10X 1969   5.666   5.327   7.662  2.2256 -2.7151  0.9850
   15SAPS  H10Y 1970   5.706   5.510   7.622 -0.7314  0.8632  3.2816
   15SAPS  C311 1971   5.778   5.436   7.800 -0.1652 -0.8291 -0.0599
   15SAPS  H11X 1972   5.833   5.532   7.808  0.9362 -1.6000  2.6204
   15SAPS  H11Y 1973   5.847   5.356   7.833 -1.3623 -1.8826 -0.0665
   15SAPS  C312 1974   5.658   5.445   7.888 -0.3507  0.1705 -0.2475
   15SAPS  H12X 1975   5.593   5.361   7.857 -0.3081 -0.7360  1.9923
   15SAPS  H12Y 1976   5.599   5.539   7.882  3.0426  2.3954 -3.1296
   15SAPS  C313 1977   5.688   5.424   8.035 -0.1527 -0.6860 -0.3885
   15SAPS  H13X 1978   5.768   5.494   8.069  0.7884 -1.5353 -0.8094
   15SAPS  H13Y 1979   5.745   5.329   8.036  2.5615  0.7611  2.6394
   15SAPS  C314 1980   5.559   5.415   8.108 -0.4445 -0.3811  0.2682
   15SAPS  H14X 1981   5.500   5.331   8.066  0.5584 -1.0672  0.1965
   15SAPS  H14Y 1982   5.509   5.513   8.099 -0.5432 -0.5378 -0.9975
   15SAPS  C315 1983   5.574   5.387   8.257  0.1546 -0.0612  0.2748
   15SAPS  H15X 1984   5.655   5.451   8.297  1.3148  0.1869 -2.2860
   15SAPS  H15Y 1985   5.602   5.280   8.273 -0.7004  0.0186  2.6303
   15SAPS  C316 1986   5.446   5.431   8.335 -0.6766  0.9312 -0.1185
   15SAPS  H16X 1987   5.362   5.361   8.314 -0.5088  0.8256 -0.4417
   15SAPS  H16Y 1988   5.419   5.534   8.304 -3.3446  0.5922  0.7553
   15SAPS  C317 1989   5.468   5.428   8.485  0.5307 -0.2817  0.0450
   15SAPS  H17X 1990   5.556   5.493   8.507  0.5566 -0.7047  1.2306
   15SAPS  H17Y 1991   5.490   5.323   8.514 -0.5261 -1.1593 -2.1343
   15SAPS  C318 1992   5.350   5.470   8.574  0.1059  0.3817  0.0907
   15SAPS  H18X 1993   5.294   5.551   8.524 -0.0309  1.2972  1.6698
   15SAPS  H18Y 1994   5.387   5.489   8.677  0.3362  1.3015 -0.1538
   15SAPS  H18Z 1995   5.282   5.384   8.595 -0.7666  1.5940  2.6130
   16SAPS     N 1996   2.987   6.674   6.296 -0.5525  0.0638  0.3758
   16SAPS   HN1 1997   2.901   6.684   6.239 -1.4663 -0.9966  1.5198
   16SAPS   HN2 1998   3.004   6.571   6.300  2.8331  0.1346 -4.2316
   16SAPS   HN3 1999   2.972   6.714   6.391  2.7440  1.1794  0.5640
   16SAPS   C12 2000   3.097   6.732   6.216  0.1254 -0.0308  0.6860
   16SAPS  H12A 2001   3.099   6.668   6.129 -1.0997  0.6547  0.1210
   16SAPS   C13 2002   3.074   6.877   6.170  0.6434  0.3505 -0.1803
   16SAPS  O13A 2003   2.974   6.935   6.209  0.2879  0.4918 -0.1414
   16SAPS  O13B 2004   3.140   6.927   6.075  0.6017  0.3784 -0.5694
   16SAPS   C11 2005   3.230   6.725   6.286  0.0933 -0.1606 -0.4641
   16SAPS  H11A 2006   3.238   6.806   6.362 -1.2007  0.9179 -1.4156
   16SAPS  H11B 2007   3.314   6.738   6.215 -0.5809  0.6839 -1.1324
   16SAPS     P 2008   3.281   6.568   6.508  0.0165 -0.0395  0.2640
   16SAPS   O13 2009   3.215   6.668   6.594  0.4189  0.1870  0.5512
   16SAPS   O14 2010   3.266   6.427   6.541 -0.1183  0.0860  0.2862
   16SAPS   O12 2011   3.249   6.596   6.353 -0.1718 -0.4377 -0.0440
   16SAPS   O11 2012   3.431   6.607   6.516  0.1817  0.8004 -0.3097
   16SAPS    C1 2013   3.526   6.505   6.559 -0.3373 -0.5259  0.0601
   16SAPS    HA 2014   3.522   6.423   6.484  0.3527  0.3794 -0.9995
   16SAPS    HB 2015   3.627   6.548   6.542 -1.2766  2.0439  0.5496
   16SAPS    C2 2016   3.517   6.470   6.709  0.6813 -0.0845  0.4210
   16SAPS    HS 2017   3.415   6.433   6.732 -0.0322  0.6839 -1.2802
   16SAPS   O21 2018   3.554   6.588   6.783 -0.4842  0.5381  0.6267
   16SAPS   C21 2019   3.482   6.600   6.891 -0.2554  0.5366  0.3576
   16SAPS   O22 2020   3.385   6.531   6.916 -0.5099  0.1863 -0.7376
   16SAPS   C22 2021   3.538   6.711   6.975  0.2639  0.1062 -0.6179
   16SAPS   H2R 2022   3.624   6.679   7.037  1.2941 -0.4854 -2.2858
   16SAPS   H2S 2023   3.575   6.791   6.907 -0.6053 -0.4499 -1.7774
   16SAPS    C3 2024   3.625   6.359   6.745  0.0156  0.5434  0.8118
   16SAPS    HX 2025   3.725   6.400   6.717  0.2531 -1.3818 -1.4702
   16SAPS    HY 2026   3.596   6.270   6.684 -0.6464  0.7474  0.8258
   16SAPS   O31 2027   3.615   6.321   6.883 -0.1893 -0.1230 -0.4237
   16SAPS   C31 2028   3.729   6.273   6.940 -0.5267 -0.5216  0.7808
   16SAPS   O32 2029   3.828   6.248   6.873  0.0510  0.3212  0.3093
   16SAPS   C32 2030   3.715   6.278   7.096  0.1185 -0.1066  0.6558
   16SAPS   H2X 2031   3.798   6.339   7.138  0.8514  1.4503 -2.6896
   16SAPS   H2Y 2032   3.736   6.172   7.122 -0.6898 -0.2072  0.9098
   16SAPS   C23 2033   3.422   6.776   7.059  0.3784  0.2934  0.8175
   16SAPS   H3R 2034   3.363   6.700   7.115  0.8575 -0.9657 -0.3405
   16SAPS   H3S 2035   3.354   6.818   6.982  3.0660  0.5911 -1.5493
   16SAPS   C24 2036   3.475   6.894   7.146 -0.2814  0.0735 -0.7161
   16SAPS   H4R 2037   3.397   6.957   7.193  0.8608  1.5616 -0.7513
   16SAPS   H4S 2038   3.534   6.961   7.081 -1.9634 -0.9143 -3.4206
   16SAPS   C25 2039   3.563   6.852   7.257 -0.1815  0.3556 -0.1924
   16SAPS   H5R 2040   3.647   6.791   7.221 -0.6829  0.0423 -0.8528
   16SAPS   C26 2041   3.547   6.889   7.385 -0.3199 -0.3262  0.1741
   16SAPS   H6R 2042   3.626   6.851   7.452  0.3965  1.2402  0.2646
   16SAPS   C27 2043   3.444   6.973   7.455 -0.3864 -0.3344  0.3090
   16SAPS   H7R 2044   3.347   6.919   7.456  0.5644 -2.1375  2.3405
   16SAPS   H7S 2045   3.424   7.069   7.401  0.0819  1.3018  2.9033
   16SAPS   C28 2046   3.486   7.006   7.599 -0.7371 -0.3346  0.8972
   16SAPS   H8R 2047   3.583   7.057   7.609 -1.0914  0.4046  0.5808
   16SAPS   C29 2048   3.408   7.000   7.705  0.0113  0.0075  0.5443
   16SAPS   H9R 2049   3.435   7.028   7.808 -2.1891  3.1187  0.4063
   16SAPS  C210 2050   3.263   6.962   7.714  0.0108 -0.5036  0.0667
   16SAPS  H10R 2051   3.204   6.970   7.620  0.8890  0.5661 -0.4152
   16SAPS  H10S 2052   3.211   7.041   7.772 -1.4681 -1.1164 -0.3856
   16SAPS  C211 2053   3.232   6.825   7.767 -0.0087 -0.3629 -0.1024
   16SAPS  H11R 2054   3.230   6.747   7.689  1.9586  0.3025 -0.8784
   16SAPS  C212 2055   3.221   6.796   7.899 -0.0681  0.2281  0.0474
   16SAPS  H12R 2056   3.200   6.690   7.922 -1.9406  0.2829 -1.1846
   16SAPS  C213 2057   3.231   6.888   8.021  0.2207 -0.0874  0.4973
   16SAPS  H13R 2058   3.187   6.983   7.983 -0.4053 -0.4358  0.3346
   16SAPS  H13S 2059   3.333   6.910   8.059 -0.1100  1.4994  0.5739
   16SAPS  C214 2060   3.139   6.858   8.131 -0.4138 -0.2822  0.4820
   16SAPS  H14R 2061   3.036   6.886   8.106  0.0396 -0.5321 -1.8974
   16SAPS  C215 2062   3.162   6.820   8.258  0.8282  0.0862  0.5028
   16SAPS  H15R 2063   3.074   6.799   8.320 -0.6982 -0.8424 -1.8784
   16SAPS  C216 2064   3.294   6.799   8.319  0.2431 -0.5923 -0.1599
   16SAPS  H16R 2065   3.287   6.832   8.425  0.8843  0.0232 -0.2958
   16SAPS  H16S 2066   3.369   6.859   8.263 -1.0069 -0.9223 -2.3097
   16SAPS  C217 2067   3.344   6.660   8.293  0.3114  0.8118 -0.8054
   16SAPS  H17R 2068   3.355   6.627   8.188  2.3217 -2.8449  0.3737
   16SAPS  H17S 2069   3.280   6.575   8.324 -0.3556  1.3580 -0.6640
   16SAPS  C218 2070   3.477   6.646   8.369 -1.2656  0.8106  0.0331
   16SAPS  H18R 2071   3.482   6.692   8.470  1.8956  1.5397 -0.3476
   16SAPS  H18S 2072   3.561   6.695   8.316 -2.2063  1.5163 -0.8374
   16SAPS  C219 2073   3.526   6.500   8.409 -0.0125 -0.3508  0.7557
   16SAPS  H19R 2074   3.628   6.524   8.448 -0.2073  0.8666  0.5418
   16SAPS  H19S 2075   3.533   6.443   8.314 -1.2043  2.1200 -0.8884
   16SAPS  C220 2076   3.450   6.427   8.510  0.4891 -0.0119 -1.1904
   16SAPS  H20R 2077   3.489   6.323   8.523  0.4238 -0.0635 -1.3965
   16SAPS  H20S 2078   3.344   6.407   8.482 -0.5626  0.6207  1.9701
   16SAPS  H20T 2079   3.438   6.477   8.608 -1.3836 -2.2345 -0.1866
   16SAPS   C33 2080   3.583   6.341   7.153 -0.4461  0.6056  0.0036
   16SAPS   H3X 2081   3.501   6.279   7.110 -0.1392 -1.7017  2.4892
   16SAPS   H3Y 2082   3.561   6.448   7.131 -0.4302  0.6828  0.3640
   16SAPS   C34 2083   3.589   6.336   7.302 -0.2979  1.0682 -0.2410
   16SAPS   H4X 2084   3.696   6.326   7.328  0.0577 -0.5147 -2.0523
   16SAPS   H4Y 2085   3.554   6.233   7.327  1.1123  0.6787  0.2259
   16SAPS   C35 2086   3.504   6.434   7.380  0.2751 -0.2244 -0.6509
   16SAPS   H5X 2087   3.397   6.406   7.369  0.1932 -0.4118  0.5234
   16SAPS   H5Y 2088   3.519   6.538   7.342  0.2414 -0.1292 -0.4011
   16SAPS   C36 2089   3.548   6.443   7.524  0.4842 -0.2951 -0.5539
   16SAPS   H6X 2090   3.644   6.500   7.522  0.4156 -0.1238  0.5548
   16SAPS   H6Y 2091   3.567   6.346   7.575  1.2637  0.7169  1.1608
   16SAPS   C37 2092   3.458   6.523   7.610  0.3410  0.1760  0.6945
   16SAPS   H7X 2093   3.355   6.485   7.592  0.0251 -0.3284  3.2133
   16SAPS   H7Y 2094   3.466   6.631   7.586  3.7186 -0.2755 -0.9333
   16SAPS   C38 2095   3.491   6.506   7.751  0.1377 -0.4754 -0.2888
   16SAPS   H8X 2096   3.455   6.600   7.798  1.6667  0.4881 -0.9436
   16SAPS   H8Y 2097   3.597   6.515   7.785 -0.5450 -0.1147  1.9203
   16SAPS   C39 2098   3.439   6.379   7.812  0.7000  0.2293 -0.3126
   16SAPS   H9X 2099   3.491   6.291   7.769  2.2206  0.9787 -0.0787
   16SAPS   H9Y 2100   3.332   6.353   7.797  0.9461  0.0970 -2.0712
   16SAPS  C310 2101   3.468   6.358   7.962  0.4121 -0.4093 -0.0331
   16SAPS  H10X 2102   3.393   6.417   8.018  0.3730 -1.4812  1.1014
   16SAPS  H10Y 2103   3.566   6.399   7.993 -0.6415  2.3970 -0.1577
   16SAPS  C311 2104   3.441   6.216   8.009  0.0992 -0.4228  0.3775
   16SAPS  H11X 2105   3.521   6.145   7.980  1.7704  0.2850  2.8419
   16SAPS  H11Y 2106   3.349   6.170   7.968  0.1654 -2.9529  2.7307
   16SAPS  C312 2107   3.425   6.209   8.159  0.6544 -0.7984  0.3677
   16SAPS  H12X 2108   3.345   6.281   8.187  0.1820 -0.9254 -0.5927
   16SAPS  H12Y 2109   3.520   6.247   8.201 -0.2364 -0.4512  2.1743
   16SAPS  C313 2110   3.387   6.064   8.222  0.3254  0.0294 -1.0829
   16SAPS  H13X 2111   3.451   5.996   8.162  2.1081  0.0238  0.7551
   16SAPS  H13Y 2112   3.280   6.057   8.190  0.5011 -1.6032 -1.3953
   16SAPS  C314 2113   3.408   6.061   8.375 -0.1030 -0.5434 -0.0849
   16SAPS  H14X 2114   3.345   6.144   8.411  2.2833  0.7315  1.4427
   16SAPS  H14Y 2115   3.516   6.083   8.392  0.3947 -2.4077 -0.5554
   16SAPS  C315 2116   3.371   5.924   8.431  0.2015 -0.4446  0.7700
   16SAPS  H15X 2117   3.385   5.928   8.541 -1.4581  1.9485  0.9602
   16SAPS  H15Y 2118   3.429   5.838   8.389  1.2607  0.7732 -0.3706
   16SAPS  C316 2119   3.223   5.893   8.403  0.6916 -0.1237  0.1845
   16SAPS  H16X 2120   3.205   5.881   8.294  3.5365 -0.9453 -0.2819
   16SAPS  H16Y 2121   3.171   5.989   8.423 -0.1472 -0.9497  2.2577
   16SAPS  C317 2122   3.174   5.783   8.498  0.3664  0.0819  0.0072
   16SAPS  H17X 2123   3.206   5.810   8.601  1.9811  0.4396 -0.5614
   16SAPS  H17Y 2124   3.213   5.681   8.482 -0.4915 -0.0625 -1.3345
   16SAPS  C318 2125   3.020   5.769   8.512 -0.7604 -0.6665  0.6972
   16SAPS  H18X 2126   2.981   5.858   8.566  0.6727 -1.2481  2.7999
   16SAPS  H18Y 2127   2.994   5.681   8.573  2.1468 -3.0141 -1.1896
   16SAPS  H18Z 2128   2.975   5.759   8.410  0.7926  0.6910 -0.1715
   17SAPC     N 2129   1.100   0.710  10.631  0.5937 -0.4383 -0.0244
   17SAPC   C12 2130   0.998   0.645  10.534  0.6884 -0.0392 -0.2421
   17SAPC  H12A 2131   0.943   0.722  10.481  0.2644 -0.0913  0.1181
   17SAPC  H12B 2132   0.918   0.600  10.591 -0.4129  0.6941 -1.1720
   17SAPC   C13 2133   1.182   0.808  10.548  0.0083  0.3638 -0.6587
   17SAPC  H13A 2134   1.115   0.872  10.493  0.7080  0.6517 -1.1883
   17SAPC  H13B 2135   1.247   0.861  10.615 -0.0888  0.1930 -0.4236
   17SAPC  H13C 2136   1.248   0.753  10.482 -0.4178  1.1055 -1.7355
   17SAPC   C14 2137   1.026   0.790  10.737  0.8027 -0.1538  0.8290
   17SAPC  H14A 2138   1.091   0.853  10.796  0.7371  0.0896  0.6470
   17SAPC  H14B 2139   0.947   0.855  10.700  1.1348  0.1860  0.7153
   17SAPC  H14C 2140   0.975   0.724  10.805 -1.0579 -1.4308 -1.6253
   17SAPC   C15 2141   1.185   0.611  10.705 -0.5797 -0.1973 -0.0072
   17SAPC  H15A 2142   1.128   0.565  10.784  2.3339 -4.5097 -0.0936
   17SAPC  H15B 2143   1.216   0.529  10.643  0.9989  0.0723  0.3911
   17SAPC  H15C 2144   1.270   0.662  10.748  0.1841 -0.9904 -0.5689
   17SAPC   C11 2145   1.045   0.549  10.430 -0.0793  0.0866 -0.6367
   17SAPC  H11A 2146   1.137   0.591  10.385 -0.4538  2.7428  0.8873
   17SAPC  H11B 2147   0.966   0.548  10.352 -0.4319 -0.0028 -0.2856
   17SAPC     P 2148   1.175   0.318  10.430  0.3730 -0.5918  0.0874
   17SAPC   O13 2149   1.302   0.382  10.470  0.8200  0.2076  0.4434
   17SAPC   O14 2150   1.149   0.184  10.489  0.2425 -0.5306  0.4446
   17SAPC   O12 2151   1.059   0.414  10.476  0.3351  0.1066 -0.1650
   17SAPC   O11 2152   1.176   0.316  10.280  0.2051 -0.5245  0.7443
   17SAPC    C1 2153   1.073   0.291  10.179 -0.8045 -1.3088 -0.1176
   17SAPC    HA 2154   0.980   0.257  10.231 -2.1022  1.2864 -0.6039
   17SAPC    HB 2155   1.049   0.384  10.125 -2.1752 -0.0894  2.4145
   17SAPC    C2 2156   1.111   0.191  10.080  0.0555 -0.0887 -0.5502
   17SAPC    HS 2157   1.046   0.190   9.991  0.5782 -1.0020 -0.9397
   17SAPC   O21 2158   1.112   0.059  10.146  0.2898 -0.0214 -0.1621
   17SAPC   C21 2159   1.068  -0.038  10.064 -0.8883  0.0880 -0.1700
   17SAPC   O22 2160   1.045  -0.018   9.945 -1.0153 -0.3333 -0.0728
   17SAPC   C22 2161   1.055  -0.173  10.136  1.0950  0.6690 -0.2105
   17SAPC   H2R 2162   1.152  -0.205  10.179  0.8774 -1.6777 -1.2756
   17SAPC   H2S 2163   0.991  -0.162  10.226 -0.0359  1.0323 -1.0273
   17SAPC    C3 2164   1.253   0.216  10.023 -0.6622  0.6222 -0.0864
   17SAPC    HX 2165   1.318   0.191  10.110 -0.9560 -0.1698 -0.0851
   17SAPC    HY 2166   1.272   0.323  10.004 -0.8605  0.5077 -0.9334
   17SAPC   O31 2167   1.282   0.140   9.912 -0.4889  0.4820  0.1206
   17SAPC   C31 2168   1.258   0.193   9.795 -0.0776  0.3172 -0.2851
   17SAPC   O32 2169   1.207   0.302   9.776 -0.0630 -0.3091  0.8322
   17SAPC   C32 2170   1.332   0.116   9.692  0.5568  0.0672  0.3206
   17SAPC   H2X 2171   1.436   0.104   9.727  0.5116 -0.5469  0.2610
   17SAPC   H2Y 2172   1.350   0.181   9.604 -0.3551 -1.8933 -1.4310
   17SAPC   C23 2173   0.984  -0.282  10.047  0.4036 -0.3149  0.0762
   17SAPC   H3R 2174   0.885  -0.255  10.005  0.2841  1.8009  1.5534
   17SAPC   H3S 2175   0.957  -0.372  10.107 -3.6754  2.2216  2.5040
   17SAPC   C24 2176   1.077  -0.339   9.933  0.3594 -0.1108  0.6176
   17SAPC   H4R 2177   1.170  -0.367   9.988  1.0236 -1.1708 -0.9381
   17SAPC   H4S 2178   1.109  -0.255   9.868 -0.3839 -0.2569  0.0454
   17SAPC   C25 2179   1.011  -0.444   9.846  0.1880 -0.3417  0.7738
   17SAPC   H5R 2180   0.952  -0.524   9.894 -0.8650  0.3486  0.6655
   17SAPC   C26 2181   1.003  -0.444   9.709 -0.2068 -0.3097  0.4704
   17SAPC   H6R 2182   0.962  -0.534   9.660 -0.1775 -1.1695  1.9471
   17SAPC   C27 2183   1.063  -0.340   9.614 -0.0301  0.1949 -0.3727
   17SAPC   H7R 2184   1.128  -0.383   9.534 -1.4852  0.0301 -1.5013
   17SAPC   H7S 2185   1.130  -0.266   9.663 -0.3252  0.2677 -0.0810
   17SAPC   C28 2186   0.942  -0.276   9.556 -0.6503 -0.5324 -0.4239
   17SAPC   H8R 2187   0.891  -0.204   9.621 -0.1249 -0.1137 -0.4697
   17SAPC   C29 2188   0.908  -0.281   9.421 -0.0845 -0.0035  0.1984
   17SAPC   H9R 2189   0.820  -0.225   9.388 -0.4435  0.7199  2.2243
   17SAPC  C210 2190   0.979  -0.354   9.309  0.1842 -0.7866  0.4961
   17SAPC  H10R 2191   1.051  -0.428   9.349  1.9849  0.6418  0.0145
   17SAPC  H10S 2192   1.037  -0.275   9.257  0.2661 -1.3296 -0.2462
   17SAPC  C211 2193   0.892  -0.429   9.202 -0.2070  0.4190 -0.8988
   17SAPC  H11R 2194   0.811  -0.496   9.234 -0.8726  0.8707 -1.5798
   17SAPC  C212 2195   0.908  -0.421   9.069 -0.7747  0.1029  0.2424
   17SAPC  H12R 2196   0.836  -0.485   9.016  0.4759 -2.4038  1.4070
   17SAPC  C213 2197   0.998  -0.340   8.987  0.0453 -0.4011  0.7890
   17SAPC  H13R 2198   1.027  -0.411   8.907 -0.4629  0.1103  0.1393
   17SAPC  H13S 2199   1.090  -0.314   9.044  1.1564  1.4355 -1.6121
   17SAPC  C214 2200   0.935  -0.214   8.936  0.3297 -0.6796  0.3248
   17SAPC  H14R 2201   0.931  -0.140   9.017  0.6935 -1.0982  0.7299
   17SAPC  C215 2202   0.886  -0.186   8.811  0.1062 -0.4224  0.5703
   17SAPC  H15R 2203   0.847  -0.086   8.787  1.2863 -0.0834 -0.0276
   17SAPC  C216 2204   0.889  -0.277   8.687 -0.3602 -0.1604 -0.1027
   17SAPC  H16R 2205   0.930  -0.377   8.712  1.3992  0.9325  1.6975
   17SAPC  H16S 2206   0.955  -0.234   8.608  2.3782  0.9682  2.6111
   17SAPC  C217 2207   0.748  -0.293   8.631  0.0943 -0.0565  0.2198
   17SAPC  H17R 2208   0.752  -0.362   8.543 -1.8945  3.2431 -2.7443
   17SAPC  H17S 2209   0.707  -0.196   8.598  0.4603  0.5473  1.4728
   17SAPC  C218 2210   0.647  -0.348   8.741 -0.2803  0.2125 -0.0876
   17SAPC  H18R 2211   0.630  -0.265   8.813 -1.5107  0.5718 -0.7716
   17SAPC  H18S 2212   0.706  -0.422   8.800 -2.6781 -0.9454  1.0187
   17SAPC  C219 2213   0.521  -0.407   8.690 -0.7176 -0.0720  0.1158
   17SAPC  H19R 2214   0.439  -0.390   8.763  1.3022  0.4422  2.3915
   17SAPC  H19S 2215   0.545  -0.516   8.694 -0.7157 -0.0458  1.2543
   17SAPC  C220 2216   0.464  -0.358   8.552 -1.0633  0.3106  0.6675
   17SAPC  H20R 2217   0.512  -0.410   8.466 -2.3351 -0.3984  0.3645
   17SAPC  H20S 2218   0.477  -0.248   8.543  0.9064  0.0007 -0.7698
   17SAPC  H20T 2219   0.360  -0.396   8.560 -1.1279  0.5774  1.0994
   17SAPC   C33 2220   1.267  -0.021   9.642 -0.4023 -0.2338 -0.1904
   17SAPC   H3X 2221   1.157  -0.005   9.641 -0.2120  1.1667 -0.7475
   17SAPC   H3Y 2222   1.293  -0.091   9.725 -0.6153  2.8916  2.7109
   17SAPC   C34 2223   1.319  -0.066   9.501 -0.8100 -0.1574  0.1159
   17SAPC   H4X 2224   1.247  -0.145   9.472 -0.1993 -0.7802  0.2773
   17SAPC   H4Y 2225   1.421  -0.109   9.503 -0.2891  0.7958 -2.3129
   17SAPC   C35 2226   1.319   0.033   9.382  0.5037  0.0024  0.8693
   17SAPC   H5X 2227   1.398   0.108   9.407 -0.0767  1.6584 -1.8706
   17SAPC   H5Y 2228   1.216   0.073   9.374 -0.0588 -1.5012  0.2104
   17SAPC   C36 2229   1.343  -0.043   9.247 -0.2677  0.5654  0.3852
   17SAPC   H6X 2230   1.318  -0.151   9.251 -1.3294  0.8236  1.3445
   17SAPC   H6Y 2231   1.454  -0.048   9.235 -0.2646  2.2406 -0.5992
   17SAPC   C37 2232   1.294   0.033   9.116  0.3603  0.2062 -0.5513
   17SAPC   H7X 2233   1.336   0.135   9.114  0.3885  0.2792  1.4210
   17SAPC   H7Y 2234   1.183   0.038   9.126  0.0990  0.0861 -2.8927
   17SAPC   C38 2235   1.324  -0.050   8.987 -0.4852 -0.1815  0.9382
   17SAPC   H8X 2236   1.286  -0.153   9.000  1.7474 -1.1595  0.1336
   17SAPC   H8Y 2237   1.434  -0.051   8.970 -0.5091  1.5744  0.4414
   17SAPC   C39 2238   1.256   0.003   8.860 -0.2772  0.4162 -0.4511
   17SAPC   H9X 2239   1.307   0.092   8.817  5.3417 -2.2046 -0.2509
   17SAPC   H9Y 2240   1.149   0.022   8.881 -0.0841 -1.9673  3.9412
   17SAPC  C310 2241   1.248  -0.109   8.754  0.3645 -0.4989 -0.2355
   17SAPC  H10X 2242   1.157  -0.090   8.693  1.4578  1.8922 -1.2434
   17SAPC  H10Y 2243   1.223  -0.198   8.815 -0.4471  0.8456  1.4774
   17SAPC  C311 2244   1.380  -0.130   8.673  0.7450 -0.6245  0.1726
   17SAPC  H11X 2245   1.470  -0.098   8.730  2.9662  0.4002 -3.5643
   17SAPC  H11Y 2246   1.368  -0.057   8.590 -2.5183 -1.2446 -0.0497
   17SAPC  C312 2247   1.397  -0.269   8.611 -0.1290 -0.0138  0.6239
   17SAPC  H12X 2248   1.307  -0.291   8.550  0.0363  0.2758  0.2739
   17SAPC  H12Y 2249   1.408  -0.335   8.700 -0.5370 -2.2443 -0.9103
   17SAPC  C313 2250   1.519  -0.275   8.515 -0.2577 -0.0551  1.0091
   17SAPC  H13X 2251   1.606  -0.263   8.584 -0.7018 -1.1360  1.7950
   17SAPC  H13Y 2252   1.513  -0.188   8.446 -1.3075  0.4442  1.7051
   17SAPC  C314 2253   1.535  -0.412   8.440  0.7675  0.3858  0.4894
   17SAPC  H14X 2254   1.455  -0.425   8.364  1.2595 -3.1028  0.4332
   17SAPC  H14Y 2255   1.527  -0.496   8.511  0.0801  0.1448  0.1299
   17SAPC  C315 2256   1.667  -0.421   8.359 -0.2568 -0.8173 -0.3808
   17SAPC  H15X 2257   1.702  -0.517   8.316 -1.5235 -1.4379 -0.0432
   17SAPC  H15Y 2258   1.749  -0.395   8.430 -0.2876  1.4845 -1.0962
   17SAPC  C316 2259   1.662  -0.314   8.246  0.0821 -0.3949  0.3731
   17SAPC  H16X 2260   1.624  -0.214   8.274 -0.2611  0.3455 -2.3711
   17SAPC  H16Y 2261   1.601  -0.339   8.156  2.3680  0.4856 -1.5426
   17SAPC  C317 2262   1.798  -0.295   8.171  0.3647  0.0783  0.0369
   17SAPC  H17X 2263   1.780  -0.240   8.076 -3.0927 -0.1096  0.4255
   17SAPC  H17Y 2264   1.832  -0.396   8.140 -1.7838 -0.6475 -0.1408
   17SAPC  C318 2265   1.896  -0.228   8.266 -0.6162 -0.2648 -0.1395
   17SAPC  H18X 2266   1.941  -0.306   8.332 -0.7577 -1.6136 -1.5854
   17SAPC  H18Y 2267   1.984  -0.178   8.222 -1.2683 -0.4117 -1.6562
   17SAPC  H18Z 2268   1.849  -0.142   8.319 -2.3205 -1.0893 -0.2383
   18SAPC     N 2269   1.348   5.529  10.800 -1.3033 -0.3101 -0.1279
   18SAPC   C12 2270   1.319   5.674  10.825  0.2131 -0.4196 -0.1267
   18SAPC  H12A 2271   1.300   5.698  10.928 -2.1359  1.4665 -0.8794
   18SAPC  H12B 2272   1.225   5.693  10.775  0.2357  1.6817  0.5235
   18SAPC   C13 2273   1.267   5.444  10.891 -0.0782  0.1782  0.0884
   18SAPC  H13A 2274   1.161   5.459  10.879  0.0948  2.1300  0.6554
   18SAPC  H13B 2275   1.283   5.337  10.887  0.4213  0.2175  0.7997
   18SAPC  H13C 2276   1.278   5.467  10.996 -2.7841 -0.2875  0.5388
   18SAPC   C14 2277   1.330   5.486  10.655 -1.2699  0.0004  0.0251
   18SAPC  H14A 2278   1.367   5.561  10.587  2.0809 -0.1751  1.4543
   18SAPC  H14B 2279   1.382   5.392  10.639 -1.8078 -0.5497  1.3616
   18SAPC  H14C 2280   1.226   5.461  10.641 -1.0967 -1.2759  0.8070
   18SAPC   C15 2281   1.493   5.480  10.844 -0.1389 -0.2488  0.1689
   18SAPC  H15A 2282   1.505   5.374  10.831  0.9935 -0.2948  1.3685
   18SAPC  H15B 2283   1.569   5.530  10.787 -2.1829  1.7472 -0.9617
   18SAPC  H15C 2284   1.522   5.507  10.945  0.8416 -1.4390  0.2246
   18SAPC   C11 2285   1.428   5.770  10.772 -0.1742 -0.0335  0.4229
   18SAPC  H11A 2286   1.522   5.746  10.825 -1.1050 -1.2324  1.5892
   18SAPC  H11B 2287   1.408   5.876  10.799  2.5614  0.3308  1.2543
   18SAPC     P 2288   1.420   5.875  10.534  0.4605  0.0058 -0.1296
   18SAPC   O13 2289   1.287   5.926  10.587  0.9881 -0.2927 -0.5727
   18SAPC   O14 2290   1.540   5.957  10.530 -0.7274  0.3487  0.2458
   18SAPC   O12 2291   1.454   5.752  10.630  0.0506  0.0943  0.2907
   18SAPC   O11 2292   1.396   5.804  10.401  0.7032  0.4803  0.0317
   18SAPC    C1 2293   1.505   5.728  10.343  0.2629  0.0034 -0.0914
   18SAPC    HA 2294   1.578   5.696  10.420 -1.2569 -1.8784  0.6471
   18SAPC    HB 2295   1.459   5.639  10.296 -1.1168  0.2214  0.7813
   18SAPC    C2 2296   1.566   5.817  10.232 -0.0295 -0.1951  0.1832
   18SAPC    HS 2297   1.611   5.906  10.281 -0.5136  1.8116 -2.7058
   18SAPC   O21 2298   1.461   5.860  10.141 -0.3151 -0.5266 -0.1134
   18SAPC   C21 2299   1.436   5.992  10.140 -0.1849  0.0060 -0.3210
   18SAPC   O22 2300   1.503   6.076  10.199  0.1703 -0.0164  0.2232
   18SAPC   C22 2301   1.302   6.016  10.057 -0.6827 -0.5877  0.4656
   18SAPC   H2R 2302   1.282   5.919  10.005  0.6560 -0.7943  0.3178
   18SAPC   H2S 2303   1.224   6.037  10.134  0.6786  1.4217  1.3721
   18SAPC    C3 2304   1.681   5.752  10.154  0.7360 -1.0531  0.0257
   18SAPC    HX 2305   1.649   5.667  10.089  1.2295 -0.9258 -0.3827
   18SAPC    HY 2306   1.751   5.699  10.221  0.3057  0.7114  1.9578
   18SAPC   O31 2307   1.741   5.849  10.061  0.2039  0.2625 -0.3466
   18SAPC   C31 2308   1.817   5.943  10.115 -0.3570 -0.9977  0.4202
   18SAPC   O32 2309   1.845   5.948  10.234 -0.0439  0.8394 -0.2346
   18SAPC   C32 2310   1.853   6.064  10.018 -0.6425 -0.0304 -0.2523
   18SAPC   H2X 2311   1.964   6.063  10.006 -0.6387 -1.6347 -0.3311
   18SAPC   H2Y 2312   1.814   6.157  10.066 -0.3038  0.4702 -0.9220
   18SAPC   C23 2313   1.307   6.122   9.943  0.0665  0.3049  0.5309
   18SAPC   H3R 2314   1.341   6.216   9.991 -0.2813  0.5163  0.3667
   18SAPC   H3S 2315   1.203   6.147   9.911 -0.2332  0.4325  1.5718
   18SAPC   C24 2316   1.387   6.070   9.822 -0.1680  0.8590  0.0653
   18SAPC   H4R 2317   1.336   5.991   9.762 -0.2197  0.2131  0.9334
   18SAPC   H4S 2318   1.484   6.033   9.861 -1.5602 -0.0681  2.9729
   18SAPC   C25 2319   1.418   6.201   9.748 -0.4447 -0.2785  0.0259
   18SAPC   H5R 2320   1.466   6.271   9.818 -0.9932 -1.0045  1.1609
   18SAPC   C26 2321   1.401   6.226   9.618  0.0323  0.0067 -0.2273
   18SAPC   H6R 2322   1.409   6.324   9.568 -1.6703  0.0217 -0.5174
   18SAPC   C27 2323   1.328   6.129   9.529  0.3442 -0.0266 -0.2279
   18SAPC   H7R 2324   1.256   6.064   9.585  0.4670  0.0751  0.0494
   18SAPC   H7S 2325   1.401   6.055   9.490 -0.6438 -1.4902  0.5622
   18SAPC   C28 2326   1.248   6.196   9.420  0.4970 -0.0411  0.3013
   18SAPC   H8R 2327   1.161   6.253   9.458  1.5116  0.5217  1.9052
   18SAPC   C29 2328   1.280   6.209   9.292 -0.3620 -1.0616 -0.1232
   18SAPC   H9R 2329   1.233   6.290   9.235  2.2774 -0.1969 -1.2210
   18SAPC  C210 2330   1.411   6.162   9.228  0.5199 -0.1324  0.1554
   18SAPC  H10R 2331   1.480   6.103   9.293 -1.3342 -1.0418  1.3723
   18SAPC  H10S 2332   1.468   6.252   9.196 -1.6873  0.9762 -0.8346
   18SAPC  C211 2333   1.358   6.078   9.115 -0.6752 -0.2828  0.3506
   18SAPC  H11R 2334   1.312   5.984   9.151  1.0481 -2.3935 -2.5005
   18SAPC  C212 2335   1.365   6.093   8.977 -0.0687  0.7941  0.3707
   18SAPC  H12R 2336   1.315   6.016   8.917  1.7621 -0.4462  0.3543
   18SAPC  C213 2337   1.432   6.206   8.905  0.2818  0.0356  0.1860
   18SAPC  H13R 2338   1.517   6.178   8.839  0.5185  1.1779 -0.0146
   18SAPC  H13S 2339   1.469   6.281   8.978 -0.0284  1.1978 -0.8241
   18SAPC  C214 2340   1.327   6.273   8.815 -0.4216 -0.5021 -0.4564
   18SAPC  H14R 2341   1.270   6.349   8.871 -1.0516 -1.6728  0.5636
   18SAPC  C215 2342   1.292   6.233   8.692 -0.0234  0.1488  0.4189
   18SAPC  H15R 2343   1.227   6.295   8.629 -0.6844 -0.4462  0.5001
   18SAPC  C216 2344   1.355   6.111   8.626  0.3028  0.4486  0.2482
   18SAPC  H16R 2345   1.445   6.067   8.673  1.2281 -0.7994 -2.4509
   18SAPC  H16S 2346   1.395   6.152   8.531 -0.6351  2.9369  0.8458
   18SAPC  C217 2347   1.267   5.991   8.589  0.0314  0.6177  0.4114
   18SAPC  H17R 2348   1.183   6.025   8.526  0.4342  0.9838  0.0641
   18SAPC  H17S 2349   1.224   5.945   8.680  2.0769 -0.8437  0.7227
   18SAPC  C218 2350   1.339   5.879   8.510 -1.0655  0.0265 -0.2301
   18SAPC  H18R 2351   1.363   5.932   8.416  1.2353  0.5196  0.5799
   18SAPC  H18S 2352   1.255   5.808   8.490 -1.5717 -0.4913  3.1580
   18SAPC  C219 2353   1.458   5.817   8.578 -0.3724  0.2013  0.2250
   18SAPC  H19R 2354   1.544   5.887   8.585 -1.6036  1.5689  3.1344
   18SAPC  H19S 2355   1.494   5.732   8.514  0.1435 -1.8919  3.1014
   18SAPC  C220 2356   1.429   5.762   8.717  0.2695 -0.3835 -0.1269
   18SAPC  H20R 2357   1.508   5.703   8.770 -1.0476 -3.6139 -1.5079
   18SAPC  H20S 2358   1.341   5.694   8.710  1.5168 -2.2201  1.0281
   18SAPC  H20T 2359   1.411   5.851   8.781 -1.5483 -0.2563 -0.7803
   18SAPC   C33 2360   1.780   6.058   9.884  0.1584  0.3339 -0.3081
   18SAPC   H3X 2361   1.785   6.160   9.843 -0.0097  1.4740  2.2977
   18SAPC   H3Y 2362   1.676   6.027   9.908  0.2259  0.8177  0.6631
   18SAPC   C34 2363   1.847   5.956   9.792 -0.0686  1.0722  0.1290
   18SAPC   H4X 2364   1.851   5.856   9.842 -2.2723  0.2144 -1.2949
   18SAPC   H4Y 2365   1.951   5.993   9.779 -0.2380  0.8080 -2.3755
   18SAPC   C35 2366   1.796   5.918   9.652  1.0747  0.9002 -0.3673
   18SAPC   H5X 2367   1.689   5.888   9.654  1.7492 -1.7272  0.2006
   18SAPC   H5Y 2368   1.863   5.846   9.600 -0.4952  0.0729 -1.3167
   18SAPC   C36 2369   1.810   6.043   9.560  0.5351  0.1739 -0.4859
   18SAPC   H6X 2370   1.918   6.037   9.536  0.8707 -0.1759  1.0126
   18SAPC   H6Y 2371   1.769   6.131   9.615 -4.8759 -2.5380  0.5792
   18SAPC   C37 2372   1.736   6.033   9.425 -0.0841  0.1840 -0.7147
   18SAPC   H7X 2373   1.736   6.129   9.370 -2.8584  0.1542 -0.9208
   18SAPC   H7Y 2374   1.627   6.017   9.439 -0.6607  1.8859 -2.8340
   18SAPC   C38 2375   1.800   5.930   9.336 -0.7254 -0.5467 -0.9297
   18SAPC   H8X 2376   1.779   5.829   9.375 -0.4313 -0.8299 -1.4979
   18SAPC   H8Y 2377   1.908   5.953   9.339 -0.6006 -1.0956 -1.1553
   18SAPC   C39 2378   1.749   5.952   9.197  0.6980  0.2035 -0.2428
   18SAPC   H9X 2379   1.643   5.985   9.205  1.1899  1.3666  2.4406
   18SAPC   H9Y 2380   1.744   5.854   9.146 -4.6017  0.0300  0.0445
   18SAPC  C310 2381   1.826   6.046   9.115 -0.1524 -0.1837 -0.1539
   18SAPC  H10X 2382   1.935   6.027   9.107 -0.3816 -0.9458 -1.8343
   18SAPC  H10Y 2383   1.822   6.144   9.167  2.7563 -1.6482  3.2331
   18SAPC  C311 2384   1.776   6.050   8.970  0.6253 -0.2973 -0.0839
   18SAPC  H11X 2385   1.665   6.062   8.967  0.4703 -1.5870 -0.8004
   18SAPC  H11Y 2386   1.805   5.953   8.923 -0.9598 -0.7210 -0.2712
   18SAPC  C312 2387   1.832   6.170   8.886 -0.1815 -0.4484  0.2670
   18SAPC  H12X 2388   1.942   6.165   8.897  0.0460 -0.4083 -1.5954
   18SAPC  H12Y 2389   1.791   6.265   8.926 -1.6786 -0.5659 -0.8855
   18SAPC  C313 2390   1.794   6.173   8.732  0.3759 -0.9815  0.5232
   18SAPC  H13X 2391   1.839   6.268   8.695 -3.7574  0.7211 -0.7453
   18SAPC  H13Y 2392   1.686   6.174   8.706  0.7693 -1.4609 -1.3198
   18SAPC  C314 2393   1.865   6.061   8.653 -0.7014  0.1937  0.4056
   18SAPC  H14X 2394   1.821   5.962   8.676 -1.0565 -0.4200 -2.6190
   18SAPC  H14Y 2395   1.974   6.059   8.676 -0.7048  1.5775  0.6294
   18SAPC  C315 2396   1.841   6.083   8.499 -0.3090 -0.0820 -0.0972
   18SAPC  H15X 2397   1.850   6.193   8.488 -1.1638  0.0805  0.6713
   18SAPC  H15Y 2398   1.740   6.043   8.476  0.1954 -1.1435 -0.4930
   18SAPC  C316 2399   1.946   6.004   8.423  0.0046 -0.2101  0.1784
   18SAPC  H16X 2400   1.897   5.982   8.325  0.0658 -1.6395  0.4568
   18SAPC  H16Y 2401   1.976   5.915   8.481 -1.4819 -1.0747 -0.3468
   18SAPC  C317 2402   2.079   6.081   8.397 -0.4362  1.3623 -0.0921
   18SAPC  H17X 2403   2.117   6.131   8.488 -1.2525  0.7279  0.6095
   18SAPC  H17Y 2404   2.051   6.161   8.325 -2.4006  1.1052  0.3233
   18SAPC  C318 2405   2.180   5.985   8.331  0.1901  0.9455  0.1600
   18SAPC  H18X 2406   2.277   6.038   8.320  0.1824  0.9960  0.3447
   18SAPC  H18Y 2407   2.154   5.942   8.231 -1.2982  0.1421  0.8665
   18SAPC  H18Z 2408   2.199   5.895   8.393  0.8816 -0.3709 -1.8407
   19SAPC     N 2409   0.083   1.003  10.458 -0.1631  0.0467  0.5941
   19SAPC   C12 2410  -0.009   1.125  10.449  0.9387 -0.1614  0.1703
   19SAPC  H12A 2411  -0.008   1.186  10.539 -0.3413  2.3541 -1.4103
   19SAPC  H12B 2412  -0.108   1.088  10.428  1.4650 -1.7531  0.4085
   19SAPC   C13 2413   0.061   0.940  10.592  0.1717  0.0823  0.5899
   19SAPC  H13A 2414   0.137   0.866  10.613  1.2410  0.9406 -0.0675
   19SAPC  H13B 2415   0.068   1.015  10.669 -0.1411  0.4382  0.2778
   19SAPC  H13C 2416  -0.039   0.900  10.591 -0.1486  0.8518 -0.5397
   19SAPC   C14 2417   0.056   0.906  10.347  0.7497  0.4770 -0.3513
   19SAPC  H14A 2418  -0.050   0.901  10.330  0.6029  4.2335 -1.3900
   19SAPC  H14B 2419   0.103   0.921  10.251  1.6689  0.7674  0.1325
   19SAPC  H14C 2420   0.100   0.811  10.374  2.0831  0.9300 -0.8453
   19SAPC   C15 2421   0.222   1.055  10.448 -0.4301 -0.3456 -0.3851
   19SAPC  H15A 2422   0.251   1.100  10.354  2.8414 -0.5228  0.4261
   19SAPC  H15B 2423   0.227   1.136  10.520 -0.2819  0.4401 -1.2584
   19SAPC  H15C 2424   0.290   0.974  10.471 -1.6535 -1.0558  0.8963
   19SAPC   C11 2425   0.019   1.224  10.331  0.0605 -0.3823  0.2288
   19SAPC  H11A 2426  -0.056   1.306  10.332 -1.0198 -1.3411  1.7060
   19SAPC  H11B 2427   0.002   1.183  10.229 -0.6121  0.3557  0.0298
   19SAPC     P 2428   0.189   1.393  10.454 -0.1284  0.1217  0.2661
   19SAPC   O13 2429   0.194   1.329  10.591  0.5346 -0.3220 -0.2083
   19SAPC   O14 2430   0.312   1.471  10.415  0.4894 -0.2513 -0.3097
   19SAPC   O12 2431   0.153   1.287  10.343  0.5258  0.2006  0.3987
   19SAPC   O11 2432   0.062   1.494  10.444 -0.1223 -0.5279 -0.5800
   19SAPC    C1 2433   0.049   1.611  10.360 -0.3257 -0.2702  0.2820
   19SAPC    HA 2434   0.020   1.698  10.423  1.1513  0.2191  0.3205
   19SAPC    HB 2435   0.148   1.645  10.323 -0.8796 -0.7372 -1.7868
   19SAPC    C2 2436  -0.063   1.609  10.247 -0.3889  0.6077 -0.0951
   19SAPC    HS 2437  -0.156   1.575  10.297  0.5934 -0.6744  0.9497
   19SAPC   O21 2438  -0.031   1.484  10.163 -0.6092 -0.2797 -0.6121
   19SAPC   C21 2439   0.072   1.488  10.082  0.1862 -0.2289 -0.5006
   19SAPC   O22 2440   0.147   1.584  10.066  0.0496 -0.0377  0.0169
   19SAPC   C22 2441   0.080   1.351  10.018 -0.1039 -0.2266 -0.3460
   19SAPC   H2R 2442   0.120   1.286  10.099 -0.3013 -2.1632 -1.7441
   19SAPC   H2S 2443  -0.018   1.305   9.994  0.4488 -1.5588 -0.1252
   19SAPC    C3 2444  -0.083   1.736  10.162 -0.5604 -0.5269 -0.2883
   19SAPC    HX 2445   0.014   1.776  10.124 -1.7819  1.2183 -1.7930
   19SAPC    HY 2446  -0.114   1.824  10.223  0.0485  0.6150 -1.5626
   19SAPC   O31 2447  -0.164   1.712  10.044 -0.0383 -0.0378  0.1957
   19SAPC   C31 2448  -0.287   1.681  10.060  0.6184 -0.5453 -0.5775
   19SAPC   O32 2449  -0.345   1.678  10.168  0.4759 -0.4897 -0.1907
   19SAPC   C32 2450  -0.352   1.643   9.926  0.3126 -0.6518  0.3999
   19SAPC   H2X 2451  -0.314   1.538   9.924  0.6508 -0.5975  2.3614
   19SAPC   H2Y 2452  -0.305   1.684   9.834  2.0790  0.9451  1.9435
   19SAPC   C23 2453   0.180   1.346   9.894  0.7751  0.3742 -0.6515
   19SAPC   H3R 2454   0.192   1.251   9.838  0.5084 -1.3381  1.9786
   19SAPC   H3S 2455   0.275   1.367   9.947 -1.0115  1.9503  2.1943
   19SAPC   C24 2456   0.157   1.455   9.788 -0.1712  0.1542  0.6140
   19SAPC   H4R 2457   0.242   1.449   9.717  0.3162 -0.0554  1.2124
   19SAPC   H4S 2458   0.162   1.558   9.830  0.5480 -0.1542  1.3081
   19SAPC   C25 2459   0.023   1.430   9.713 -0.0850  0.0652  0.2257
   19SAPC   H5R 2460   0.001   1.326   9.684 -0.0832  0.4557 -1.2462
   19SAPC   C26 2461  -0.065   1.523   9.672 -0.2708 -0.2048 -0.3281
   19SAPC   H6R 2462  -0.157   1.491   9.621 -0.0682  0.3238 -1.0327
   19SAPC   C27 2463  -0.059   1.678   9.681  0.7559 -0.2659  0.3642
   19SAPC   H7R 2464   0.048   1.707   9.696  1.0200 -2.3089  3.2620
   19SAPC   H7S 2465  -0.101   1.720   9.775  0.1239 -0.0885  0.0062
   19SAPC   C28 2466  -0.113   1.761   9.568  0.0734 -0.2164 -0.1980
   19SAPC   H8R 2467  -0.183   1.842   9.590  0.1878  0.2574 -1.5432
   19SAPC   C29 2468  -0.080   1.750   9.441  0.5868  0.1018 -0.3647
   19SAPC   H9R 2469  -0.113   1.824   9.367  1.4341  0.5117 -0.3427
   19SAPC  C210 2470   0.010   1.656   9.371 -0.1630  0.0560 -0.4486
   19SAPC  H10R 2471  -0.054   1.599   9.300 -0.3302  1.9826 -1.9171
   19SAPC  H10S 2472   0.061   1.592   9.445 -1.6304  0.5892  1.0852
   19SAPC  C211 2473   0.113   1.726   9.285  0.2973  0.3389  0.4635
   19SAPC  H11R 2474   0.166   1.805   9.340  1.2667 -0.2195  0.3623
   19SAPC  C212 2475   0.153   1.686   9.157  0.4513  0.6436  0.3801
   19SAPC  H12R 2476   0.229   1.750   9.110 -0.2414 -0.3409 -2.3261
   19SAPC  C213 2477   0.106   1.575   9.073 -0.0557  0.5691  0.3788
   19SAPC  H13R 2478   0.059   1.495   9.134  1.7415 -1.6606 -0.9674
   19SAPC  H13S 2479   0.193   1.518   9.033 -0.1749 -0.9009  2.1035
   19SAPC  C214 2480   0.035   1.622   8.950  0.1542 -0.3695 -0.7271
   19SAPC  H14R 2481  -0.064   1.663   8.978 -0.0010 -1.9624  1.2693
   19SAPC  C215 2482   0.072   1.621   8.820 -0.8046 -0.7349 -0.7739
   19SAPC  H15R 2483   0.005   1.668   8.747  0.8604  1.3215 -1.0711
   19SAPC  C216 2484   0.206   1.576   8.765 -0.0136  0.0010  0.4819
   19SAPC  H16R 2485   0.183   1.512   8.678 -0.5278  0.5236  0.2263
   19SAPC  H16S 2486   0.256   1.515   8.843  2.9160  1.6082  0.0043
   19SAPC  C217 2487   0.298   1.694   8.730  0.0954 -0.1389  0.1208
   19SAPC  H17R 2488   0.325   1.761   8.814 -2.5251  2.1918 -0.7542
   19SAPC  H17S 2489   0.235   1.759   8.666  3.2890  1.1176 -2.0435
   19SAPC  C218 2490   0.424   1.655   8.656  0.2234  0.4461 -0.0962
   19SAPC  H18R 2491   0.405   1.579   8.578  2.1527 -2.0466  1.6692
   19SAPC  H18S 2492   0.489   1.604   8.731 -0.7423 -1.9030 -0.7532
   19SAPC  C219 2493   0.488   1.778   8.584  0.0576 -0.2565 -0.8011
   19SAPC  H19R 2494   0.475   1.858   8.660 -2.3661 -1.8853  0.6285
   19SAPC  H19S 2495   0.446   1.806   8.486  1.8018  0.5142 -1.3686
   19SAPC  C220 2496   0.638   1.755   8.559 -0.0943 -0.6037  0.7787
   19SAPC  H20R 2497   0.691   1.851   8.546 -1.8871  0.0363 -3.2827
   19SAPC  H20S 2498   0.643   1.694   8.466  0.1156  0.9108 -0.2255
   19SAPC  H20T 2499   0.694   1.704   8.640 -0.8217 -2.1628  0.3498
   19SAPC   C33 2500  -0.506   1.641   9.914  0.1316 -1.1036 -0.1549
   19SAPC   H3X 2501  -0.556   1.716   9.979  1.6420  0.7012 -0.9842
   19SAPC   H3Y 2502  -0.542   1.540   9.944 -1.3742 -0.4652  0.2869
   19SAPC   C34 2503  -0.558   1.690   9.776  0.1022 -0.3837 -0.8222
   19SAPC   H4X 2504  -0.535   1.796   9.753 -0.7546  0.0327  0.1800
   19SAPC   H4Y 2505  -0.668   1.675   9.772  0.0777 -1.5677  1.9903
   19SAPC   C35 2506  -0.499   1.612   9.654 -0.3236 -0.3128  0.2900
   19SAPC   H5X 2507  -0.521   1.504   9.654 -1.9247 -0.0071  0.1252
   19SAPC   H5Y 2508  -0.390   1.636   9.647 -0.7312  1.6509  0.0296
   19SAPC   C36 2509  -0.554   1.643   9.516 -0.4105 -0.7742 -1.1063
   19SAPC   H6X 2510  -0.516   1.746   9.498 -1.8357 -0.1278 -0.5927
   19SAPC   H6Y 2511  -0.665   1.645   9.511 -0.4372  0.4903 -0.2601
   19SAPC   C37 2512  -0.497   1.555   9.407 -0.2601  0.5717  0.5069
   19SAPC   H7X 2513  -0.502   1.450   9.443 -1.2824  1.9298  4.8371
   19SAPC   H7Y 2514  -0.395   1.591   9.382  0.5151 -2.6885 -1.6446
   19SAPC   C38 2515  -0.564   1.574   9.272  0.0701 -0.0958 -0.6883
   19SAPC   H8X 2516  -0.675   1.578   9.276  0.0983  2.0448 -0.9402
   19SAPC   H8Y 2517  -0.531   1.485   9.215 -0.4154 -0.1113 -0.9537
   19SAPC   C39 2518  -0.506   1.704   9.204 -0.2868 -0.1018  0.2486
   19SAPC   H9X 2519  -0.397   1.694   9.186 -0.2417 -1.1497  1.0438
   19SAPC   H9Y 2520  -0.521   1.794   9.268  3.5624  0.3969  0.7124
   19SAPC  C310 2521  -0.575   1.735   9.069 -0.2950 -0.4535  0.0299
   19SAPC  H10X 2522  -0.546   1.656   8.996  0.4351 -0.7273  0.5993
   19SAPC  H10Y 2523  -0.533   1.827   9.025 -0.4531 -0.7041 -0.6617
   19SAPC  C311 2524  -0.728   1.751   9.061  0.0962 -0.4217  0.0197
   19SAPC  H11X 2525  -0.757   1.841   9.119  0.6345  0.3826 -0.9298
   19SAPC  H11Y 2526  -0.779   1.662   9.105  1.4811 -0.6350  1.2558
   19SAPC  C312 2527  -0.791   1.787   8.926  0.0697 -0.0563  1.0244
   19SAPC  H12X 2528  -0.760   1.707   8.855 -0.1657 -1.1771  2.1423
   19SAPC  H12Y 2529  -0.747   1.878   8.881 -0.8112  0.6498  1.5709
   19SAPC  C313 2530  -0.941   1.798   8.927 -0.1139 -0.2994  0.1665
   19SAPC  H13X 2531  -0.972   1.873   9.003 -0.1141 -0.2614  0.1290
   19SAPC  H13Y 2532  -0.979   1.701   8.965 -1.6539  1.1303  2.5988
   19SAPC  C314 2533  -0.996   1.828   8.778  0.2983 -0.1969 -0.3730
   19SAPC  H14X 2534  -1.096   1.780   8.772 -1.3711  3.0438 -0.7270
   19SAPC  H14Y 2535  -0.934   1.780   8.699  1.4454  0.3135  0.1861
   19SAPC  C315 2536  -1.025   1.982   8.748 -0.1443  0.3079 -0.3795
   19SAPC  H15X 2537  -0.927   2.022   8.779  0.6048 -0.9748 -1.0106
   19SAPC  H15Y 2538  -1.109   2.022   8.809 -0.0352  2.1445 -1.3602
   19SAPC  C316 2539  -1.054   2.009   8.601  0.7782 -0.1522  0.1554
   19SAPC  H16X 2540  -1.150   1.961   8.571 -0.0921  2.1300 -1.0078
   19SAPC  H16Y 2541  -0.978   1.962   8.536 -0.0084 -0.5044 -0.5328
   19SAPC  C317 2542  -1.076   2.153   8.565 -0.2808  0.4850  0.7110
   19SAPC  H17X 2543  -1.078   2.160   8.454  0.3033  4.6477  0.8068
   19SAPC  H17Y 2544  -0.990   2.213   8.602 -1.7532  2.3998  1.2223
   19SAPC  C318 2545  -1.213   2.209   8.591  0.0630 -0.8221 -0.3172
   19SAPC  H18X 2546  -1.286   2.135   8.552  0.3082 -1.0794 -0.2907
   19SAPC  H18Y 2547  -1.233   2.296   8.526 -1.5167 -3.0839 -3.0970
   19SAPC  H18Z 2548  -1.230   2.234   8.698 -2.1842  1.1501 -1.0594
   20SAPC     N 2549   0.458   4.580  11.137 -0.2300  0.3185 -0.2198
   20SAPC   C12 2550   0.592   4.567  11.076 -0.1900 -0.2918 -0.2982
   20SAPC  H12A 2551   0.587   4.467  11.036  0.2014 -0.9201  1.1474
   20SAPC  H12B 2552   0.677   4.578  11.142  1.5759  0.4350 -2.5791
   20SAPC   C13 2553   0.458   4.495  11.262 -0.5010 -0.2097  0.3229
   20SAPC  H13A 2554   0.488   4.393  11.240  2.1052  0.3187  1.0446
   20SAPC  H13B 2555   0.530   4.524  11.337  1.9948  0.7066 -2.2506
   20SAPC  H13C 2556   0.365   4.489  11.317  0.1271 -0.4115  1.4020
   20SAPC   C14 2557   0.416   4.717  11.164 -0.3658 -0.4278 -0.0772
   20SAPC  H14A 2558   0.317   4.718  11.208 -0.8985  0.5602 -1.2233
   20SAPC  H14B 2559   0.479   4.755  11.242 -0.2187 -3.1393  1.2260
   20SAPC  H14C 2560   0.406   4.781  11.077 -4.6504 -1.3347 -0.5125
   20SAPC   C15 2561   0.363   4.526  11.037  0.2930 -0.1000  0.5290
   20SAPC  H15A 2562   0.352   4.584  10.947 -1.0729  0.9015  1.3149
   20SAPC  H15B 2563   0.387   4.423  11.011 -0.2191  0.2941 -1.7388
   20SAPC  H15C 2564   0.270   4.523  11.091  0.7932  1.4178  1.5439
   20SAPC   C11 2565   0.630   4.675  10.976  0.1344 -0.2467  0.4798
   20SAPC  H11A 2566   0.626   4.776  11.023 -0.3065 -0.3015  0.5643
   20SAPC  H11B 2567   0.558   4.676  10.892  0.0035 -0.6940  0.5847
   20SAPC     P 2568   0.846   4.772  10.863 -0.3503  0.4341  0.0518
   20SAPC   O13 2569   0.864   4.879  10.961  0.3755 -0.6362 -0.0836
   20SAPC   O14 2570   0.968   4.710  10.797 -0.2814  0.1929 -0.7068
   20SAPC   O12 2571   0.767   4.648  10.928 -0.2359 -0.6071  0.0561
   20SAPC   O11 2572   0.751   4.822  10.748  0.1834  0.0683  0.0906
   20SAPC    C1 2573   0.770   4.936  10.667 -0.5612 -0.3945  0.7296
   20SAPC    HA 2574   0.755   5.032  10.720  1.7249  0.0391  0.6898
   20SAPC    HB 2575   0.877   4.949  10.638 -0.7678  0.5076  0.3532
   20SAPC    C2 2576   0.670   4.941  10.546 -0.1538  0.6153  0.6349
   20SAPC    HS 2577   0.665   5.044  10.506 -0.6819  0.3813  0.0779
   20SAPC   O21 2578   0.539   4.891  10.583 -0.5335  0.8897 -0.5823
   20SAPC   C21 2579   0.477   4.939  10.684 -0.6962  0.5992 -0.5083
   20SAPC   O22 2580   0.493   5.044  10.743  0.0950 -0.1073 -0.2922
   20SAPC   C22 2581   0.363   4.850  10.723  0.2845 -0.0503  0.2102
   20SAPC   H2R 2582   0.381   4.745  10.690  0.1442  0.5488 -1.9330
   20SAPC   H2S 2583   0.350   4.855  10.833  1.4705 -2.5902  0.5322
   20SAPC    C3 2584   0.717   4.836  10.440 -0.0786 -0.2550 -0.2061
   20SAPC    HX 2585   0.725   4.734  10.484 -0.6086 -0.9950 -1.7415
   20SAPC    HY 2586   0.816   4.865  10.400 -0.4758  2.6324  0.6697
   20SAPC   O31 2587   0.623   4.830  10.330 -0.2611 -1.0039  0.5153
   20SAPC   C31 2588   0.565   4.712  10.299  0.2663  0.1557  0.6814
   20SAPC   O32 2589   0.562   4.612  10.369 -0.1843  0.0974  0.3322
   20SAPC   C32 2590   0.486   4.722  10.164 -0.7664  0.3309  0.0723
   20SAPC   H2X 2591   0.441   4.823  10.157  1.7762  1.4444 -2.7726
   20SAPC   H2Y 2592   0.419   4.637  10.183  3.0664 -2.6004  1.8295
   20SAPC   C23 2593   0.235   4.888  10.640 -0.4429  0.0703  0.0761
   20SAPC   H3R 2594   0.196   4.992  10.649  0.4719  0.4800 -0.5412
   20SAPC   H3S 2595   0.148   4.829  10.677 -2.5361  0.9739 -2.9530
   20SAPC   C24 2596   0.254   4.870  10.488  0.5616 -0.3596  0.0369
   20SAPC   H4R 2597   0.308   4.779  10.454 -1.3154 -0.0870 -4.2728
   20SAPC   H4S 2598   0.323   4.952  10.460  0.8144 -0.3594  0.6341
   20SAPC   C25 2599   0.125   4.886  10.409  0.0782  0.2226  0.2594
   20SAPC   H5R 2600   0.035   4.848  10.460 -0.3220  0.9462  0.1034
   20SAPC   C26 2601   0.110   4.963  10.299 -0.5235 -0.5951 -0.6435
   20SAPC   H6R 2602   0.015   4.959  10.244 -0.6653  0.0175 -0.4493
   20SAPC   C27 2603   0.218   5.042  10.228  0.0330  0.0885 -0.2825
   20SAPC   H7R 2604   0.277   4.964  10.176 -0.3646 -0.5790  0.2447
   20SAPC   H7S 2605   0.292   5.088  10.298 -1.8087  2.8439  0.0069
   20SAPC   C28 2606   0.183   5.159  10.132  0.5583  0.0412  0.4097
   20SAPC   H8R 2607   0.134   5.245  10.180 -0.7649  0.6726 -1.9011
   20SAPC   C29 2608   0.207   5.165  10.000 -0.2414  0.0448 -0.4780
   20SAPC   H9R 2609   0.167   5.248   9.940  2.9868  0.6591 -2.0401
   20SAPC  C210 2610   0.282   5.065   9.923  0.7459 -0.5785 -0.0261
   20SAPC  H10R 2611   0.224   4.970   9.928 -1.4797  0.5858 -1.7530
   20SAPC  H10S 2612   0.383   5.044   9.964  1.9697 -0.0825 -2.5866
   20SAPC  C211 2613   0.301   5.094   9.775 -0.1535  0.2042 -0.2455
   20SAPC  H11R 2614   0.398   5.141   9.753 -0.4250  0.5023 -0.8211
   20SAPC  C212 2615   0.211   5.077   9.681  0.6720  0.4689  0.6967
   20SAPC  H12R 2616   0.248   5.102   9.581 -0.2468  1.3755  0.5617
   20SAPC  C213 2617   0.064   5.024   9.688  0.2954 -0.7642 -0.4880
   20SAPC  H13R 2618  -0.008   5.107   9.676  1.2633  0.0504 -0.8349
   20SAPC  H13S 2619   0.034   5.004   9.793 -2.5224 -1.0601 -1.2635
   20SAPC  C214 2620   0.034   4.915   9.584 -0.1919 -0.6650 -0.7412
   20SAPC  H14R 2621   0.022   4.815   9.628 -0.3260 -0.0272  0.7581
   20SAPC  C215 2622  -0.008   4.941   9.462 -0.5404  0.6441  0.4994
   20SAPC  H15R 2623  -0.032   4.858   9.394 -1.3804 -0.6235  2.2783
   20SAPC  C216 2624  -0.018   5.073   9.393 -0.0690 -1.1466  0.2537
   20SAPC  H16R 2625   0.079   5.127   9.402  0.9736 -2.8240 -0.4563
   20SAPC  H16S 2626  -0.085   5.137   9.455  1.4210  0.3756  0.3778
   20SAPC  C217 2627  -0.061   5.076   9.242 -0.1701 -0.1166 -0.1153
   20SAPC  H17R 2628  -0.158   5.024   9.233 -0.8868  1.2394 -0.4247
   20SAPC  H17S 2629   0.011   5.025   9.174  1.4695  2.3250 -0.3356
   20SAPC  C218 2630  -0.057   5.215   9.195  0.1489 -0.2333  0.3515
   20SAPC  H18R 2631   0.044   5.260   9.200 -0.2616  0.5116  3.0181
   20SAPC  H18S 2632  -0.130   5.278   9.250  0.9279 -0.4991  1.7339
   20SAPC  C219 2633  -0.105   5.227   9.049  0.5673 -0.4915  0.0367
   20SAPC  H19R 2634  -0.208   5.189   9.033 -0.5147  2.3499 -0.4634
   20SAPC  H19S 2635  -0.040   5.167   8.983  0.4164  1.4209 -1.9841
   20SAPC  C220 2636  -0.103   5.370   8.995  0.2030  0.0290 -0.3567
   20SAPC  H20R 2637  -0.173   5.445   9.039  1.6404  0.8643  0.5724
   20SAPC  H20S 2638  -0.140   5.374   8.890 -0.6170 -0.9342 -0.1171
   20SAPC  H20T 2639  -0.002   5.414   9.011  0.1099  0.3772 -0.7032
   20SAPC   C33 2640   0.587   4.712  10.041  0.0137  0.6504 -0.5931
   20SAPC   H3X 2641   0.634   4.613  10.024 -1.9959 -0.4551 -0.0349
   20SAPC   H3Y 2642   0.671   4.785  10.050  1.0203 -0.7341  2.0854
   20SAPC   C34 2643   0.517   4.745   9.907  0.7324  0.0470  0.0688
   20SAPC   H4X 2644   0.451   4.832   9.924 -0.7711 -0.8772 -0.7762
   20SAPC   H4Y 2645   0.454   4.661   9.870 -0.3374  1.2652 -0.9889
   20SAPC   C35 2646   0.617   4.776   9.797 -0.0157 -0.6820  0.8410
   20SAPC   H5X 2647   0.679   4.686   9.782  0.7164 -0.5959  2.9816
   20SAPC   H5Y 2648   0.676   4.863   9.831 -0.3676  0.2215 -0.7409
   20SAPC   C36 2649   0.541   4.807   9.668  0.0025 -0.6394  0.5205
   20SAPC   H6X 2650   0.479   4.897   9.692 -1.3078 -1.3744 -0.0374
   20SAPC   H6Y 2651   0.466   4.732   9.637  0.2384 -1.3255  1.5793
   20SAPC   C37 2652   0.632   4.839   9.548  0.2973 -0.5801  0.3793
   20SAPC   H7X 2653   0.666   4.753   9.486  0.3301  0.5926 -1.2677
   20SAPC   H7Y 2654   0.718   4.903   9.578 -2.0078  1.8174  2.2501
   20SAPC   C38 2655   0.547   4.907   9.434 -0.1082  0.0653  0.0644
   20SAPC   H8X 2656   0.620   4.933   9.355 -1.4050 -0.5357 -1.3868
   20SAPC   H8Y 2657   0.505   5.001   9.477 -1.6576 -0.0635 -1.0688
   20SAPC   C39 2658   0.438   4.819   9.368  0.6238  0.6518  0.3872
   20SAPC   H9X 2659   0.353   4.810   9.439 -0.3816 -2.1035 -0.9953
   20SAPC   H9Y 2660   0.472   4.715   9.351 -0.8710  0.2974 -0.6559
   20SAPC  C310 2661   0.384   4.892   9.244  0.6036  0.0055 -0.0163
   20SAPC  H10X 2662   0.471   4.906   9.177 -0.5400  1.7309 -1.2258
   20SAPC  H10Y 2663   0.337   4.992   9.260  3.1742  1.2525  0.2037
   20SAPC  C311 2664   0.270   4.814   9.181  0.4874 -0.1545 -0.2572
   20SAPC  H11X 2665   0.169   4.822   9.227 -0.2337 -2.5746 -1.2500
   20SAPC  H11Y 2666   0.286   4.704   9.169 -2.8831 -0.6311 -1.2194
   20SAPC  C312 2667   0.238   4.871   9.041 -0.7041  1.1354  0.4894
   20SAPC  H12X 2668   0.326   4.850   8.978 -2.4083  1.3351 -2.1196
   20SAPC  H12Y 2669   0.213   4.979   9.039 -0.8475  1.1055 -1.3738
   20SAPC  C313 2670   0.123   4.795   8.976 -0.0937  0.3514  0.2894
   20SAPC  H13X 2671   0.036   4.778   9.042 -0.1665  0.9089  0.3428
   20SAPC  H13Y 2672   0.156   4.692   8.949  0.8507  0.5543  0.6306
   20SAPC  C314 2673   0.070   4.859   8.854  0.0841 -0.1880 -0.2267
   20SAPC  H14X 2674   0.151   4.884   8.782  1.1725  1.2584  1.4157
   20SAPC  H14Y 2675   0.027   4.957   8.882 -2.9414 -1.0165 -1.5954
   20SAPC  C315 2676  -0.041   4.771   8.793 -0.5543 -0.3746 -0.3113
   20SAPC  H15X 2677  -0.132   4.787   8.854 -1.0765 -4.6579  0.3321
   20SAPC  H15Y 2678  -0.013   4.665   8.810  3.4020  0.8259  2.3030
   20SAPC  C316 2679  -0.061   4.799   8.638  0.7487  0.3136  0.8025
   20SAPC  H16X 2680  -0.159   4.751   8.615  0.4742  1.1776  0.1189
   20SAPC  H16Y 2681   0.025   4.757   8.582  0.7408  2.9290 -1.3552
   20SAPC  C317 2682  -0.082   4.938   8.585  0.1934 -0.1914  0.4607
   20SAPC  H17X 2683   0.004   5.004   8.612 -0.1181  0.0708  0.8358
   20SAPC  H17Y 2684  -0.173   4.984   8.629 -0.7950 -2.4538  0.9240
   20SAPC  C318 2685  -0.102   4.931   8.430 -0.1625  1.1591 -0.5198
   20SAPC  H18X 2686  -0.008   4.910   8.374 -0.2217  1.6707 -0.8275
   20SAPC  H18Y 2687  -0.136   5.028   8.387 -0.9746  1.0777 -0.0753
   20SAPC  H18Z 2688  -0.176   4.851   8.414 -1.3969  1.2373  3.7309
   21SAPC     N 2689   5.619   2.911  10.781  0.5211 -0.3742 -0.1455
   21SAPC   C12 2690   5.632   3.044  10.853 -0.2647 -0.0726  0.6734
   21SAPC  H12A 2691   5.734   3.078  10.859 -0.9513  2.2821 -0.0901
   21SAPC  H12B 2692   5.599   3.035  10.956  2.8580 -0.3585  1.7676
   21SAPC   C13 2693   5.480   2.896  10.721 -0.2042  0.0110  0.1922
   21SAPC  H13A 2694   5.466   2.798  10.678 -3.5601  0.1096  0.8315
   21SAPC  H13B 2695   5.403   2.902  10.796 -1.8901 -1.0710 -1.3850
   21SAPC  H13C 2696   5.446   2.963  10.644  0.3559  0.7873  0.6083
   21SAPC   C14 2697   5.721   2.908  10.673  0.1807 -0.4792  0.1115
   21SAPC  H14A 2698   5.714   2.815  10.617  2.1717  0.2492 -1.4406
   21SAPC  H14B 2699   5.721   2.991  10.604 -0.0329 -1.0694 -0.6056
   21SAPC  H14C 2700   5.819   2.915  10.717  0.5439 -0.1821 -0.7326
   21SAPC   C15 2701   5.642   2.791  10.871 -0.0593 -0.1268 -0.2033
   21SAPC  H15A 2702   5.627   2.703  10.810  0.5449  0.3225 -1.0109
   21SAPC  H15B 2703   5.747   2.794  10.897  0.3225  0.0202 -1.6682
   21SAPC  H15C 2704   5.579   2.792  10.959 -2.1571  0.7039 -1.6568
   21SAPC   C11 2705   5.584   3.170  10.773 -0.7005 -0.7477  0.0876
   21SAPC  H11A 2706   5.473   3.163  10.784 -0.5732  0.0933  2.4606
   21SAPC  H11B 2707   5.595   3.165  10.662 -1.1868 -1.0585  0.0444
   21SAPC     P 2708   5.786   3.325  10.769 -0.1616  0.3390 -0.1932
   21SAPC   O13 2709   5.840   3.442  10.844  0.1367  0.2176  0.5186
   21SAPC   O14 2710   5.863   3.197  10.780 -0.4897 -0.4119  0.5391
   21SAPC   O12 2711   5.643   3.291  10.825 -0.0042  0.3582  0.1484
   21SAPC   O11 2712   5.778   3.372  10.618  0.7734  0.3100 -0.0932
   21SAPC    C1 2713   5.710   3.491  10.583 -0.0133  0.0979  0.0815
   21SAPC    HA 2714   5.604   3.493  10.614 -0.2990 -0.7643 -0.7894
   21SAPC    HB 2715   5.762   3.580  10.625 -0.9243  0.0505  1.3962
   21SAPC    C2 2716   5.713   3.516  10.427  0.2019  0.5894  0.8763
   21SAPC    HS 2717   5.641   3.597  10.402  1.0980  1.3308  0.6603
   21SAPC   O21 2718   5.682   3.405  10.348 -0.7045 -0.2509  0.3921
   21SAPC   C21 2719   5.554   3.365  10.361 -0.0708  0.7009  0.2641
   21SAPC   O22 2720   5.470   3.418  10.431 -0.1584 -0.3922 -0.0489
   21SAPC   C22 2721   5.535   3.244  10.271 -0.6617 -1.0042 -0.9612
   21SAPC   H2R 2722   5.570   3.274  10.170  2.5575 -0.8147  0.0908
   21SAPC   H2S 2723   5.597   3.159  10.304 -1.0708 -1.3697 -1.1295
   21SAPC    C3 2724   5.843   3.571  10.378 -0.2642  0.2172  0.0908
   21SAPC    HX 2725   5.920   3.500  10.416 -0.9472 -1.0383 -0.8010
   21SAPC    HY 2726   5.876   3.664  10.430 -0.1468 -0.1293  0.6491
   21SAPC   O31 2727   5.863   3.582  10.230 -0.0168 -0.1993 -0.2433
   21SAPC   C31 2728   5.817   3.690  10.177 -0.8184 -0.2581  0.1945
   21SAPC   O32 2729   5.750   3.777  10.231 -0.7596  0.1377 -0.0770
   21SAPC   C32 2730   5.841   3.696  10.019  0.4334 -0.6370 -0.1216
   21SAPC   H2X 2731   5.926   3.632   9.987  0.0885 -1.9080  1.3963
   21SAPC   H2Y 2732   5.862   3.804  10.004 -2.9701 -0.0949 -2.1335
   21SAPC   C23 2733   5.394   3.193  10.277  0.6347 -0.9184  0.2063
   21SAPC   H3R 2734   5.313   3.269  10.268  1.7312  0.0736 -1.9038
   21SAPC   H3S 2735   5.383   3.137  10.372  1.0371 -3.0692 -0.9573
   21SAPC   C24 2736   5.382   3.087  10.162  0.6310 -0.5923 -0.2528
   21SAPC   H4R 2737   5.297   3.015  10.165 -0.0592  0.2239  0.7039
   21SAPC   H4S 2738   5.473   3.029  10.187  0.6581 -0.9071 -1.0497
   21SAPC   C25 2739   5.397   3.148  10.027  0.1389  0.1999  0.3359
   21SAPC   H5R 2740   5.348   3.246  10.014 -1.3262 -0.2618  1.9086
   21SAPC   C26 2741   5.478   3.098   9.930  0.4157  0.0277  0.7713
   21SAPC   H6R 2742   5.484   3.159   9.839  0.3530  0.1142  0.8249
   21SAPC   C27 2743   5.568   2.983   9.930  1.1091  0.3831 -1.2401
   21SAPC   H7R 2744   5.614   2.972  10.030 -0.7174  0.2854 -0.3704
   21SAPC   H7S 2745   5.655   3.005   9.864  0.3330  0.3463 -2.3184
   21SAPC   C28 2746   5.491   2.856   9.891  0.2987 -0.0639  0.0870
   21SAPC   H8R 2747   5.485   2.793   9.981  1.0051  1.0261  0.9265
   21SAPC   C29 2748   5.450   2.819   9.769 -1.0317 -0.1882  0.1370
   21SAPC   H9R 2749   5.423   2.714   9.755 -0.4378 -0.3593  0.2757
   21SAPC  C210 2750   5.474   2.901   9.643 -0.0124 -0.1569  0.2277
   21SAPC  H10R 2751   5.471   3.010   9.665  1.9757 -0.2316  1.0830
   21SAPC  H10S 2752   5.396   2.881   9.567  1.3983  2.6465 -2.1689
   21SAPC  C211 2753   5.616   2.884   9.591  0.2957  0.4411  0.0507
   21SAPC  H11R 2754   5.696   2.938   9.645  0.8962  0.9924 -1.3600
   21SAPC  C212 2755   5.652   2.827   9.475 -0.3450  0.3474  0.6896
   21SAPC  H12R 2756   5.761   2.815   9.464 -0.5606 -2.1624  0.7469
   21SAPC  C213 2757   5.577   2.759   9.363 -0.2066 -0.0676  0.4174
   21SAPC  H13R 2758   5.474   2.801   9.359 -0.3003 -0.3109  0.2425
   21SAPC  H13S 2759   5.565   2.649   9.372  0.9750 -0.4282 -1.7724
   21SAPC  C214 2760   5.648   2.783   9.230  0.6134  0.9251  0.0939
   21SAPC  H14R 2761   5.746   2.734   9.224  1.0768  1.5545  1.7581
   21SAPC  C215 2762   5.604   2.852   9.127  0.4492  0.6471 -0.5592
   21SAPC  H15R 2763   5.663   2.858   9.034 -0.1846  0.3543 -0.9792
   21SAPC  C216 2764   5.465   2.922   9.133 -0.2258  0.1621  0.2594
   21SAPC  H16R 2765   5.471   3.026   9.095 -1.9630 -0.6340 -2.5072
   21SAPC  H16S 2766   5.422   2.934   9.235  0.2708  0.4084  0.4415
   21SAPC  C217 2767   5.365   2.848   9.044  0.0404 -0.0971 -0.1840
   21SAPC  H17R 2768   5.353   2.745   9.082  0.8464  0.4880  1.8173
   21SAPC  H17S 2769   5.411   2.864   8.944  1.4303  1.2528  0.6115
   21SAPC  C218 2770   5.222   2.912   9.056 -0.4328  0.4362 -0.5184
   21SAPC  H18R 2771   5.238   3.021   9.040  0.0172  0.4078 -0.2739
   21SAPC  H18S 2772   5.175   2.896   9.155  1.9919 -0.4624  0.5672
   21SAPC  C219 2773   5.135   2.860   8.948  0.5863  0.3042 -0.4091
   21SAPC  H19R 2774   5.031   2.879   8.982  0.0576 -1.8172 -0.6878
   21SAPC  H19S 2775   5.149   2.751   8.932 -0.8266  0.4400 -3.1200
   21SAPC  C220 2776   5.169   2.922   8.809  0.4550  0.0315  0.1525
   21SAPC  H20R 2777   5.258   2.874   8.764  0.0032 -2.7586  1.9709
   21SAPC  H20S 2778   5.190   3.031   8.819 -0.3173  0.1522  0.4738
   21SAPC  H20T 2779   5.080   2.908   8.744 -0.3923  3.9347  0.2198
   21SAPC   C33 2780   5.714   3.666   9.936  0.1246  0.3249 -0.6025
   21SAPC   H3X 2781   5.631   3.731   9.971  1.3578  2.3790 -1.2651
   21SAPC   H3Y 2782   5.668   3.569   9.962 -0.2024  0.7914  0.6240
   21SAPC   C34 2783   5.726   3.674   9.786 -0.0744 -0.6901  1.1162
   21SAPC   H4X 2784   5.636   3.651   9.726 -0.3791  1.5956  0.5946
   21SAPC   H4Y 2785   5.805   3.605   9.751 -0.0791  0.0673 -0.4621
   21SAPC   C35 2786   5.769   3.816   9.741  0.4487 -0.6915  0.0401
   21SAPC   H5X 2787   5.845   3.860   9.810 -0.9306 -0.0291  1.2034
   21SAPC   H5Y 2788   5.688   3.892   9.746 -0.1984 -1.3873  0.5939
   21SAPC   C36 2789   5.832   3.812   9.604 -0.0691 -0.5389 -0.0561
   21SAPC   H6X 2790   5.937   3.776   9.611  0.4266  0.5600 -1.4171
   21SAPC   H6Y 2791   5.854   3.914   9.566 -0.1821 -1.1503 -1.8921
   21SAPC   C37 2792   5.756   3.731   9.502 -0.4566  0.5792  0.2453
   21SAPC   H7X 2793   5.646   3.750   9.500 -0.1704  2.3762 -0.1440
   21SAPC   H7Y 2794   5.763   3.621   9.513  0.7919  0.7681  1.5439
   21SAPC   C38 2795   5.812   3.767   9.362  0.4345 -0.1159  0.3403
   21SAPC   H8X 2796   5.923   3.765   9.360  0.5919  2.9971 -1.7015
   21SAPC   H8Y 2797   5.777   3.870   9.338 -2.2152 -1.5984 -3.1956
   21SAPC   C39 2798   5.764   3.679   9.250  0.6392 -0.2771  0.1775
   21SAPC   H9X 2799   5.660   3.709   9.227  0.9460  1.1063  0.4843
   21SAPC   H9Y 2800   5.785   3.572   9.270 -1.1512 -0.8123 -0.6294
   21SAPC  C310 2801   5.842   3.719   9.123 -0.1900  0.0933 -0.1893
   21SAPC  H10X 2802   5.948   3.701   9.149 -0.3683  0.2112  0.6514
   21SAPC  H10Y 2803   5.817   3.827   9.110  0.5815  0.6889  2.4843
   21SAPC  C311 2804   5.799   3.644   8.998 -0.3163 -0.3055  0.1688
   21SAPC  H11X 2805   5.713   3.684   8.939 -0.1226 -0.9524 -0.5788
   21SAPC  H11Y 2806   5.777   3.540   9.031 -2.3115 -0.2136 -0.7133
   21SAPC  C312 2807   5.916   3.640   8.895 -0.0228  1.1929  0.0026
   21SAPC  H12X 2808   5.890   3.581   8.804 -1.3516  1.9852 -0.1662
   21SAPC  H12Y 2809   5.994   3.581   8.947  0.1625 -1.8216 -3.2397
   21SAPC  C313 2810   5.989   3.765   8.859 -0.2084 -0.0245 -0.1922
   21SAPC  H13X 2811   6.080   3.735   8.803 -0.3852 -2.3681  0.6601
   21SAPC  H13Y 2812   6.019   3.818   8.952 -1.7882 -0.3744  0.5471
   21SAPC  C314 2813   5.908   3.857   8.765  0.1625  0.0517 -0.3282
   21SAPC  H14X 2814   5.814   3.888   8.815  1.0166  0.3640  1.1481
   21SAPC  H14Y 2815   5.875   3.797   8.678 -2.2224  1.5237 -0.5282
   21SAPC  C315 2816   5.989   3.978   8.706 -0.4959 -0.5767 -0.2702
   21SAPC  H15X 2817   6.035   4.036   8.789 -1.6173  1.2220 -0.8319
   21SAPC  H15Y 2818   5.919   4.047   8.654  0.4472 -0.0112 -0.8145
   21SAPC  C316 2819   6.091   3.937   8.590 -0.2558  0.3445  0.4760
   21SAPC  H16X 2820   6.042   3.879   8.508  0.6004 -0.4503  0.5122
   21SAPC  H16Y 2821   6.163   3.866   8.634 -1.7872 -0.4390  1.8264
   21SAPC  C317 2822   6.157   4.061   8.529  0.6968 -0.4969  0.4061
   21SAPC  H17X 2823   6.216   4.121   8.602  1.6919 -0.0602 -0.7185
   21SAPC  H17Y 2824   6.093   4.130   8.471  1.9587  1.8786  1.6796
   21SAPC  C318 2825   6.268   4.025   8.423  0.3236  0.6260 -0.7178
   21SAPC  H18X 2826   6.255   3.934   8.361  1.4479  0.6747 -1.0357
   21SAPC  H18Y 2827   6.359   4.009   8.485 -1.2574  1.0777  1.8757
   21SAPC  H18Z 2828   6.288   4.106   8.351  1.0691 -0.5903 -1.9215
   22SAPC     N 2829   6.366   0.802  10.765  0.6492 -0.4595  0.3179
   22SAPC   C12 2830   6.463   0.780  10.653 -0.3329 -0.5626 -0.1985
   22SAPC  H12A 2831   6.418   0.702  10.592 -1.4277  0.5052 -0.8087
   22SAPC  H12B 2832   6.553   0.736  10.693  0.7673  1.5102 -0.2620
   22SAPC   C13 2833   6.445   0.867  10.878 -0.6896 -0.1145 -0.2329
   22SAPC  H13A 2834   6.535   0.811  10.897 -0.4220 -0.0626 -1.2523
   22SAPC  H13B 2835   6.479   0.960  10.833  0.5017 -1.4087 -2.1310
   22SAPC  H13C 2836   6.384   0.889  10.964 -2.2994 -0.9244 -1.1192
   22SAPC   C14 2837   6.251   0.888  10.725  0.3656 -0.0040 -0.2621
   22SAPC  H14A 2838   6.270   0.994  10.737 -0.9082  0.2320 -0.1627
   22SAPC  H14B 2839   6.232   0.859  10.623  1.7809 -4.7030  0.5501
   22SAPC  H14C 2840   6.160   0.869  10.781 -0.2164  0.3272 -1.0750
   22SAPC   C15 2841   6.321   0.661  10.807 -0.1465 -0.8925  0.5732
   22SAPC  H15A 2842   6.260   0.617  10.729  0.5758 -0.1575 -0.4350
   22SAPC  H15B 2843   6.401   0.591  10.828  0.4713 -0.0756  1.0206
   22SAPC  H15C 2844   6.253   0.671  10.890  0.4735  3.6774  0.7754
   22SAPC   C11 2845   6.494   0.905  10.560 -0.2107  0.1084 -1.1497
   22SAPC  H11A 2846   6.397   0.924  10.508 -0.9190  0.9268  0.4033
   22SAPC  H11B 2847   6.571   0.865  10.490  1.7370  2.5618 -0.5780
   22SAPC     P 2848   6.511   1.159  10.614 -0.1933 -0.3515 -0.7372
   22SAPC   O13 2849   6.379   1.198  10.672 -0.1838 -0.0576 -0.3240
   22SAPC   O14 2850   6.630   1.245  10.647  0.2167 -0.1381 -0.0759
   22SAPC   O12 2851   6.548   1.006  10.643 -0.0713 -0.1887  0.0391
   22SAPC   O11 2852   6.488   1.158  10.458  0.0982  0.2711  0.5136
   22SAPC    C1 2853   6.370   1.228  10.417  0.0214 -0.0321 -0.5878
   22SAPC    HA 2854   6.279   1.190  10.466  1.2257  1.0419  2.7554
   22SAPC    HB 2855   6.378   1.332  10.455  0.1794 -0.2245 -0.0867
   22SAPC    C2 2856   6.352   1.239  10.263  0.0478 -0.4082 -0.2043
   22SAPC    HS 2857   6.268   1.306  10.234  0.4228  1.0465  1.8798
   22SAPC   O21 2858   6.326   1.116  10.200  0.0904  0.1603  0.1663
   22SAPC   C21 2859   6.203   1.065  10.224  0.1418  0.0326  0.3008
   22SAPC   O22 2860   6.111   1.111  10.292  0.0861  0.3317 -0.3523
   22SAPC   C22 2861   6.189   0.931  10.148 -0.0031  0.1451  0.2524
   22SAPC   H2R 2862   6.269   0.868  10.191  1.6739  1.9398 -0.0758
   22SAPC   H2S 2863   6.095   0.879  10.177 -0.4953  1.7434  1.7449
   22SAPC    C3 2864   6.472   1.305  10.197 -0.3952  0.1061  0.1875
   22SAPC    HX 2865   6.562   1.248  10.228 -0.0627  1.3243  1.5892
   22SAPC    HY 2866   6.498   1.402  10.246  0.3152  0.2930 -0.5542
   22SAPC   O31 2867   6.465   1.336  10.055 -0.1050  0.2706 -0.2248
   22SAPC   C31 2868   6.509   1.229   9.978  0.0323 -0.0332  0.8353
   22SAPC   O32 2869   6.547   1.119  10.009 -0.1685  0.0833 -0.0370
   22SAPC   C32 2870   6.500   1.271   9.827 -0.4685  0.2437 -0.3029
   22SAPC   H2X 2871   6.586   1.339   9.806  0.1999 -1.1582 -2.5788
   22SAPC   H2Y 2872   6.409   1.334   9.822 -1.0712 -0.4321  1.6210
   22SAPC   C23 2873   6.198   0.934   9.990 -0.4011  0.5869  0.3529
   22SAPC   H3R 2874   6.226   0.830   9.966  0.7902  1.1988 -1.0733
   22SAPC   H3S 2875   6.281   0.996   9.949 -0.4341 -0.0776 -0.7597
   22SAPC   C24 2876   6.065   0.970   9.919 -0.2743  0.5032  0.0488
   22SAPC   H4R 2877   5.983   0.899   9.942 -1.5545  1.1763 -2.1220
   22SAPC   H4S 2878   6.079   0.955   9.810  1.9595  0.0997  0.3345
   22SAPC   C25 2879   6.019   1.110   9.953  0.1640  0.7709  0.0724
   22SAPC   H5R 2880   5.961   1.112  10.046 -0.8365  1.4683 -0.5373
   22SAPC   C26 2881   6.035   1.223   9.882 -0.1508  0.2476 -0.5897
   22SAPC   H6R 2882   5.989   1.315   9.918 -1.3224  0.0567 -1.5200
   22SAPC   C27 2883   6.101   1.228   9.750  0.0455 -0.8555 -0.4216
   22SAPC   H7R 2884   6.093   1.127   9.703 -0.9499 -1.6448  1.3556
   22SAPC   H7S 2885   6.208   1.257   9.746 -0.0306 -0.3837  0.6399
   22SAPC   C28 2886   6.035   1.327   9.661 -0.0596 -0.4826  0.4260
   22SAPC   H8R 2887   6.034   1.431   9.696 -6.1898 -0.2356  0.6751
   22SAPC   C29 2888   5.972   1.316   9.539  0.8504  0.7486 -0.0954
   22SAPC   H9R 2889   5.929   1.399   9.482  1.4572  0.6497 -0.7146
   22SAPC  C210 2890   5.967   1.182   9.467 -0.4950 -0.5908  0.1080
   22SAPC  H10R 2891   5.907   1.114   9.531 -2.1625  1.4986  0.8935
   22SAPC  H10S 2892   6.067   1.135   9.458  1.1942  2.8644 -0.9642
   22SAPC  C211 2893   5.899   1.183   9.335  0.5025 -0.7377 -0.5906
   22SAPC  H11R 2894   5.791   1.162   9.330  0.6064 -1.0623 -1.6327
   22SAPC  C212 2895   5.968   1.201   9.215 -0.6281  0.1881 -0.4267
   22SAPC  H12R 2896   5.918   1.195   9.117 -1.7324  0.0081  0.1306
   22SAPC  C213 2897   6.115   1.229   9.201  0.4751 -0.4223  0.2010
   22SAPC  H13R 2898   6.160   1.221   9.302  0.5624 -1.8617  0.0707
   22SAPC  H13S 2899   6.130   1.334   9.166  1.7643 -0.6982 -0.1422
   22SAPC  C214 2900   6.192   1.133   9.108 -0.1836  0.0562  0.1827
   22SAPC  H14R 2901   6.242   1.051   9.163 -1.6774  0.0201  1.5631
   22SAPC  C215 2902   6.199   1.146   8.978 -0.0935 -0.2951 -0.0451
   22SAPC  H15R 2903   6.271   1.081   8.925  0.1429 -0.4436  0.4491
   22SAPC  C216 2904   6.135   1.249   8.895 -0.2092 -0.2664 -0.4176
   22SAPC  H16R 2905   6.130   1.345   8.951  1.7149  0.8271 -2.0051
   22SAPC  H16S 2906   6.029   1.220   8.883 -1.2415  1.7844  2.5047
   22SAPC  C217 2907   6.205   1.275   8.773  0.6518  0.0688  0.2682
   22SAPC  H17R 2908   6.248   1.189   8.717 -1.6852 -1.2704  0.3901
   22SAPC  H17S 2909   6.292   1.344   8.784  1.5079 -1.3023  2.6662
   22SAPC  C218 2910   6.114   1.340   8.668 -0.4921  0.6320  0.2558
   22SAPC  H18R 2911   6.080   1.440   8.701 -0.5545  1.3629 -1.9119
   22SAPC  H18S 2912   6.028   1.270   8.657 -0.4228  0.7803 -1.4068
   22SAPC  C219 2913   6.188   1.357   8.540 -0.2627 -0.5820 -0.4140
   22SAPC  H19R 2914   6.238   1.265   8.503 -0.2838 -0.8264  0.1687
   22SAPC  H19S 2915   6.272   1.427   8.558 -0.3129  0.6888 -4.2432
   22SAPC  C220 2916   6.098   1.437   8.438 -0.0865 -0.3895 -0.4384
   22SAPC  H20R 2917   6.161   1.482   8.358  0.3560  0.7070  0.5025
   22SAPC  H20S 2918   6.045   1.521   8.488 -0.7674  0.9156 -3.1685
   22SAPC  H20T 2919   6.026   1.359   8.406 -0.4524 -0.8491  1.3717
   22SAPC   C33 2920   6.503   1.157   9.724 -0.0360  0.6223 -0.6000
   22SAPC   H3X 2921   6.425   1.079   9.741  0.1824  0.2615 -1.2124
   22SAPC   H3Y 2922   6.592   1.091   9.736 -1.4219 -1.2670 -0.1181
   22SAPC   C34 2923   6.501   1.200   9.578  0.0467  0.1978  0.6705
   22SAPC   H4X 2924   6.597   1.253   9.559  0.2746 -0.5067 -0.1786
   22SAPC   H4Y 2925   6.420   1.274   9.560  0.2034  0.0556 -0.6930
   22SAPC   C35 2926   6.473   1.080   9.481  0.9251  0.0679 -0.3753
   22SAPC   H5X 2927   6.372   1.057   9.520  0.7870  0.3032 -0.5904
   22SAPC   H5Y 2928   6.538   0.990   9.484 -0.6266 -1.1378 -1.1888
   22SAPC   C36 2929   6.478   1.122   9.332 -0.5909 -0.5452 -0.3461
   22SAPC   H6X 2930   6.405   1.205   9.328 -0.5949 -0.5580 -0.5453
   22SAPC   H6Y 2931   6.438   1.044   9.264 -0.3220  0.3736 -1.5950
   22SAPC   C37 2932   6.628   1.158   9.293 -0.4075 -0.7193  0.4631
   22SAPC   H7X 2933   6.691   1.075   9.331 -0.7030 -0.7315  0.9428
   22SAPC   H7Y 2934   6.657   1.247   9.353 -1.8683 -1.3625  2.2475
   22SAPC   C38 2935   6.643   1.208   9.158 -0.1979 -0.2925  1.0915
   22SAPC   H8X 2936   6.604   1.136   9.083 -1.1270 -0.0538  1.3265
   22SAPC   H8Y 2937   6.751   1.222   9.136 -0.5689  2.9171  0.7525
   22SAPC   C39 2938   6.581   1.343   9.128  0.4233 -0.0071  0.1226
   22SAPC   H9X 2939   6.644   1.421   9.176  1.9755 -0.2750 -1.4080
   22SAPC   H9Y 2940   6.478   1.355   9.169  0.3455 -0.7090  0.1626
   22SAPC  C310 2941   6.587   1.373   8.973  0.9194 -0.5523 -0.2692
   22SAPC  H10X 2942   6.533   1.291   8.922 -3.5942  2.1444 -0.3784
   22SAPC  H10Y 2943   6.691   1.394   8.942  1.7154 -0.2547  2.3368
   22SAPC  C311 2944   6.507   1.502   8.934  0.9562  0.4210 -0.0068
   22SAPC  H11X 2945   6.535   1.583   9.006  0.4144  0.3064  0.3386
   22SAPC  H11Y 2946   6.399   1.482   8.949  0.8582  0.9195 -0.0055
   22SAPC  C312 2947   6.523   1.543   8.783 -0.9982 -0.2457  0.0723
   22SAPC  H12X 2948   6.473   1.460   8.729 -0.4166 -0.2542 -0.4556
   22SAPC  H12Y 2949   6.628   1.537   8.749 -1.5281 -0.6524 -1.5447
   22SAPC  C313 2950   6.475   1.693   8.758  0.2533  0.2460  0.0246
   22SAPC  H13X 2951   6.541   1.756   8.822 -0.3041 -1.1093  2.0038
   22SAPC  H13Y 2952   6.371   1.710   8.792  0.3830  2.2340 -0.4803
   22SAPC  C314 2953   6.479   1.741   8.612 -0.7713  0.0501 -0.7726
   22SAPC  H14X 2954   6.380   1.733   8.561 -0.0284  0.7475 -2.3996
   22SAPC  H14Y 2955   6.554   1.684   8.553  2.2025  2.0523  0.8286
   22SAPC  C315 2956   6.514   1.897   8.602 -0.1603 -0.1718 -1.0025
   22SAPC  H15X 2957   6.518   1.929   8.496 -0.7640  1.4127 -0.5808
   22SAPC  H15Y 2958   6.615   1.906   8.648 -1.2617 -1.1821  1.8599
   22SAPC  C316 2959   6.424   1.984   8.680  0.4231 -0.3107  0.2782
   22SAPC  H16X 2960   6.472   2.084   8.669  0.1316 -0.2903 -1.0868
   22SAPC  H16Y 2961   6.414   1.951   8.785 -1.7626 -1.0244 -0.1080
   22SAPC  C317 2962   6.288   1.996   8.614  0.2998 -0.0027  1.2084
   22SAPC  H17X 2963   6.232   1.901   8.603 -1.3905  1.0632 -0.0146
   22SAPC  H17Y 2964   6.305   2.025   8.508 -0.9815 -1.8944  0.4300
   22SAPC  C318 2965   6.197   2.097   8.674  0.3888 -0.4683  0.9653
   22SAPC  H18X 2966   6.158   2.068   8.774  1.1374 -0.9806  1.1211
   22SAPC  H18Y 2967   6.111   2.117   8.607  0.7479 -0.4075  0.5149
   22SAPC  H18Z 2968   6.239   2.200   8.670  2.0145 -1.1269 -0.1720
   23SAPC     N 2969   0.269   2.589  11.204  0.0239 -0.4393 -0.1482
   23SAPC   C12 2970   0.329   2.701  11.119 -0.1902  0.6959  0.1796
   23SAPC  H12A 2971   0.381   2.763  11.190  0.0480 -0.6401  1.1964
   23SAPC  H12B 2972   0.248   2.763  11.083  0.1967  2.9345  2.8264
   23SAPC   C13 2973   0.174   2.507  11.128 -0.4488 -0.5151  0.6514
   23SAPC  H13A 2974   0.089   2.567  11.099 -0.5838 -0.8015  0.4421
   23SAPC  H13B 2975   0.219   2.483  11.033 -0.0872  1.1087  0.3955
   23SAPC  H13C 2976   0.138   2.421  11.183  0.1440  0.4620  2.6626
   23SAPC   C14 2977   0.379   2.506  11.260 -0.1645  0.6400  0.6450
   23SAPC  H14A 2978   0.335   2.415  11.299  1.0931 -1.1265 -1.7891
   23SAPC  H14B 2979   0.444   2.474  11.180 -1.4764  1.3518 -0.7450
   23SAPC  H14C 2980   0.429   2.542  11.348  1.1573 -1.2638  0.7381
   23SAPC   C15 2981   0.197   2.652  11.316 -0.2967 -0.3726  0.0982
   23SAPC  H15A 2982   0.252   2.726  11.373 -1.3479  1.8441 -1.5911
   23SAPC  H15B 2983   0.114   2.712  11.282  0.1501 -0.1136 -0.5652
   23SAPC  H15C 2984   0.161   2.575  11.382  2.0228 -0.9637  0.7831
   23SAPC   C11 2985   0.420   2.660  11.002  0.1194  0.1139  0.0771
   23SAPC  H11A 2986   0.434   2.736  10.923 -0.5098 -1.4787 -1.6442
   23SAPC  H11B 2987   0.358   2.582  10.953  0.0082  0.2798 -0.0473
   23SAPC     P 2988   0.615   2.497  10.958 -0.3974 -0.1352  0.1086
   23SAPC   O13 2989   0.749   2.474  11.017  0.2202 -0.0030  0.1360
   23SAPC   O14 2990   0.523   2.380  10.962 -0.6597 -0.6083  0.7051
   23SAPC   O12 2991   0.547   2.610  11.043  0.0501  0.2015 -0.2561
   23SAPC   O11 2992   0.640   2.554  10.813  0.0832 -0.1679 -0.2505
   23SAPC    C1 2993   0.568   2.526  10.700 -0.0509 -0.3680  0.6433
   23SAPC    HA 2994   0.507   2.433  10.700  0.6794 -0.8751  2.0886
   23SAPC    HB 2995   0.492   2.607  10.708 -0.6108 -1.0252  2.5803
   23SAPC    C2 2996   0.650   2.533  10.561  0.2939  0.4910 -0.9684
   23SAPC    HS 2997   0.670   2.637  10.527 -0.0663  1.0077  0.3524
   23SAPC   O21 2998   0.579   2.468  10.451 -1.0242  0.0559 -0.1288
   23SAPC   C21 2999   0.485   2.537  10.396 -0.2225 -0.6069  0.0213
   23SAPC   O22 3000   0.458   2.653  10.426  0.7181  0.1478 -0.1101
   23SAPC   C22 3001   0.433   2.456  10.273 -0.2524  0.0414  0.0406
   23SAPC   H2R 3002   0.506   2.448  10.189  0.6542  0.9982  0.7090
   23SAPC   H2S 3003   0.422   2.352  10.309  0.9885 -0.0196  0.3017
   23SAPC    C3 3004   0.790   2.473  10.586  0.1786  0.4859 -0.1173
   23SAPC    HX 3005   0.772   2.377  10.639  1.7065  0.6966  0.8315
   23SAPC    HY 3006   0.846   2.537  10.657 -0.9422 -1.0589  2.3082
   23SAPC   O31 3007   0.861   2.444  10.465 -0.5263  0.0885 -0.1344
   23SAPC   C31 3008   0.855   2.321  10.418  0.1558 -0.1161  0.0179
   23SAPC   O32 3009   0.790   2.232  10.461  0.4913  0.6605 -0.1884
   23SAPC   C32 3010   0.949   2.307  10.295 -1.1427 -0.2940  0.4685
   23SAPC   H2X 3011   0.998   2.209  10.311 -1.0978 -0.5328 -0.9825
   23SAPC   H2Y 3012   1.021   2.392  10.293 -1.7894  0.2819 -1.5507
   23SAPC   C23 3013   0.300   2.509  10.231 -0.6080  0.1764 -0.1656
   23SAPC   H3R 3014   0.295   2.619  10.243 -1.2938  0.2126 -0.7229
   23SAPC   H3S 3015   0.226   2.457  10.295 -1.6041 -1.1158 -2.2384
   23SAPC   C24 3016   0.257   2.484  10.087  0.2003 -0.0319  1.2542
   23SAPC   H4R 3017   0.153   2.520  10.074 -0.0249 -1.1352 -0.3163
   23SAPC   H4S 3018   0.264   2.374  10.068  1.5184  0.0857  0.9462
   23SAPC   C25 3019   0.346   2.555   9.990 -1.1961 -0.1488  0.2201
   23SAPC   H5R 3020   0.426   2.614  10.035 -1.6134  0.1364  0.5982
   23SAPC   C26 3021   0.347   2.534   9.854  0.5993  0.8783  0.5052
   23SAPC   H6R 3022   0.418   2.591   9.793  0.9379 -3.4401 -3.7250
   23SAPC   C27 3023   0.273   2.437   9.765 -0.4072  0.0763 -0.0397
   23SAPC   H7R 3024   0.227   2.347   9.813  0.6375 -1.2152 -1.3707
   23SAPC   H7S 3025   0.352   2.397   9.698  0.4181 -1.0711  1.5424
   23SAPC   C28 3026   0.160   2.497   9.682 -0.0107 -0.2878  0.3994
   23SAPC   H8R 3027   0.099   2.579   9.724 -1.4110 -0.1127 -1.8321
   23SAPC   C29 3028   0.131   2.455   9.562 -0.1087  0.2616  0.3982
   23SAPC   H9R 3029   0.058   2.513   9.505 -0.5568  0.6585  1.3565
   23SAPC  C210 3030   0.195   2.347   9.473 -0.4668 -0.3657  0.6180
   23SAPC  H10R 3031   0.113   2.278   9.442  2.0934 -2.6880 -1.5031
   23SAPC  H10S 3032   0.264   2.290   9.539  0.5161  1.3257  1.1159
   23SAPC  C211 3033   0.283   2.405   9.367  0.0438  0.0671  0.7098
   23SAPC  H11R 3034   0.363   2.474   9.398  0.1259  0.7819 -0.9840
   23SAPC  C212 3035   0.265   2.391   9.237  0.5167  0.2676  0.2635
   23SAPC  H12R 3036   0.338   2.435   9.167 -0.8504  2.8700  0.3551
   23SAPC  C213 3037   0.164   2.299   9.177  0.4106  0.4491 -0.2837
   23SAPC  H13R 3038   0.059   2.329   9.200  0.4896 -0.0529  0.7911
   23SAPC  H13S 3039   0.168   2.199   9.226  0.5186  0.9742  0.8082
   23SAPC  C214 3040   0.175   2.283   9.032  0.5269 -0.3281 -0.0253
   23SAPC  H14R 3041   0.123   2.363   8.978 -0.4148 -1.1189 -0.3349
   23SAPC  C215 3042   0.231   2.178   8.971 -0.2578  0.1450  0.4583
   23SAPC  H15R 3043   0.232   2.180   8.861 -1.9618  0.7056  0.4079
   23SAPC  C216 3044   0.289   2.053   9.037  0.0142  0.3981  0.0758
   23SAPC  H16R 3045   0.215   1.970   9.031 -1.4491  1.6301  0.5660
   23SAPC  H16S 3046   0.304   2.064   9.147  2.6673 -0.1460 -0.1584
   23SAPC  C217 3047   0.424   2.011   8.982  0.4279 -0.2964 -0.6058
   23SAPC  H17R 3048   0.493   2.095   9.004  0.1283  0.3949 -2.1331
   23SAPC  H17S 3049   0.427   2.005   8.871  2.0985 -0.9431 -0.5543
   23SAPC  C218 3050   0.485   1.887   9.045 -0.0082  0.1892 -0.2111
   23SAPC  H18R 3051   0.586   1.879   8.999 -0.0602 -2.5704 -0.0421
   23SAPC  H18S 3052   0.423   1.800   9.012  0.2725  0.0197 -0.2953
   23SAPC  C219 3053   0.494   1.888   9.199  0.2334 -0.2287  0.7996
   23SAPC  H19R 3054   0.506   1.781   9.228 -0.7624 -0.0427  1.9908
   23SAPC  H19S 3055   0.397   1.904   9.251  1.3475 -2.8731  4.0032
   23SAPC  C220 3056   0.599   1.979   9.258 -0.2820 -0.0357 -0.5279
   23SAPC  H20R 3057   0.602   1.955   9.366  0.4770  1.2479 -0.2467
   23SAPC  H20S 3058   0.574   2.087   9.253 -0.6983 -0.1412 -0.8241
   23SAPC  H20T 3059   0.702   1.959   9.220 -0.1491  0.2864 -0.3312
   23SAPC   C33 3060   0.870   2.304  10.155  0.8675  0.5285 -0.3102
   23SAPC   H3X 3061   0.815   2.401  10.151 -0.4900 -0.1738  0.4567
   23SAPC   H3Y 3062   0.784   2.234  10.165 -0.4458  2.2860  1.9875
   23SAPC   C34 3063   0.958   2.275  10.033  0.4856 -0.8224 -0.5775
   23SAPC   H4X 3064   0.998   2.172  10.034 -3.0059 -2.4003 -2.5588
   23SAPC   H4Y 3065   1.039   2.351  10.029 -0.7117  0.7543  2.0294
   23SAPC   C35 3066   0.875   2.294   9.896  0.2047  0.0636 -0.5027
   23SAPC   H5X 3067   0.941   2.259   9.814  2.8728  0.6877  1.2626
   23SAPC   H5Y 3068   0.857   2.403   9.888  1.5528  0.4560  1.1857
   23SAPC   C36 3069   0.744   2.208   9.883 -0.0233 -0.3489 -0.4668
   23SAPC   H6X 3070   0.665   2.249   9.949  0.0740 -1.2031  0.2094
   23SAPC   H6Y 3071   0.765   2.105   9.920 -4.1883 -1.5605 -0.9886
   23SAPC   C37 3072   0.695   2.187   9.732 -0.0016  0.5491  0.1870
   23SAPC   H7X 3073   0.603   2.124   9.734  2.2837 -3.0693 -0.4268
   23SAPC   H7Y 3074   0.768   2.127   9.674 -0.4797  2.2383 -2.3277
   23SAPC   C38 3075   0.682   2.322   9.672 -0.3705  0.4387  0.4924
   23SAPC   H8X 3076   0.778   2.377   9.668  1.5565 -2.7186 -0.4673
   23SAPC   H8Y 3077   0.606   2.390   9.716  0.3950  2.1966 -0.8077
   23SAPC   C39 3078   0.632   2.301   9.528 -0.5882  0.0770 -0.6926
   23SAPC   H9X 3079   0.533   2.249   9.532 -1.2199  1.3083  0.2552
   23SAPC   H9Y 3080   0.706   2.236   9.476  1.9399  3.0161 -1.0832
   23SAPC  C310 3081   0.609   2.422   9.430 -0.6133  0.4417 -0.2318
   23SAPC  H10X 3082   0.562   2.502   9.492 -0.3817  1.7979 -1.7498
   23SAPC  H10Y 3083   0.542   2.383   9.350 -0.1827 -1.1159  0.1324
   23SAPC  C311 3084   0.725   2.499   9.368  0.0030  0.2055  0.4698
   23SAPC  H11X 3085   0.790   2.429   9.312 -0.2618  0.7646 -0.5586
   23SAPC  H11Y 3086   0.799   2.529   9.446 -1.1116 -1.0756  2.0872
   23SAPC  C312 3087   0.702   2.613   9.262 -0.2331  0.9724 -0.7517
   23SAPC  H12X 3088   0.804   2.634   9.223  1.2509 -0.2199  2.1535
   23SAPC  H12Y 3089   0.653   2.698   9.313 -0.8657 -0.4825  1.1823
   23SAPC  C313 3090   0.627   2.569   9.135 -0.4487  0.1582  0.1755
   23SAPC  H13X 3091   0.631   2.651   9.060  0.3408 -0.6257 -0.6637
   23SAPC  H13Y 3092   0.521   2.548   9.159  0.6092 -3.0917  2.6425
   23SAPC  C314 3093   0.671   2.434   9.070  0.8203  0.0571  0.4211
   23SAPC  H14X 3094   0.595   2.413   8.992  1.3020 -2.3084  0.5085
   23SAPC  H14Y 3095   0.659   2.356   9.149  0.8374 -1.1277 -0.7241
   23SAPC  C315 3096   0.815   2.428   9.021 -0.5327 -1.1079  0.0931
   23SAPC  H15X 3097   0.882   2.470   9.099 -0.1696 -0.1722 -0.6973
   23SAPC  H15Y 3098   0.824   2.500   8.937  1.4778 -0.2576  0.9743
   23SAPC  C316 3099   0.861   2.289   8.973  1.0582  0.2092 -0.1238
   23SAPC  H16X 3100   0.785   2.257   8.899  0.7977 -0.7187  0.5250
   23SAPC  H16Y 3101   0.860   2.212   9.053 -4.3267  1.4386  1.4113
   23SAPC  C317 3102   0.989   2.286   8.890 -0.0956  0.1625 -0.1022
   23SAPC  H17X 3103   0.967   2.364   8.814 -2.6016 -0.4286 -0.0745
   23SAPC  H17Y 3104   1.003   2.189   8.836  1.4680  0.4438 -0.2508
   23SAPC  C318 3105   1.118   2.313   8.970  0.6030 -0.3903 -0.2628
   23SAPC  H18X 3106   1.205   2.253   8.935  1.6287 -1.2092  3.2754
   23SAPC  H18Y 3107   1.096   2.278   9.073  0.3170  1.4236  0.3307
   23SAPC  H18Z 3108   1.138   2.422   8.975 -3.2109  0.4109  3.5787
   24SAPC     N 3109   2.924   4.511  11.028  0.9370  0.4573  0.5859
   24SAPC   C12 3110   3.054   4.538  10.950 -0.1186  1.1241  1.2111
   24SAPC  H12A 3111   3.129   4.532  11.027  0.2878  0.5866  0.7784
   24SAPC  H12B 3112   3.055   4.640  10.914  0.0878  0.1832 -1.6494
   24SAPC   C13 3113   2.812   4.518  10.925  0.8924 -0.0242  0.4143
   24SAPC  H13A 3114   2.713   4.521  10.967 -0.2459 -1.0896 -2.0052
   24SAPC  H13B 3115   2.810   4.604  10.859 -1.0796  0.7234  1.3815
   24SAPC  H13C 3116   2.834   4.435  10.859  0.7995 -0.4903  0.9658
   24SAPC   C14 3117   2.939   4.365  11.079 -0.2539  0.8452 -0.6060
   24SAPC  H14A 3118   3.009   4.362  11.162  1.1564 -0.7588 -1.7865
   24SAPC  H14B 3119   2.846   4.316  11.105  0.2886 -0.5363 -1.1902
   24SAPC  H14C 3120   2.991   4.302  11.009 -1.8185 -2.6566  1.1322
   24SAPC   C15 3121   2.897   4.603  11.140  0.3741  0.3391  1.0519
   24SAPC  H15A 3122   2.983   4.606  11.204  1.7894  0.7928 -0.7854
   24SAPC  H15B 3123   2.886   4.706  11.111 -0.6242 -0.5360 -2.0421
   24SAPC  H15C 3124   2.817   4.570  11.205  0.9631 -0.8695  1.1998
   24SAPC   C11 3125   3.097   4.437  10.837  0.3706  0.9144 -0.0661
   24SAPC  H11A 3126   3.176   4.485  10.776 -0.0894  0.7139 -0.8310
   24SAPC  H11B 3127   3.016   4.418  10.763  0.4433  0.5506 -0.0545
   24SAPC     P 3128   3.290   4.293  10.956 -0.0311  0.4152 -0.3509
   24SAPC   O13 3129   3.322   4.427  11.012  0.7704  0.4768  0.3250
   24SAPC   O14 3130   3.285   4.178  11.051  0.0942  0.0943 -0.2419
   24SAPC   O12 3131   3.147   4.302  10.880  0.0718 -0.0220  0.0978
   24SAPC   O11 3132   3.388   4.251  10.847  0.0502 -0.8459 -0.3900
   24SAPC    C1 3133   3.404   4.130  10.779 -0.3106 -0.2581 -0.2022
   24SAPC    HA 3134   3.508   4.117  10.741 -0.1213  0.7105 -0.0433
   24SAPC    HB 3135   3.380   4.043  10.842 -0.5856  1.1374  1.7099
   24SAPC    C2 3136   3.301   4.134  10.654 -0.7292  0.2180 -0.1955
   24SAPC    HS 3137   3.199   4.127  10.697 -1.4290 -0.3134 -1.8704
   24SAPC   O21 3138   3.330   4.016  10.572  0.3136 -0.6141 -0.1305
   24SAPC   C21 3139   3.278   3.900  10.614  0.3091 -0.3430  0.2341
   24SAPC   O22 3140   3.231   3.891  10.727 -0.2431  0.6854 -0.0122
   24SAPC   C22 3141   3.292   3.790  10.514  0.1403  0.3540 -0.3991
   24SAPC   H2R 3142   3.247   3.829  10.420 -4.0354  1.6298  1.8673
   24SAPC   H2S 3143   3.400   3.786  10.487  0.0706 -0.6772 -0.5750
   24SAPC    C3 3144   3.300   4.263  10.571 -0.1755 -0.1527  0.9844
   24SAPC    HX 3145   3.393   4.273  10.511 -0.7182 -1.0331 -0.0385
   24SAPC    HY 3146   3.292   4.353  10.636  2.0024  1.6163 -0.9765
   24SAPC   O31 3147   3.193   4.261  10.483  0.0423 -0.2124 -0.2865
   24SAPC   C31 3148   3.192   4.363  10.399  0.1662  0.8178  0.6276
   24SAPC   O32 3149   3.279   4.452  10.392  0.1951  0.4808 -0.3316
   24SAPC   C32 3150   3.063   4.350  10.313 -0.0033 -0.6089  0.8392
   24SAPC   H2X 3151   2.977   4.388  10.373 -0.5497 -1.6753  0.7574
   24SAPC   H2Y 3152   3.047   4.247  10.275  0.0210 -0.2795 -0.0918
   24SAPC   C23 3153   3.238   3.651  10.553 -0.4414  0.0045 -1.0510
   24SAPC   H3R 3154   3.130   3.650  10.580  0.0084  0.3429  0.9042
   24SAPC   H3S 3155   3.280   3.613  10.648 -1.0311  0.2388 -0.6920
   24SAPC   C24 3156   3.264   3.543  10.447  0.1396 -1.1381 -0.0150
   24SAPC   H4R 3157   3.209   3.570  10.354 -1.7221  0.8463  1.5524
   24SAPC   H4S 3158   3.212   3.451  10.483  0.8499 -1.6722 -0.3422
   24SAPC   C25 3159   3.411   3.520  10.413 -0.0344 -0.0869 -0.3434
   24SAPC   H5R 3160   3.483   3.544  10.492 -1.4609  1.5491  0.5240
   24SAPC   C26 3161   3.462   3.461  10.302 -0.1484  0.1894 -0.1369
   24SAPC   H6R 3162   3.571   3.455  10.289  0.1494 -1.0830  2.4038
   24SAPC   C27 3163   3.385   3.416  10.181 -0.1410  0.1491  0.6490
   24SAPC   H7R 3164   3.346   3.509  10.133 -1.8033 -1.3973 -1.1483
   24SAPC   H7S 3165   3.298   3.348  10.192 -0.6166  0.5437 -0.5066
   24SAPC   C28 3166   3.459   3.345  10.072 -1.3079 -0.0349 -0.1914
   24SAPC   H8R 3167   3.507   3.252  10.107  0.5906  0.6321 -0.8916
   24SAPC   C29 3168   3.460   3.372   9.943 -0.0649  0.3254  0.1689
   24SAPC   H9R 3169   3.501   3.298   9.873  1.3004 -0.6051  1.8823
   24SAPC  C210 3170   3.375   3.485   9.883 -0.1596  0.6219  0.0377
   24SAPC  H10R 3171   3.391   3.588   9.922  0.5236  1.4683 -2.3151
   24SAPC  H10S 3172   3.265   3.469   9.883 -0.2753  0.9869 -2.4158
   24SAPC  C211 3173   3.420   3.499   9.738 -0.5293  0.5528  1.1022
   24SAPC  H11R 3174   3.368   3.434   9.666  2.0057  0.4436 -0.7886
   24SAPC  C212 3175   3.528   3.568   9.693  0.2266  0.6179  0.0218
   24SAPC  H12R 3176   3.553   3.580   9.586 -0.5070  0.4837 -0.1761
   24SAPC  C213 3177   3.619   3.653   9.783 -0.2440 -0.8320 -0.4249
   24SAPC  H13R 3178   3.725   3.628   9.766  0.1494 -1.4072  2.3279
   24SAPC  H13S 3179   3.619   3.636   9.893 -1.1290 -3.1812 -0.7471
   24SAPC  C214 3180   3.581   3.797   9.761 -0.1578  0.1928  0.2058
   24SAPC  H14R 3181   3.513   3.832   9.841  1.0081 -1.9486  2.2671
   24SAPC  C215 3182   3.620   3.887   9.666 -0.0541  0.0582 -0.1758
   24SAPC  H15R 3183   3.586   3.992   9.667  0.1461  0.2651 -3.4702
   24SAPC  C216 3184   3.702   3.852   9.544 -0.4462  0.5098 -0.1214
   24SAPC  H16R 3185   3.731   3.747   9.562 -3.5570 -0.1314  2.0009
   24SAPC  H16S 3186   3.794   3.914   9.540 -0.4613  0.6706  1.3811
   24SAPC  C217 3187   3.628   3.870   9.409 -0.0348 -0.2227 -0.8252
   24SAPC  H17R 3188   3.595   3.974   9.389  0.2038  0.4066  1.6508
   24SAPC  H17S 3189   3.527   3.824   9.412 -0.6236  0.9723 -1.8538
   24SAPC  C218 3190   3.715   3.819   9.289 -0.1593 -0.4414  0.4712
   24SAPC  H18R 3191   3.729   3.711   9.309  0.6500 -0.5941 -0.7761
   24SAPC  H18S 3192   3.819   3.858   9.284 -0.7322  1.0263 -2.0578
   24SAPC  C219 3193   3.657   3.833   9.148 -0.3265 -0.3844 -0.1097
   24SAPC  H19R 3194   3.565   3.772   9.154 -0.0385 -0.6906  2.3656
   24SAPC  H19S 3195   3.724   3.796   9.068 -0.4665  1.0571 -0.9301
   24SAPC  C220 3196   3.618   3.977   9.112 -0.3254 -0.3438 -0.0059
   24SAPC  H20R 3197   3.588   3.991   9.006 -0.4548  2.0362  0.2902
   24SAPC  H20S 3198   3.703   4.045   9.131 -1.1593  0.8266 -0.3364
   24SAPC  H20T 3199   3.527   4.017   9.162  0.0592  1.1907 -0.4910
   24SAPC   C33 3200   3.084   4.432  10.191  0.2643  0.3096  0.1901
   24SAPC   H3X 3201   3.176   4.392  10.141  0.4473 -1.1962  1.6353
   24SAPC   H3Y 3202   3.102   4.538  10.216 -0.7745  0.3290  0.9124
   24SAPC   C34 3203   2.978   4.415  10.086 -0.0287 -0.0273  0.1787
   24SAPC   H4X 3204   2.884   4.457  10.127  0.3241  1.4863 -0.5104
   24SAPC   H4Y 3205   2.953   4.310  10.059  0.9492 -0.2964  0.2727
   24SAPC   C35 3206   3.015   4.472   9.949  0.5580  0.1249  0.2981
   24SAPC   H5X 3207   3.096   4.406   9.913  0.3413  0.9849 -2.0152
   24SAPC   H5Y 3208   3.056   4.575   9.964  1.0120 -0.2171  1.4480
   24SAPC   C36 3209   2.896   4.481   9.858 -0.1596 -0.7264  0.4885
   24SAPC   H6X 3210   2.805   4.526   9.904 -0.5088 -0.0518 -0.8090
   24SAPC   H6Y 3211   2.882   4.377   9.821 -0.3284  0.2395 -2.4197
   24SAPC   C37 3212   2.931   4.563   9.736 -0.4265 -0.4462 -0.0396
   24SAPC   H7X 3213   3.023   4.522   9.689 -0.7659 -2.2378  0.7900
   24SAPC   H7Y 3214   2.939   4.670   9.768  2.6244 -1.1358  1.9435
   24SAPC   C38 3215   2.818   4.544   9.633 -0.6180 -0.3406 -0.2057
   24SAPC   H8X 3216   2.716   4.582   9.652 -0.7319 -1.6147  2.1313
   24SAPC   H8Y 3217   2.807   4.434   9.617 -2.3837  0.0364 -2.0601
   24SAPC   C39 3218   2.873   4.579   9.494  0.1422 -0.3620  0.2252
   24SAPC   H9X 3219   2.977   4.543   9.483 -0.2457 -1.3958 -0.1936
   24SAPC   H9Y 3220   2.867   4.690   9.491 -0.4667 -0.4173 -2.4951
   24SAPC  C310 3221   2.788   4.531   9.374 -0.5533  0.2268 -0.4812
   24SAPC  H10X 3222   2.687   4.572   9.395 -0.3781  0.2622  0.3344
   24SAPC  H10Y 3223   2.795   4.421   9.370 -1.7093  0.1587 -0.8615
   24SAPC  C311 3224   2.823   4.601   9.243  0.1400 -0.1078  0.2735
   24SAPC  H11X 3225   2.932   4.592   9.223  0.3700  0.9242  1.0205
   24SAPC  H11Y 3226   2.803   4.710   9.249  1.0582  0.1265 -0.6751
   24SAPC  C312 3227   2.749   4.546   9.115  0.2691 -0.0816 -0.5693
   24SAPC  H12X 3228   2.743   4.637   9.050  1.0071  1.3124  1.2393
   24SAPC  H12Y 3229   2.644   4.519   9.141 -0.3883  2.4808 -0.2520
   24SAPC  C313 3230   2.824   4.433   9.051 -0.0261 -0.3283 -0.7482
   24SAPC  H13X 3231   2.837   4.353   9.128 -0.8673  0.5589  0.3451
   24SAPC  H13Y 3232   2.928   4.465   9.028 -0.1923  1.4871  0.7356
   24SAPC  C314 3233   2.756   4.384   8.920 -0.1769  0.8018 -0.2947
   24SAPC  H14X 3234   2.786   4.450   8.836  1.8127  0.3510  0.0187
   24SAPC  H14Y 3235   2.645   4.396   8.925 -0.1290  0.7256  3.0962
   24SAPC  C315 3236   2.779   4.244   8.869  0.1863  0.5042 -0.3895
   24SAPC  H15X 3237   2.754   4.233   8.761 -0.5901  1.6607 -0.3477
   24SAPC  H15Y 3238   2.716   4.178   8.931  1.8108 -0.0533  0.7415
   24SAPC  C316 3239   2.917   4.193   8.885  0.2736  0.0862  0.7400
   24SAPC  H16X 3240   2.953   4.222   8.986  2.8242 -0.0248 -0.0753
   24SAPC  H16Y 3241   2.976   4.247   8.808 -1.4546 -2.5720 -2.7307
   24SAPC  C317 3242   2.945   4.043   8.857 -0.6506  0.2304  0.8423
   24SAPC  H17X 3243   2.887   3.981   8.930 -0.9617 -1.3108 -0.6506
   24SAPC  H17Y 3244   3.053   4.023   8.875  0.3316  2.7143 -1.6048
   24SAPC  C318 3245   2.910   3.990   8.721 -0.5744 -0.2760  0.8754
   24SAPC  H18X 3246   2.801   3.993   8.704 -0.3720  1.2115 -0.3196
   24SAPC  H18Y 3247   2.946   3.885   8.709 -3.4816 -1.3239  0.6636
   24SAPC  H18Z 3248   2.964   4.050   8.644 -3.0860 -0.9799 -1.5720
   25SAPC     N 3249   6.371   4.798   6.441  0.0446 -0.4954 -0.4414
   25SAPC   C12 3250   6.288   4.725   6.339  0.0600 -0.0529  0.1816
   25SAPC  H12A 3251   6.336   4.632   6.313  0.1460 -0.0202  0.2224
   25SAPC  H12B 3252   6.278   4.773   6.243  0.0026 -2.6230 -1.2016
   25SAPC   C13 3253   6.381   4.724   6.578 -0.7288 -0.1393 -0.7440
   25SAPC  H13A 3254   6.428   4.627   6.573  2.5625  1.1852  1.2412
   25SAPC  H13B 3255   6.451   4.775   6.642 -0.9421 -2.2912  1.3492
   25SAPC  H13C 3256   6.281   4.712   6.618 -1.4464 -3.0307 -3.1165
   25SAPC   C14 3257   6.514   4.822   6.375  0.4242 -0.3994 -0.4942
   25SAPC  H14A 3258   6.576   4.862   6.453  0.9417 -1.6367 -0.2449
   25SAPC  H14B 3259   6.563   4.727   6.356  1.1107 -0.6072  2.0326
   25SAPC  H14C 3260   6.517   4.879   6.283  1.2788  0.0858 -0.1732
   25SAPC   C15 3261   6.320   4.931   6.467 -0.7859 -0.0808 -0.2981
   25SAPC  H15A 3262   6.214   4.928   6.490 -1.1278 -0.9698 -1.8483
   25SAPC  H15B 3263   6.375   4.975   6.549  1.7112 -1.9920 -0.8111
   25SAPC  H15C 3264   6.338   4.983   6.374  2.0825 -0.4773 -0.0662
   25SAPC   C11 3265   6.149   4.685   6.383  0.8472 -0.2109 -0.1203
   25SAPC  H11A 3266   6.134   4.622   6.474 -1.1098  1.4552  0.7957
   25SAPC  H11B 3267   6.109   4.618   6.305  2.2700 -1.5126  0.2238
   25SAPC     P 3268   6.006   4.878   6.264  0.1543  0.3866 -0.3254
   25SAPC   O13 3269   6.004   5.020   6.279  0.0346  0.0512  0.2504
   25SAPC   O14 3270   6.083   4.819   6.152 -0.9748 -0.4731  0.5418
   25SAPC   O12 3271   6.063   4.803   6.393  0.6087  0.0058 -0.0011
   25SAPC   O11 3272   5.853   4.829   6.258  0.0791  0.1054 -0.4846
   25SAPC    C1 3273   5.826   4.688   6.239 -0.1556  0.4227  0.5574
   25SAPC    HA 3274   5.758   4.679   6.152 -0.4690 -0.6058  0.8912
   25SAPC    HB 3275   5.915   4.630   6.209 -0.0780  1.8302 -2.2090
   25SAPC    C2 3276   5.750   4.625   6.357 -0.1671  0.4494 -0.5475
   25SAPC    HS 3277   5.655   4.679   6.378 -1.5920 -0.2828 -4.3307
   25SAPC   O21 3278   5.841   4.624   6.472  0.6783 -0.1017  0.5710
   25SAPC   C21 3279   5.808   4.681   6.583  0.7604 -0.1965 -0.6706
   25SAPC   O22 3280   5.707   4.748   6.608  0.1868  0.0547 -0.1098
   25SAPC   C22 3281   5.916   4.667   6.681  0.3904 -0.0130 -0.1480
   25SAPC   H2R 3282   5.949   4.562   6.696  1.9165  0.7157  2.0872
   25SAPC   H2S 3283   5.998   4.724   6.634 -0.0150  0.9343  0.2688
   25SAPC    C3 3284   5.698   4.476   6.333 -0.0400 -0.7669  0.2091
   25SAPC    HX 3285   5.791   4.416   6.327  0.3133 -0.1930 -0.0695
   25SAPC    HY 3286   5.637   4.454   6.243  1.8644 -1.4094 -0.9765
   25SAPC   O31 3287   5.620   4.439   6.446 -0.3881  0.0826  0.5680
   25SAPC   C31 3288   5.671   4.354   6.537 -0.2577  0.3601  0.1443
   25SAPC   O32 3289   5.790   4.337   6.557  0.1934  0.3811 -0.4347
   25SAPC   C32 3290   5.559   4.305   6.617  0.3492 -0.4240 -0.3548
   25SAPC   H2X 3291   5.546   4.198   6.593  0.0835 -0.5015  0.1172
   25SAPC   H2Y 3292   5.464   4.356   6.591  0.8807 -0.1516 -1.8443
   25SAPC   C23 3293   5.882   4.729   6.818  0.4196  0.4765 -0.2891
   25SAPC   H3R 3294   5.800   4.669   6.862 -0.8271  1.1874 -1.5611
   25SAPC   H3S 3295   5.839   4.830   6.801 -2.1903 -0.8077 -1.9976
   25SAPC   C24 3296   6.010   4.744   6.905  0.5116 -0.0558  0.1359
   25SAPC   H4R 3297   6.001   4.821   6.985 -0.3309 -0.7427  0.7241
   25SAPC   H4S 3298   6.095   4.785   6.846  1.7337  1.0488  2.5531
   25SAPC   C25 3299   6.066   4.616   6.964 -0.0839  0.1819 -0.4712
   25SAPC   H5R 3300   6.118   4.549   6.893 -1.1975 -0.8118 -0.3927
   25SAPC   C26 3301   6.073   4.580   7.097 -1.1704 -0.2324  0.3494
   25SAPC   H6R 3302   6.118   4.487   7.135  0.6222  0.2231 -0.5365
   25SAPC   C27 3303   6.021   4.674   7.206 -0.0833  0.0695  0.8612
   25SAPC   H7R 3304   5.923   4.699   7.160  1.5552  0.5117 -2.6745
   25SAPC   H7S 3305   6.071   4.773   7.211 -0.5706  0.3044  1.2320
   25SAPC   C28 3306   6.029   4.606   7.341  0.3541  0.6827 -0.6858
   25SAPC   H8R 3307   5.977   4.509   7.344 -0.3519  1.0728  0.3238
   25SAPC   C29 3308   6.084   4.654   7.454 -0.5281  0.7576 -0.1787
   25SAPC   H9R 3309   6.060   4.603   7.549  2.7282  1.8172  1.3367
   25SAPC  C210 3310   6.159   4.779   7.464 -0.1811 -0.1820 -0.2369
   25SAPC  H10R 3311   6.092   4.867   7.456  0.8313  0.4910 -1.5441
   25SAPC  H10S 3312   6.230   4.789   7.380 -1.0954  0.8522 -0.9029
   25SAPC  C211 3313   6.252   4.783   7.587  0.0439  0.1488  0.0198
   25SAPC  H11R 3314   6.351   4.738   7.570 -0.2953 -0.2079 -1.1057
   25SAPC  C212 3315   6.227   4.850   7.704  0.1325 -0.3022 -0.1860
   25SAPC  H12R 3316   6.316   4.837   7.768  0.9222 -1.5364 -1.4778
   25SAPC  C213 3317   6.105   4.946   7.728 -1.1015  0.2743  0.1365
   25SAPC  H13R 3318   6.078   4.922   7.833 -0.1386 -0.2502  0.2804
   25SAPC  H13S 3319   6.023   4.911   7.663 -0.9717  1.3611 -0.6421
   25SAPC  C214 3320   6.124   5.097   7.718 -1.0691  0.2614 -0.4498
   25SAPC  H14R 3321   6.133   5.136   7.616  1.8730 -0.9678 -0.7542
   25SAPC  C215 3322   6.135   5.180   7.823 -0.0246 -0.2356  0.1983
   25SAPC  H15R 3323   6.159   5.287   7.809 -0.3594 -0.3055 -1.1034
   25SAPC  C216 3324   6.131   5.149   7.963  0.0481 -0.9709  0.2737
   25SAPC  H16R 3325   6.215   5.198   8.016 -1.1166  1.3572  0.1050
   25SAPC  H16S 3326   6.124   5.040   7.983 -0.8148 -1.4559 -2.2772
   25SAPC  C217 3327   6.009   5.205   8.047  0.3780 -0.5920  0.4295
   25SAPC  H17R 3328   5.926   5.132   8.033 -1.6693  1.3761  1.5763
   25SAPC  H17S 3329   5.988   5.311   8.017  0.2381 -0.9698 -0.8951
   25SAPC  C218 3330   6.036   5.206   8.197  0.1560  0.3398 -0.1017
   25SAPC  H18R 3331   6.130   5.261   8.218  0.5054  0.1492 -1.0808
   25SAPC  H18S 3332   6.043   5.102   8.235  0.8872 -0.5077 -2.4000
   25SAPC  C219 3333   5.917   5.267   8.266  0.5622 -0.1225 -0.5161
   25SAPC  H19R 3334   5.832   5.198   8.247  0.2546  0.4804 -1.3730
   25SAPC  H19S 3335   5.891   5.372   8.240 -3.8021 -0.4801  1.5788
   25SAPC  C220 3336   5.936   5.271   8.420 -0.2277  0.0607 -0.5438
   25SAPC  H20R 3337   6.034   5.307   8.458 -1.2953  0.8195  1.7016
   25SAPC  H20S 3338   5.934   5.166   8.454 -3.0684 -0.2534 -1.3909
   25SAPC  H20T 3339   5.852   5.316   8.478 -0.3411 -2.5097  1.4287
   25SAPC   C33 3340   5.577   4.327   6.768 -0.1355 -0.0276  0.3998
   25SAPC   H3X 3341   5.492   4.288   6.828  1.1967  0.7571  2.9655
   25SAPC   H3Y 3342   5.588   4.434   6.795  0.8846  0.3197 -1.2308
   25SAPC   C34 3343   5.698   4.257   6.835 -0.6533  0.6851  0.5974
   25SAPC   H4X 3344   5.787   4.308   6.791 -0.2763 -1.3614 -1.2307
   25SAPC   H4Y 3345   5.704   4.150   6.804 -1.7447  0.5192  0.9432
   25SAPC   C35 3346   5.701   4.272   6.986  0.1326  0.5967 -0.8509
   25SAPC   H5X 3347   5.644   4.192   7.038  0.7348 -0.4798 -1.8118
   25SAPC   H5Y 3348   5.657   4.374   6.996  1.1871  1.1157 -1.3930
   25SAPC   C36 3349   5.845   4.253   7.042 -0.1769 -0.1731 -0.3651
   25SAPC   H6X 3350   5.911   4.334   7.005  0.0563  0.5115  1.4732
   25SAPC   H6Y 3351   5.898   4.161   7.007  0.9655 -0.2502  1.4681
   25SAPC   C37 3352   5.837   4.269   7.185 -0.2982  0.0557  0.0305
   25SAPC   H7X 3353   5.762   4.194   7.217  1.4688 -1.5072  0.7223
   25SAPC   H7Y 3354   5.818   4.369   7.228  1.9560  0.3265  0.5474
   25SAPC   C38 3355   5.970   4.230   7.258 -0.2500  0.3483  0.4164
   25SAPC   H8X 3356   6.059   4.286   7.224  0.1524 -1.5384 -2.0016
   25SAPC   H8Y 3357   6.002   4.126   7.233 -0.1841  0.5202 -0.2322
   25SAPC   C39 3358   5.941   4.218   7.407  0.1244 -0.1260  0.8642
   25SAPC   H9X 3359   5.848   4.159   7.421  0.1407 -0.1533  0.8591
   25SAPC   H9Y 3360   5.936   4.315   7.461  0.4878  0.3683  0.0238
   25SAPC  C310 3361   6.045   4.141   7.498 -0.2346  0.4353 -0.3377
   25SAPC  H10X 3362   6.123   4.087   7.440 -2.0484 -2.0114 -0.6528
   25SAPC  H10Y 3363   5.992   4.058   7.547 -1.0358  2.2342  2.0297
   25SAPC  C311 3364   6.102   4.223   7.613  0.1347  0.5142  0.8456
   25SAPC  H11X 3365   6.027   4.303   7.633 -0.2190  0.7433 -1.1932
   25SAPC  H11Y 3366   6.200   4.266   7.585  0.6937 -1.3722 -0.2128
   25SAPC  C312 3367   6.115   4.127   7.739 -0.1485 -0.0443  0.0431
   25SAPC  H12X 3368   6.151   4.022   7.725 -3.3292 -1.2545  0.0851
   25SAPC  H12Y 3369   6.014   4.136   7.786 -0.8489 -0.4154 -1.3320
   25SAPC  C313 3370   6.200   4.185   7.853 -0.1139 -0.0222 -0.1843
   25SAPC  H13X 3371   6.147   4.150   7.944  0.1673 -0.7283 -0.2904
   25SAPC  H13Y 3372   6.208   4.296   7.850  0.5868 -0.0508  0.4154
   25SAPC  C314 3373   6.340   4.111   7.863  0.1678 -0.1124 -0.0888
   25SAPC  H14X 3374   6.410   4.146   7.784  2.8016 -0.6337  1.8924
   25SAPC  H14Y 3375   6.324   4.001   7.856  1.8031 -0.3194 -0.9465
   25SAPC  C315 3376   6.413   4.124   8.001  0.0440  0.3926 -0.9849
   25SAPC  H15X 3377   6.486   4.042   7.991 -2.4860 -2.7231  2.9378
   25SAPC  H15Y 3378   6.352   4.098   8.090  0.6077  0.3715 -0.5995
   25SAPC  C316 3379   6.502   4.246   8.025  0.7139 -0.3249  0.6938
   25SAPC  H16X 3380   6.439   4.332   8.056 -0.2419 -0.2230 -1.3236
   25SAPC  H16Y 3381   6.554   4.274   7.931 -0.1019 -1.4416 -0.1169
   25SAPC  C317 3382   6.607   4.220   8.130 -1.7443 -0.3749 -0.5909
   25SAPC  H17X 3383   6.658   4.122   8.121  1.1500  0.9946 -0.0767
   25SAPC  H17Y 3384   6.554   4.213   8.228 -1.0485  2.0503  0.0312
   25SAPC  C318 3385   6.712   4.333   8.151 -0.0228 -0.1815 -0.0437
   25SAPC  H18X 3386   6.656   4.425   8.179  0.8936  0.6221 -0.7881
   25SAPC  H18Y 3387   6.786   4.346   8.070 -1.0913 -1.5235 -1.2812
   25SAPC  H18Z 3388   6.769   4.312   8.244 -2.5361  0.6662  1.8379
   26SAPC     N 3389   0.127   6.409   5.988 -0.2975 -0.1478 -0.3801
   26SAPC   C12 3390   0.192   6.488   6.101  0.0575  0.1624  0.9950
   26SAPC  H12A 3391   0.187   6.593   6.080  0.0069  0.1505  0.9476
   26SAPC  H12B 3392   0.296   6.461   6.111 -0.1689 -1.0773  0.2613
   26SAPC   C13 3393   0.121   6.262   6.013  0.1835  0.6448 -0.7186
   26SAPC  H13A 3394   0.211   6.207   5.990  0.2047 -0.2145  1.2245
   26SAPC  H13B 3395   0.113   6.244   6.119 -0.4721 -0.6507 -0.9701
   26SAPC  H13C 3396   0.040   6.215   5.960 -2.0041  0.5122  2.4628
   26SAPC   C14 3397  -0.012   6.460   5.973 -0.0809 -0.5536  0.0676
   26SAPC  H14A 3398  -0.017   6.567   5.968  0.1023 -0.5160  0.5991
   26SAPC  H14B 3399  -0.046   6.434   5.874  1.1813  0.4150 -0.6551
   26SAPC  H14C 3400  -0.080   6.432   6.053 -0.9308 -0.8808 -0.7559
   26SAPC   C15 3401   0.199   6.437   5.864 -0.2623 -0.2095 -0.0339
   26SAPC  H15A 3402   0.292   6.382   5.860 -0.3565 -0.3136 -1.7741
   26SAPC  H15B 3403   0.146   6.393   5.781 -0.4916 -2.4042  1.1812
   26SAPC  H15C 3404   0.223   6.542   5.856  1.2026 -0.4846  0.3345
   26SAPC   C11 3405   0.127   6.466   6.243 -0.2001  0.1901  0.0374
   26SAPC  H11A 3406   0.019   6.493   6.242 -0.6615 -1.5284 -0.2588
   26SAPC  H11B 3407   0.176   6.536   6.314 -0.8295  0.8689 -0.1827
   26SAPC     P 3408   0.277   6.281   6.334 -0.4065  0.1163 -0.0581
   26SAPC   O13 3409   0.275   6.133   6.321  0.1590 -0.3733 -0.3664
   26SAPC   O14 3410   0.390   6.362   6.275  0.2117 -0.1102  0.4834
   26SAPC   O12 3411   0.135   6.332   6.285 -0.1677 -0.3940 -0.2923
   26SAPC   O11 3412   0.290   6.322   6.487  0.3460  0.4480 -0.2487
   26SAPC    C1 3413   0.169   6.329   6.567 -0.2508  0.5392 -0.1475
   26SAPC    HA 3414   0.168   6.425   6.623  1.2854  0.8007 -0.5298
   26SAPC    HB 3415   0.073   6.325   6.511  0.6537 -1.6482 -1.6641
   26SAPC    C2 3416   0.146   6.211   6.671 -0.2000 -0.7518  0.2375
   26SAPC    HS 3417   0.049   6.241   6.716  0.3320  0.3876  0.6729
   26SAPC   O21 3418   0.248   6.219   6.770  0.4614 -0.1980  0.3925
   26SAPC   C21 3419   0.227   6.322   6.859 -0.0771 -1.2847 -0.5308
   26SAPC   O22 3420   0.126   6.391   6.866 -0.2486 -1.1768  0.2582
   26SAPC   C22 3421   0.342   6.331   6.954 -0.2025  0.0855 -0.1114
   26SAPC   H2R 3422   0.363   6.232   7.000  2.1875 -0.5489 -2.2667
   26SAPC   H2S 3423   0.428   6.360   6.889  1.0102 -0.3919  1.2245
   26SAPC    C3 3424   0.142   6.069   6.607 -0.7151  0.3492 -1.0475
   26SAPC    HX 3425   0.240   6.066   6.554 -0.3605 -1.0337 -0.3747
   26SAPC    HY 3426   0.075   6.039   6.525 -0.3483 -0.4544 -1.0682
   26SAPC   O31 3427   0.147   5.967   6.711 -0.1980  0.0631 -0.0822
   26SAPC   C31 3428   0.035   5.922   6.766  0.1382  0.2767 -0.0417
   26SAPC   O32 3429  -0.079   5.963   6.750  0.0346  0.2176  0.1697
   26SAPC   C32 3430   0.081   5.804   6.856 -0.5286 -0.6282 -0.1101
   26SAPC   H2X 3431   0.191   5.792   6.846 -0.2730  2.1573 -1.9616
   26SAPC   H2Y 3432   0.042   5.709   6.813 -5.0564  0.8597  0.1235
   26SAPC   C23 3433   0.340   6.456   7.051 -0.4195 -0.2095  0.4604
   26SAPC   H3R 3434   0.309   6.550   6.999 -1.0817 -0.6335  0.0641
   26SAPC   H3S 3435   0.447   6.469   7.075 -0.1394 -0.1524 -0.7349
   26SAPC   C24 3436   0.260   6.422   7.181 -0.3835  0.2582  0.6962
   26SAPC   H4R 3437   0.277   6.315   7.202 -0.7086 -0.0834 -0.6370
   26SAPC   H4S 3438   0.152   6.429   7.153 -0.3520 -0.8968  0.2598
   26SAPC   C25 3439   0.299   6.507   7.304 -0.2243 -0.5524 -0.0050
   26SAPC   H5R 3440   0.398   6.485   7.346  0.3786  3.9254  1.4998
   26SAPC   C26 3441   0.225   6.606   7.354 -0.2496 -0.1858 -0.9504
   26SAPC   H6R 3442   0.265   6.662   7.440 -0.8368  2.2246 -2.1413
   26SAPC   C27 3443   0.088   6.643   7.295 -0.8503 -0.0946 -0.1312
   26SAPC   H7R 3444   0.014   6.561   7.309 -0.6957 -0.1215  0.5530
   26SAPC   H7S 3445   0.093   6.646   7.184  0.7563  0.2978 -0.0667
   26SAPC   C28 3446   0.037   6.776   7.348 -0.3627  0.1968  0.5622
   26SAPC   H8R 3447   0.031   6.860   7.278 -1.1474 -2.1154 -2.3661
   26SAPC   C29 3448  -0.025   6.795   7.467  0.8011 -0.0951 -0.0943
   26SAPC   H9R 3449  -0.050   6.899   7.494  1.3165  0.3088 -1.1060
   26SAPC  C210 3450  -0.049   6.698   7.579  0.8627  0.2163 -0.4509
   26SAPC  H10R 3451   0.031   6.620   7.574  0.2040 -0.4976 -0.0579
   26SAPC  H10S 3452  -0.143   6.639   7.586 -0.6827  2.4313 -1.2680
   26SAPC  C211 3453  -0.031   6.775   7.706 -0.0123  0.3428 -0.0301
   26SAPC  H11R 3454  -0.102   6.857   7.725  0.2186 -0.1506  3.6587
   26SAPC  C212 3455   0.060   6.757   7.804  0.5553 -0.4566  0.0413
   26SAPC  H12R 3456   0.057   6.823   7.892 -1.2573 -0.7819  0.2601
   26SAPC  C213 3457   0.174   6.650   7.795 -0.1443 -0.2372 -0.3520
   26SAPC  H13R 3458   0.138   6.557   7.745  1.1072 -0.8951 -0.0680
   26SAPC  H13S 3459   0.207   6.617   7.896  0.6264  0.3451 -0.4083
   26SAPC  C214 3460   0.293   6.700   7.722  0.4101 -0.6097 -0.1928
   26SAPC  H14R 3461   0.303   6.810   7.719  0.9108 -0.6465  0.0372
   26SAPC  C215 3462   0.389   6.619   7.670 -0.0133 -0.3884  0.6545
   26SAPC  H15R 3463   0.481   6.666   7.632  0.8800 -2.0174  0.7272
   26SAPC  C216 3464   0.385   6.463   7.679 -0.3023 -0.7735  0.6553
   26SAPC  H16R 3465   0.464   6.424   7.612 -0.3923 -0.9655  0.6625
   26SAPC  H16S 3466   0.289   6.437   7.630 -0.2389  1.3555 -0.7445
   26SAPC  C217 3467   0.404   6.395   7.816 -0.4027 -0.5203 -0.0001
   26SAPC  H17R 3468   0.421   6.286   7.801  0.7829 -0.2801 -0.5109
   26SAPC  H17S 3469   0.314   6.417   7.878  1.2578  3.8377  1.1799
   26SAPC  C218 3470   0.521   6.437   7.895  0.1814 -0.1937 -0.4030
   26SAPC  H18R 3471   0.514   6.547   7.914 -2.0779 -0.3207 -0.2017
   26SAPC  H18S 3472   0.599   6.414   7.819  0.0793 -1.5282 -0.1296
   26SAPC  C219 3473   0.558   6.362   8.020 -0.0273  0.4766 -0.0174
   26SAPC  H19R 3474   0.669   6.363   8.030 -0.0055  1.0582 -0.3051
   26SAPC  H19S 3475   0.537   6.253   8.025  0.9343  0.3190  2.5295
   26SAPC  C220 3476   0.506   6.427   8.148  0.3811  0.0539  0.2147
   26SAPC  H20R 3477   0.512   6.348   8.227 -3.1617  0.7903  1.4294
   26SAPC  H20S 3478   0.396   6.430   8.132  0.1813  0.5562  1.5267
   26SAPC  H20T 3479   0.548   6.523   8.183  2.2401 -0.3568 -0.7585
   26SAPC   C33 3480   0.038   5.822   7.004 -0.1942  0.6113  0.7514
   26SAPC   H3X 3481   0.080   5.737   7.063  1.4198  1.8248  1.4413
   26SAPC   H3Y 3482  -0.073   5.815   7.008 -0.0982 -1.1096  1.3018
   26SAPC   C34 3483   0.086   5.952   7.068 -0.1447  0.1765  0.2844
   26SAPC   H4X 3484   0.072   6.041   7.002 -0.7991 -0.4726 -0.4792
   26SAPC   H4Y 3485   0.195   5.955   7.088 -0.1057  2.0329  0.0295
   26SAPC   C35 3486   0.010   5.990   7.193 -0.1506  0.3600 -0.4758
   26SAPC   H5X 3487  -0.011   5.891   7.238 -0.8828  1.6050  2.1277
   26SAPC   H5Y 3488  -0.093   6.022   7.167  0.4880  1.4502 -1.7930
   26SAPC   C36 3489   0.075   6.093   7.291  0.6234 -0.4848 -0.4325
   26SAPC   H6X 3490   0.076   6.198   7.253 -1.2254 -0.2887 -0.0247
   26SAPC   H6Y 3491   0.184   6.071   7.300  1.0021  1.0305 -0.9495
   26SAPC   C37 3492   0.005   6.085   7.426  0.6265  0.5632 -0.3914
   26SAPC   H7X 3493   0.015   5.979   7.458  1.5783  0.2641 -1.6037
   26SAPC   H7Y 3494  -0.099   6.110   7.397  1.4944  2.6678 -1.9437
   26SAPC   C38 3495   0.065   6.179   7.533  0.0950 -0.2101 -0.2487
   26SAPC   H8X 3496   0.021   6.280   7.518  0.0893 -0.0711  0.6578
   26SAPC   H8Y 3497   0.175   6.184   7.524  0.3679 -1.1558  1.9159
   26SAPC   C39 3498   0.028   6.130   7.676 -0.1406  0.5253  0.7478
   26SAPC   H9X 3499   0.070   6.028   7.689  1.2261  1.2025  1.8699
   26SAPC   H9Y 3500  -0.080   6.122   7.701  0.0989 -1.2395  1.3570
   26SAPC  C310 3501   0.106   6.214   7.782  0.3406 -0.3760  0.5932
   26SAPC  H10X 3502   0.117   6.320   7.751  1.3572 -0.5756  0.2122
   26SAPC  H10Y 3503   0.210   6.176   7.793  0.7531  0.5121 -0.1349
   26SAPC  C311 3504   0.048   6.196   7.925  0.0834 -0.5015  0.4095
   26SAPC  H11X 3505   0.068   6.091   7.953  0.2894 -0.7336 -0.5535
   26SAPC  H11Y 3506  -0.062   6.208   7.916  0.2388  1.3106  0.5487
   26SAPC  C312 3507   0.099   6.295   8.024 -0.4705  0.4541 -0.1483
   26SAPC  H12X 3508   0.108   6.392   7.971 -0.2111  0.7514  0.4296
   26SAPC  H12Y 3509   0.200   6.264   8.059 -1.0570 -0.0174  1.2106
   26SAPC  C313 3510   0.020   6.300   8.155 -0.4866 -0.1153 -0.2787
   26SAPC  H13X 3511   0.002   6.200   8.200  1.8108 -0.6605 -0.4746
   26SAPC  H13Y 3512  -0.079   6.336   8.118 -0.4259 -0.4331 -0.7630
   26SAPC  C314 3513   0.086   6.389   8.254 -0.6006  0.1839 -0.3377
   26SAPC  H14X 3514   0.092   6.495   8.220  0.4393  1.3458  3.0230
   26SAPC  H14Y 3515   0.189   6.356   8.279 -1.3390 -0.6508  1.7815
   26SAPC  C315 3516   0.014   6.366   8.391  0.1674  0.1194  0.8742
   26SAPC  H15X 3517   0.099   6.376   8.461  2.1389 -0.4917 -1.3227
   26SAPC  H15Y 3518  -0.019   6.260   8.401  0.6163 -0.5051 -2.8414
   26SAPC  C316 3519  -0.106   6.467   8.416  0.2762 -0.2339  0.5225
   26SAPC  H16X 3520  -0.174   6.457   8.329  1.1210  0.5939 -0.2569
   26SAPC  H16Y 3521  -0.065   6.570   8.428 -1.9105  0.6189  1.1950
   26SAPC  C317 3522  -0.182   6.422   8.544 -0.0902 -0.3137  0.0512
   26SAPC  H17X 3523  -0.110   6.398   8.625  2.3651  2.8274 -0.9628
   26SAPC  H17Y 3524  -0.228   6.324   8.520  0.8172 -0.9156  0.6798
   26SAPC  C318 3525  -0.283   6.525   8.590  0.7577 -0.5726 -0.6413
   26SAPC  H18X 3526  -0.367   6.469   8.635  0.6704  0.4011  0.4814
   26SAPC  H18Y 3527  -0.316   6.577   8.498 -1.3896 -1.0429 -0.1757
   26SAPC  H18Z 3528  -0.243   6.604   8.659 -0.0951 -0.0527 -0.7306
   27SAPC     N 3529   3.144   1.858   6.489  0.1631  0.3606 -0.1724
   27SAPC   C12 3530   3.084   1.726   6.525  0.6658 -0.6128 -0.4293
   27SAPC  H12A 3531   3.151   1.645   6.500 -0.2530 -1.5600  0.1006
   27SAPC  H12B 3532   2.996   1.701   6.466 -0.1302 -1.1006  0.9284
   27SAPC   C13 3533   3.038   1.965   6.477  0.1310 -0.0020  0.0115
   27SAPC  H13A 3534   2.987   1.984   6.570  0.2551  1.5505 -0.2077
   27SAPC  H13B 3535   3.084   2.059   6.450 -0.0673  0.0654 -0.0954
   27SAPC  H13C 3536   2.968   1.953   6.395  2.1631  0.1928 -1.8456
   27SAPC   C14 3537   3.251   1.903   6.584 -0.2481  1.0945 -0.0857
   27SAPC  H14A 3538   3.205   1.907   6.682 -0.3507 -2.2177  0.0879
   27SAPC  H14B 3539   3.333   1.834   6.595  0.4655  2.0235  0.6320
   27SAPC  H14C 3540   3.288   2.002   6.559  0.4744  1.1510  1.1045
   27SAPC   C15 3541   3.209   1.838   6.360  0.1577  0.0727  0.3884
   27SAPC  H15A 3542   3.302   1.786   6.378  0.4216  0.7839  1.1458
   27SAPC  H15B 3543   3.154   1.764   6.304 -0.8079  0.1002  1.2590
   27SAPC  H15C 3544   3.215   1.927   6.300  0.8018 -0.0801  0.2197
   27SAPC   C11 3545   3.036   1.704   6.666 -0.3856  0.2464  0.2133
   27SAPC  H11A 3546   2.976   1.611   6.673 -3.1947  2.0314  1.5057
   27SAPC  H11B 3547   2.962   1.781   6.698 -0.7479 -0.3928  0.9475
   27SAPC     P 3548   3.228   1.577   6.782  0.1326  0.1072  0.0704
   27SAPC   O13 3549   3.265   1.518   6.652 -0.4553  0.1825  0.0256
   27SAPC   O14 3550   3.345   1.601   6.867  0.3491  0.0224  0.2918
   27SAPC   O12 3551   3.149   1.706   6.753 -0.3301  0.2814 -0.3495
   27SAPC   O11 3552   3.131   1.477   6.850  0.3489  0.6796 -0.1473
   27SAPC    C1 3553   3.028   1.494   6.948 -0.1986  0.1494  0.7661
   27SAPC    HA 3554   2.980   1.594   6.950 -2.3832 -0.8440  2.7056
   27SAPC    HB 3555   2.944   1.423   6.934 -1.3756  1.3517  1.5239
   27SAPC    C2 3556   3.080   1.479   7.089  0.2897  0.2306 -0.4723
   27SAPC    HS 3557   3.165   1.549   7.102 -0.3209  0.7066  1.1121
   27SAPC   O21 3558   3.124   1.342   7.112 -0.1160 -0.4567  0.0911
   27SAPC   C21 3559   3.225   1.333   7.198  0.8475 -0.4350  0.4131
   27SAPC   O22 3560   3.298   1.423   7.231  0.2771 -0.1987  0.8158
   27SAPC   C22 3561   3.240   1.180   7.251  0.0270 -0.0094 -0.4815
   27SAPC   H2R 3562   3.144   1.148   7.297  0.3828 -1.8786 -0.9657
   27SAPC   H2S 3563   3.276   1.118   7.167  1.9986  0.3917  0.0152
   27SAPC    C3 3564   2.965   1.508   7.188  0.2351 -0.2470  0.8739
   27SAPC    HX 3565   2.878   1.441   7.170  0.4155 -0.2739  0.0156
   27SAPC    HY 3566   2.931   1.612   7.166 -0.4446 -1.0106 -2.2665
   27SAPC   O31 3567   3.005   1.482   7.321 -0.2009  0.1311  0.2213
   27SAPC   C31 3568   3.074   1.580   7.386  0.7603  0.1009  0.7352
   27SAPC   O32 3569   3.095   1.690   7.338 -0.2367  0.1961 -0.5257
   27SAPC   C32 3570   3.120   1.531   7.519 -0.1218 -0.1426 -0.3307
   27SAPC   H2X 3571   3.231   1.537   7.516 -0.1894  1.8611 -0.3522
   27SAPC   H2Y 3572   3.098   1.424   7.539  2.3536 -0.2535  2.5754
   27SAPC   C23 3573   3.358   1.168   7.356  0.5303 -0.0151 -0.2990
   27SAPC   H3R 3574   3.358   1.250   7.430  0.6220  0.8815 -1.2661
   27SAPC   H3S 3575   3.455   1.165   7.302 -0.3031 -0.5237 -1.8275
   27SAPC   C24 3576   3.345   1.025   7.426 -0.2665  0.2850 -0.1275
   27SAPC   H4R 3577   3.444   1.021   7.475 -0.2138  2.4157  0.0204
   27SAPC   H4S 3578   3.330   0.943   7.352  0.3174 -0.2888  0.3760
   27SAPC   C25 3579   3.232   1.015   7.529 -0.0206  0.0700 -0.2843
   27SAPC   H5R 3580   3.128   0.989   7.503 -0.8398  1.5414  1.3066
   27SAPC   C26 3581   3.257   1.047   7.658 -0.1466 -0.1818 -0.1102
   27SAPC   H6R 3582   3.170   1.051   7.725 -0.0570 -0.4085  0.0230
   27SAPC   C27 3583   3.388   1.098   7.720 -0.1049  0.1178  0.1116
   27SAPC   H7R 3584   3.471   1.101   7.646 -0.6092 -2.0082 -0.6247
   27SAPC   H7S 3585   3.411   1.020   7.795  1.0220  0.6616  0.3569
   27SAPC   C28 3586   3.371   1.230   7.787  0.8137  0.0526  0.3236
   27SAPC   H8R 3587   3.370   1.315   7.717  1.7790 -0.6603 -0.5906
   27SAPC   C29 3588   3.371   1.258   7.921  0.4748  0.2978  0.1073
   27SAPC   H9R 3589   3.359   1.364   7.949 -0.7449  0.0089  0.7254
   27SAPC  C210 3590   3.389   1.163   8.036  0.8614  0.3091 -0.4728
   27SAPC  H10R 3591   3.435   1.223   8.117  1.4256 -0.0243 -0.5407
   27SAPC  H10S 3592   3.466   1.087   8.012 -1.2167 -1.8072 -0.7529
   27SAPC  C211 3593   3.254   1.103   8.082 -0.0175 -0.5699 -0.2983
   27SAPC  H11R 3594   3.175   1.175   8.057 -0.5461 -1.5590 -1.5734
   27SAPC  C212 3595   3.227   0.980   8.136 -0.7680  0.1403 -0.2842
   27SAPC  H12R 3596   3.122   0.966   8.166  0.2265 -1.3977  2.9106
   27SAPC  C213 3597   3.332   0.874   8.172  0.0593  0.3647  0.1974
   27SAPC  H13R 3598   3.428   0.925   8.193 -0.3320 -0.3666  4.5717
   27SAPC  H13S 3599   3.354   0.804   8.089 -1.5893 -1.0480  0.8934
   27SAPC  C214 3600   3.290   0.786   8.290 -0.1491 -0.2687 -0.4034
   27SAPC  H14R 3601   3.186   0.751   8.278 -0.3641 -0.0685  0.8009
   27SAPC  C215 3602   3.370   0.765   8.401  0.0131  1.2577 -0.5951
   27SAPC  H15R 3603   3.332   0.693   8.475  0.4472  2.8383  1.2531
   27SAPC  C216 3604   3.511   0.816   8.428 -0.7976  0.3284  0.0184
   27SAPC  H16R 3605   3.568   0.821   8.333 -0.5243  0.0464  0.1652
   27SAPC  H16S 3606   3.567   0.756   8.503 -2.0058  1.1529  1.6343
   27SAPC  C217 3607   3.507   0.962   8.481  1.0910  0.5466  0.0316
   27SAPC  H17R 3608   3.431   0.961   8.562  0.6982 -2.2118 -0.2848
   27SAPC  H17S 3609   3.461   1.023   8.400 -0.3944 -1.4449 -0.7065
   27SAPC  C218 3610   3.640   1.011   8.539  0.8288 -0.1073  0.0340
   27SAPC  H18R 3611   3.624   1.118   8.562 -1.4858  0.0752 -2.0002
   27SAPC  H18S 3612   3.722   1.000   8.465  1.5067 -2.3606  1.0259
   27SAPC  C219 3613   3.680   0.941   8.665  0.3268  0.4753 -0.6516
   27SAPC  H19R 3614   3.700   0.833   8.647  0.3031  0.5670 -1.2666
   27SAPC  H19S 3615   3.602   0.947   8.744  1.8804 -0.7090  1.0340
   27SAPC  C220 3616   3.815   0.990   8.739  0.4831  0.3940 -0.4773
   27SAPC  H20R 3617   3.798   1.095   8.770  2.1256  0.2732  1.0222
   27SAPC  H20S 3618   3.904   0.982   8.673  0.8420 -3.5066  0.1983
   27SAPC  H20T 3619   3.818   0.926   8.831 -2.7674  0.7020 -0.0574
   27SAPC   C33 3620   3.064   1.623   7.634  0.3037 -0.5900 -1.0142
   27SAPC   H3X 3621   2.955   1.638   7.618  0.1776  1.1151  1.0502
   27SAPC   H3Y 3622   3.111   1.723   7.633  0.4295 -0.5832  1.3867
   27SAPC   C34 3623   3.066   1.549   7.769 -0.4621 -0.5860  0.2677
   27SAPC   H4X 3624   3.171   1.526   7.798 -0.9269 -0.0615  2.6310
   27SAPC   H4Y 3625   3.013   1.451   7.769 -0.9994 -0.2973  0.1026
   27SAPC   C35 3626   3.014   1.637   7.885 -0.2957  0.0763  0.3212
   27SAPC   H5X 3627   2.904   1.643   7.874 -0.3420 -0.0054  0.7319
   27SAPC   H5Y 3628   3.062   1.736   7.901 -1.4011  0.5241  1.0223
   27SAPC   C36 3629   3.030   1.576   8.027 -0.4362 -0.2143  0.4079
   27SAPC   H6X 3630   2.999   1.469   8.022 -3.5956  0.5418  1.7679
   27SAPC   H6Y 3631   2.952   1.625   8.088 -0.4247 -1.3488  1.3725
   27SAPC   C37 3632   3.172   1.592   8.087 -0.2660  0.3137 -0.6189
   27SAPC   H7X 3633   3.168   1.682   8.152 -0.3059 -0.2734  0.2034
   27SAPC   H7Y 3634   3.250   1.603   8.008 -0.5579  0.0134 -0.9516
   27SAPC   C38 3635   3.210   1.479   8.181  0.4832  0.1156  0.3299
   27SAPC   H8X 3636   3.320   1.467   8.169  0.3029 -0.6820 -0.7212
   27SAPC   H8Y 3637   3.164   1.388   8.138  0.9926 -0.4687  0.9887
   27SAPC   C39 3638   3.179   1.503   8.323 -0.3559 -0.2991  0.2010
   27SAPC   H9X 3639   3.070   1.510   8.340 -0.0893 -0.8840  2.5988
   27SAPC   H9Y 3640   3.223   1.593   8.372 -1.4398 -1.2959  3.2477
   27SAPC  C310 3641   3.210   1.378   8.404 -0.0809  0.2311 -0.2073
   27SAPC  H10X 3642   3.172   1.292   8.345  1.0435  0.3727 -1.1725
   27SAPC  H10Y 3643   3.154   1.378   8.500 -1.0288  0.4344 -0.7466
   27SAPC  C311 3644   3.359   1.347   8.422  0.5189  0.2212 -0.1633
   27SAPC  H11X 3645   3.413   1.342   8.325  1.1989  0.6303  0.1876
   27SAPC  H11Y 3646   3.379   1.243   8.456  0.9178  0.2549 -0.2883
   27SAPC  C312 3647   3.431   1.450   8.511  0.4634  0.6565  0.7838
   27SAPC  H12X 3648   3.446   1.542   8.449  1.3272  0.0562  0.0822
   27SAPC  H12Y 3649   3.531   1.405   8.528  0.6993  0.4867 -0.8345
   27SAPC  C313 3650   3.365   1.467   8.646  0.1462 -0.0586 -0.0135
   27SAPC  H13X 3651   3.258   1.495   8.639  0.0866 -0.0802  0.7571
   27SAPC  H13Y 3652   3.426   1.550   8.688 -0.4792  1.4331 -1.9172
   27SAPC  C314 3653   3.366   1.340   8.731  0.2154  0.6911  0.0771
   27SAPC  H14X 3654   3.472   1.305   8.740 -0.1076 -0.9162 -1.7460
   27SAPC  H14Y 3655   3.291   1.266   8.695  1.2721 -1.9687  2.9100
   27SAPC  C315 3656   3.322   1.370   8.874 -0.9721  0.5176 -0.2521
   27SAPC  H15X 3657   3.232   1.432   8.858  0.4589  2.5313 -0.8867
   27SAPC  H15Y 3658   3.398   1.446   8.902 -0.8830  0.5952 -0.6988
   27SAPC  C316 3659   3.296   1.251   8.964 -0.1494  0.1690 -0.0483
   27SAPC  H16X 3660   3.395   1.219   9.004  0.4871 -0.4947 -2.0628
   27SAPC  H16Y 3661   3.254   1.161   8.916  1.2140  0.0546 -1.0967
   27SAPC  C317 3662   3.201   1.289   9.088  0.6854 -0.4011 -0.1744
   27SAPC  H17X 3663   3.098   1.314   9.055  0.3650 -1.5504 -0.0925
   27SAPC  H17Y 3664   3.231   1.387   9.131  1.0265 -0.8005  0.5179
   27SAPC  C318 3665   3.199   1.189   9.208 -1.0870 -0.3172  0.5670
   27SAPC  H18X 3666   3.134   1.106   9.172 -2.4252  0.9035  0.0986
   27SAPC  H18Y 3667   3.160   1.225   9.305  0.2243 -1.0962  1.4241
   27SAPC  H18Z 3668   3.303   1.149   9.212 -0.4711  1.0188 -1.1435
   28SAPC     N 3669   3.157   3.731   5.911 -0.5074 -0.2340 -0.8091
   28SAPC   C12 3670   3.119   3.720   6.064  0.2721  0.0584  0.2207
   28SAPC  H12A 3671   3.199   3.760   6.124 -0.1630  0.7475  0.3598
   28SAPC  H12B 3672   3.108   3.615   6.083  0.9416  0.1645  1.2225
   28SAPC   C13 3673   3.172   3.876   5.887  0.2591 -0.0634 -0.6086
   28SAPC  H13A 3674   3.086   3.927   5.929 -1.7175 -2.3947 -1.5742
   28SAPC  H13B 3675   3.264   3.903   5.937 -0.2124 -1.0805  0.8724
   28SAPC  H13C 3676   3.171   3.903   5.783 -1.0953  4.4585  0.3211
   28SAPC   C14 3677   3.288   3.669   5.874 -0.5655 -0.2895  0.0213
   28SAPC  H14A 3678   3.366   3.700   5.941 -0.9339 -1.1184  0.8577
   28SAPC  H14B 3679   3.287   3.561   5.886  1.1477 -0.4846 -1.1603
   28SAPC  H14C 3680   3.312   3.698   5.773  1.3673 -2.2521 -0.1558
   28SAPC   C15 3681   3.060   3.663   5.822  0.1558  0.2602 -0.4786
   28SAPC  H15A 3682   2.962   3.707   5.817 -0.1862 -0.5866 -1.5167
   28SAPC  H15B 3683   3.093   3.675   5.720 -1.5547 -1.6099 -1.3149
   28SAPC  H15C 3684   3.056   3.557   5.843  1.5341 -0.0220 -1.4809
   28SAPC   C11 3685   2.987   3.797   6.106 -0.3702 -0.2765  0.3120
   28SAPC  H11A 3686   2.982   3.743   6.203 -0.5262 -0.5495  0.1531
   28SAPC  H11B 3687   2.901   3.763   6.044  0.6016 -0.7656 -0.8175
   28SAPC     P 3688   2.882   4.042   6.143  0.5164  0.0677 -0.5208
   28SAPC   O13 3689   2.934   4.178   6.137  0.1573 -0.3134 -0.1441
   28SAPC   O14 3690   2.761   4.010   6.068 -0.4255  0.2410 -0.3966
   28SAPC   O12 3691   2.996   3.940   6.113  0.3485  0.2250 -0.1308
   28SAPC   O11 3692   2.855   4.014   6.298  0.2054 -0.2613  0.4988
   28SAPC    C1 3693   2.952   3.973   6.390 -0.1313  0.5047  0.5479
   28SAPC    HA 3694   2.938   3.869   6.425  1.1561 -0.3757 -1.3814
   28SAPC    HB 3695   3.053   3.970   6.344  0.1926  0.1548  1.2747
   28SAPC    C2 3696   2.968   4.064   6.517 -0.0424  0.4486 -0.8666
   28SAPC    HS 3697   3.061   4.028   6.568 -1.3508  0.2355  1.4887
   28SAPC   O21 3698   2.860   4.053   6.600  0.2984  0.2747 -0.1524
   28SAPC   C21 3699   2.820   3.941   6.653  0.3944  0.1003  0.4231
   28SAPC   O22 3700   2.883   3.838   6.653 -0.3155 -0.0334  0.2364
   28SAPC   C22 3701   2.674   3.958   6.693  0.7172 -0.3698 -0.0168
   28SAPC   H2R 3702   2.624   4.024   6.618  0.8778 -0.3393 -0.0985
   28SAPC   H2S 3703   2.630   3.856   6.696 -0.0919 -0.0336 -0.2839
   28SAPC    C3 3704   2.978   4.210   6.468 -0.1348 -0.3725  0.6946
   28SAPC    HX 3705   2.883   4.247   6.424 -0.2075 -0.4227  0.8089
   28SAPC    HY 3706   3.045   4.204   6.380 -0.5700 -3.0682  0.4800
   28SAPC   O31 3707   3.017   4.306   6.574  0.1176  0.1379  0.0405
   28SAPC   C31 3708   3.021   4.434   6.537  0.9661 -0.2925  0.1086
   28SAPC   O32 3709   3.010   4.470   6.419 -0.0195 -0.0184  0.0217
   28SAPC   C32 3710   3.037   4.528   6.656  0.1030  0.1218 -0.0578
   28SAPC   H2X 3711   3.018   4.629   6.613 -1.3227 -0.0027  0.2349
   28SAPC   H2Y 3712   3.141   4.528   6.695  0.7224  2.0491 -1.5541
   28SAPC   C23 3713   2.670   4.023   6.838 -0.7807  0.6997 -0.8633
   28SAPC   H3R 3714   2.564   4.035   6.871 -0.3619  0.2760  0.7370
   28SAPC   H3S 3715   2.723   4.120   6.833 -1.0106  0.8720 -0.1649
   28SAPC   C24 3716   2.726   3.934   6.954 -0.4970  0.2375 -0.2268
   28SAPC   H4R 3717   2.827   3.910   6.914 -0.2428  3.1771 -1.5941
   28SAPC   H4S 3718   2.735   3.993   7.048  1.0328  0.2781 -0.3638
   28SAPC   C25 3719   2.638   3.812   6.987  0.8425  0.5753  0.1525
   28SAPC   H5R 3720   2.543   3.798   6.935  0.6109 -2.0283  1.1105
   28SAPC   C26 3721   2.648   3.730   7.094 -0.1894 -0.4460  0.5081
   28SAPC   H6R 3722   2.572   3.651   7.101  0.0200 -0.6424  0.5736
   28SAPC   C27 3723   2.747   3.737   7.204  0.0840  0.1029  0.4844
   28SAPC   H7R 3724   2.831   3.801   7.170  1.2146 -1.0088  1.0771
   28SAPC   H7S 3725   2.775   3.632   7.228  2.0802  0.3820 -0.4412
   28SAPC   C28 3726   2.699   3.802   7.325 -0.4946 -0.2449 -0.0068
   28SAPC   H8R 3727   2.680   3.907   7.297  1.2476 -0.6228 -3.0382
   28SAPC   C29 3728   2.661   3.741   7.438  0.5084 -0.0849  0.5313
   28SAPC   H9R 3729   2.639   3.804   7.527  0.1824  0.5812 -0.0093
   28SAPC  C210 3730   2.670   3.589   7.458 -0.6427 -0.3488 -0.5153
   28SAPC  H10R 3731   2.753   3.575   7.531 -1.4958 -3.0244  0.0522
   28SAPC  H10S 3732   2.702   3.530   7.369  0.3020 -0.4381 -0.1302
   28SAPC  C211 3733   2.532   3.541   7.485 -0.0454  0.3679 -0.1970
   28SAPC  H11R 3734   2.450   3.578   7.420 -1.6412 -2.1362  0.2395
   28SAPC  C212 3735   2.496   3.468   7.595 -0.3829 -0.8569  0.1456
   28SAPC  H12R 3736   2.391   3.440   7.614 -0.2595 -0.0342  2.3731
   28SAPC  C213 3737   2.586   3.414   7.704  0.3006  0.1477  0.0611
   28SAPC  H13R 3738   2.647   3.334   7.657 -2.1190 -2.0127  0.3753
   28SAPC  H13S 3739   2.523   3.356   7.775  0.4573  0.0965  0.1577
   28SAPC  C214 3740   2.652   3.518   7.792  0.7055  0.0257  0.1860
   28SAPC  H14R 3741   2.589   3.602   7.827  1.1559 -0.1795  1.5263
   28SAPC  C215 3742   2.784   3.523   7.814  0.0515  0.0209  0.3602
   28SAPC  H15R 3743   2.827   3.596   7.884  0.0881  2.6983 -2.2535
   28SAPC  C216 3744   2.889   3.429   7.756  0.0080 -0.1977 -0.0449
   28SAPC  H16R 3745   2.975   3.485   7.712 -0.9111  1.7448  0.5207
   28SAPC  H16S 3746   2.851   3.353   7.685 -0.8422 -2.4862  2.6717
   28SAPC  C217 3747   2.967   3.348   7.865  0.3824  0.1907 -0.3132
   28SAPC  H17R 3748   3.049   3.293   7.815  1.5213  0.5079  1.1068
   28SAPC  H17S 3749   2.901   3.273   7.913  2.5947 -1.3673  0.4354
   28SAPC  C218 3750   3.039   3.438   7.964 -0.4397  0.1821  0.6683
   28SAPC  H18R 3751   2.966   3.504   8.016 -2.1094 -0.3344 -0.9221
   28SAPC  H18S 3752   3.105   3.505   7.905 -2.1521  1.6482  0.2987
   28SAPC  C219 3753   3.107   3.359   8.072  0.3980 -0.0013 -0.1434
   28SAPC  H19R 3754   3.198   3.308   8.034  0.8560 -0.0585  0.9802
   28SAPC  H19S 3755   3.038   3.286   8.119 -1.0956  0.6244 -1.2866
   28SAPC  C220 3756   3.163   3.440   8.184 -0.3191  0.0412 -0.6493
   28SAPC  H20R 3757   3.209   3.392   8.273  2.8719  2.7057 -0.6781
   28SAPC  H20S 3758   3.081   3.503   8.224 -1.3029 -1.5865  0.0012
   28SAPC  H20T 3759   3.236   3.511   8.140  0.7594  0.0286  1.0392
   28SAPC   C33 3760   2.928   4.516   6.768 -0.1200 -0.2506 -0.0904
   28SAPC   H3X 3761   2.923   4.412   6.807 -2.0370  0.8211  2.8283
   28SAPC   H3Y 3762   2.822   4.531   6.737 -0.0595 -0.6303 -0.5027
   28SAPC   C34 3763   2.955   4.612   6.891  0.0401  0.0778  0.0013
   28SAPC   H4X 3764   2.862   4.602   6.951 -0.0518 -1.9113 -0.3955
   28SAPC   H4Y 3765   2.958   4.719   6.862 -0.6257  0.0285 -0.2781
   28SAPC   C35 3766   3.080   4.573   6.972  0.5692  0.4352  0.0151
   28SAPC   H5X 3767   3.167   4.626   6.928  0.9953 -1.4612 -1.5667
   28SAPC   H5Y 3768   3.100   4.464   6.973  0.8938  0.4982  0.7944
   28SAPC   C36 3769   3.045   4.587   7.127 -0.2871  0.5290  0.3877
   28SAPC   H6X 3770   2.957   4.526   7.155 -0.2366  1.4654  2.8944
   28SAPC   H6Y 3771   3.011   4.692   7.140 -2.0683  0.3545 -2.2068
   28SAPC   C37 3772   3.168   4.542   7.214  0.1817 -0.3038 -0.2930
   28SAPC   H7X 3773   3.224   4.463   7.158  0.9593 -1.0470  1.4612
   28SAPC   H7Y 3774   3.139   4.498   7.311  1.4839 -0.3291  0.1002
   28SAPC   C38 3775   3.275   4.652   7.243 -0.0560  0.3461  0.7338
   28SAPC   H8X 3776   3.272   4.723   7.157  0.1199  3.2130  2.9742
   28SAPC   H8Y 3777   3.375   4.603   7.248 -0.1998 -0.3338 -1.5397
   28SAPC   C39 3778   3.239   4.730   7.367  0.9506 -0.2090  0.4719
   28SAPC   H9X 3779   3.130   4.736   7.382  1.0937 -0.2037  1.5524
   28SAPC   H9Y 3780   3.283   4.829   7.343  0.7868  0.2080  1.7985
   28SAPC  C310 3781   3.304   4.664   7.485  0.2348 -0.1571 -0.1601
   28SAPC  H10X 3782   3.409   4.659   7.448 -0.3828  1.5301 -2.3349
   28SAPC  H10Y 3783   3.261   4.563   7.502 -2.1202  0.6424 -1.0189
   28SAPC  C311 3784   3.318   4.741   7.614 -1.0385 -0.8654 -0.1821
   28SAPC  H11X 3785   3.360   4.842   7.594 -0.0250 -1.5390 -1.5578
   28SAPC  H11Y 3786   3.397   4.691   7.674 -1.6023 -0.1482  1.2255
   28SAPC  C312 3787   3.199   4.753   7.703  0.1921 -0.3642  0.2563
   28SAPC  H12X 3788   3.142   4.658   7.702  1.0602 -0.9070 -1.5860
   28SAPC  H12Y 3789   3.134   4.825   7.648  0.9564 -0.7170 -1.1486
   28SAPC  C313 3790   3.232   4.811   7.852 -0.0577  0.6562  0.6245
   28SAPC  H13X 3791   3.278   4.727   7.909 -1.1193  0.8904  1.8646
   28SAPC  H13Y 3792   3.142   4.845   7.907 -0.1325  0.9836  0.3010
   28SAPC  C314 3793   3.327   4.928   7.848  0.3513 -0.3344 -0.2399
   28SAPC  H14X 3794   3.280   5.016   7.798 -0.6405 -0.5537  0.2739
   28SAPC  H14Y 3795   3.428   4.916   7.803  0.1913 -0.7064 -0.5072
   28SAPC  C315 3796   3.351   4.997   7.983 -0.1158 -0.2465  0.1215
   28SAPC  H15X 3797   3.352   4.914   8.057 -0.1241 -0.7387 -0.4283
   28SAPC  H15Y 3798   3.261   5.058   8.007  0.8177  2.2542 -2.0981
   28SAPC  C316 3799   3.467   5.091   7.997  0.1680 -0.0597 -0.0694
   28SAPC  H16X 3800   3.469   5.176   7.925  3.6555  2.0677  2.2038
   28SAPC  H16Y 3801   3.558   5.030   7.979  0.8608  0.5283  1.2438
   28SAPC  C317 3802   3.471   5.155   8.140  0.4920  0.5388  0.3846
   28SAPC  H17X 3803   3.457   5.078   8.218 -0.1051  1.8291  1.5861
   28SAPC  H17Y 3804   3.377   5.213   8.155 -1.3840 -2.3237  0.5815
   28SAPC  C318 3805   3.595   5.230   8.176 -0.4190 -0.5992  0.0139
   28SAPC  H18X 3806   3.688   5.169   8.169 -1.0424 -1.4007 -1.9803
   28SAPC  H18Y 3807   3.597   5.259   8.283 -0.4997  0.2493 -0.2088
   28SAPC  H18Z 3808   3.612   5.317   8.108 -1.1957 -1.1424 -0.9013
   29SAPC     N 3809   6.311   0.493   6.226 -0.5874  0.4683  0.1618
   29SAPC   C12 3810   6.432   0.561   6.289 -0.1928  0.0085  0.1808
   29SAPC  H12A 3811   6.508   0.488   6.313 -0.0210 -0.2273 -0.9772
   29SAPC  H12B 3812   6.400   0.602   6.383 -0.5074 -1.3202  0.6772
   29SAPC   C13 3813   6.252   0.395   6.322  0.2691 -0.2468 -0.3554
   29SAPC  H13A 3814   6.212   0.445   6.409  0.6010 -1.0772  0.2889
   29SAPC  H13B 3815   6.178   0.323   6.291 -1.4078 -0.2997  3.3060
   29SAPC  H13C 3816   6.335   0.336   6.356 -1.1452 -1.4134  1.2385
   29SAPC   C14 3817   6.212   0.592   6.183  0.1125 -0.1301 -0.4823
   29SAPC  H14A 3818   6.169   0.623   6.277 -1.4577 -1.8718 -0.5697
   29SAPC  H14B 3819   6.256   0.677   6.133  0.7777  0.7050  1.4254
   29SAPC  H14C 3820   6.126   0.546   6.136 -0.1335  1.9511 -2.2277
   29SAPC   C15 3821   6.361   0.415   6.108 -0.0599  0.2753  0.8721
   29SAPC  H15A 3822   6.443   0.354   6.145 -1.7771 -1.3989  2.1109
   29SAPC  H15B 3823   6.288   0.339   6.087 -0.8777  0.9554  1.2278
   29SAPC  H15C 3824   6.389   0.466   6.017 -0.5353 -0.8292  0.0879
   29SAPC   C11 3825   6.496   0.671   6.207 -0.1629  0.4169  0.3753
   29SAPC  H11A 3826   6.430   0.752   6.167  0.7454 -0.0650 -2.3029
   29SAPC  H11B 3827   6.535   0.633   6.110  0.1441  0.5656  0.4392
   29SAPC     P 3828   6.751   0.683   6.282  0.1848 -0.4060  0.4400
   29SAPC   O13 3829   6.774   0.548   6.230 -0.3511 -0.0544 -0.0487
   29SAPC   O14 3830   6.833   0.790   6.223 -0.5049  0.1854  0.6180
   29SAPC   O12 3831   6.600   0.721   6.289 -0.1348 -0.0519 -0.2144
   29SAPC   O11 3832   6.789   0.685   6.435 -0.0005 -0.8930  0.4391
   29SAPC    C1 3833   6.704   0.727   6.539  0.2562 -0.0777 -0.3936
   29SAPC    HA 3834   6.595   0.721   6.517  0.0187  1.5558  0.2062
   29SAPC    HB 3835   6.714   0.655   6.624 -0.3469  0.3653  0.0590
   29SAPC    C2 3836   6.740   0.864   6.609 -0.3647 -0.5483  0.0607
   29SAPC    HS 3837   6.724   0.942   6.532  0.4806  0.0394  0.4697
   29SAPC   O21 3838   6.876   0.863   6.647 -1.1417  0.5028 -0.1307
   29SAPC   C21 3839   6.913   0.986   6.675  0.0614  0.2590 -0.0819
   29SAPC   O22 3840   6.849   1.085   6.649 -0.2981 -0.2315  0.1182
   29SAPC   C22 3841   7.051   0.990   6.742  0.0870 -0.1558 -0.1416
   29SAPC   H2R 3842   7.089   0.890   6.769 -0.2119 -0.1583  0.2723
   29SAPC   H2S 3843   7.119   1.024   6.661 -0.5377  0.7633 -0.2974
   29SAPC    C3 3844   6.632   0.890   6.720 -0.4164  0.4342 -0.1986
   29SAPC    HX 3845   6.531   0.880   6.674  0.2613  1.3084 -1.9562
   29SAPC    HY 3846   6.635   0.994   6.761 -3.5989  0.9974 -1.1066
   29SAPC   O31 3847   6.645   0.787   6.827 -0.6109 -0.2639  0.2554
   29SAPC   C31 3848   6.654   0.835   6.947 -0.1685 -0.6397 -0.7794
   29SAPC   O32 3849   6.681   0.945   6.983 -0.1648  0.3730 -0.1810
   29SAPC   C32 3850   6.615   0.716   7.042 -0.0655 -0.2421  0.5869
   29SAPC   H2X 3851   6.705   0.656   7.068 -0.0938  0.7255  3.1365
   29SAPC   H2Y 3852   6.561   0.641   6.980  1.7492 -1.7984  0.7794
   29SAPC   C23 3853   7.065   1.087   6.862 -1.2193  0.8899  1.2411
   29SAPC   H3R 3854   7.049   1.193   6.830  1.0985  0.6890 -0.8814
   29SAPC   H3S 3855   7.174   1.093   6.882 -0.8572  1.4483 -0.7126
   29SAPC   C24 3856   6.987   1.049   6.986 -0.2106 -0.0126 -0.1017
   29SAPC   H4R 3857   6.880   1.046   6.957  0.0646 -1.5632 -1.0492
   29SAPC   H4S 3858   7.005   1.134   7.056 -2.7935  0.0995  0.5262
   29SAPC   C25 3859   7.024   0.919   7.056 -0.1577  0.2292 -0.3337
   29SAPC   H5R 3860   7.060   0.839   6.989 -0.1139 -2.0457  2.2494
   29SAPC   C26 3861   7.040   0.895   7.192 -0.9644  0.5718 -0.3741
   29SAPC   H6R 3862   7.090   0.800   7.218  0.9056  1.9213  1.2200
   29SAPC   C27 3863   7.016   0.985   7.315  0.2130  0.4199  0.8275
   29SAPC   H7R 3864   7.067   1.083   7.305  1.2951 -0.1311  0.7991
   29SAPC   H7S 3865   7.060   0.941   7.407 -0.2919  0.5018  1.1084
   29SAPC   C28 3866   6.867   1.013   7.332 -0.2829 -0.1444  0.3943
   29SAPC   H8R 3867   6.808   1.013   7.239 -2.6778  1.5445  1.8191
   29SAPC   C29 3868   6.811   1.030   7.453 -0.1333 -0.5408 -0.6360
   29SAPC   H9R 3869   6.702   1.048   7.455  0.4058  3.4903  0.8222
   29SAPC  C210 3870   6.866   1.023   7.593  0.7796 -0.2577  0.2854
   29SAPC  H10R 3871   6.800   1.084   7.659  1.3348 -0.0816  0.6883
   29SAPC  H10S 3872   6.967   1.068   7.585  0.0622  1.6318  1.2149
   29SAPC  C211 3873   6.867   0.883   7.649  0.2256 -1.0313 -0.2459
   29SAPC  H11R 3874   6.863   0.796   7.582 -1.4669 -1.6009  0.5550
   29SAPC  C212 3875   6.894   0.851   7.780 -0.4800 -0.0798 -0.2221
   29SAPC  H12R 3876   6.887   0.744   7.803  1.2482 -0.8218 -2.6844
   29SAPC  C213 3877   6.923   0.929   7.902  0.3244 -0.2845 -0.0673
   29SAPC  H13R 3878   6.905   1.037   7.883  1.6936  0.4457  2.2583
   29SAPC  H13S 3879   7.032   0.923   7.926  0.3991 -1.2698 -0.6009
   29SAPC  C214 3880   6.829   0.897   8.010  0.1945 -0.0339  0.2098
   29SAPC  H14R 3881   6.726   0.914   7.975  0.1213  1.1445  0.9204
   29SAPC  C215 3882   6.858   0.854   8.131  0.3150 -0.0961  0.2054
   29SAPC  H15R 3883   6.776   0.826   8.199  0.4531  0.6227  0.6775
   29SAPC  C216 3884   6.998   0.827   8.187 -0.4165 -0.5177 -0.5584
   29SAPC  H16R 3885   7.056   0.785   8.101 -1.3176 -1.0142 -0.9329
   29SAPC  H16S 3886   6.994   0.751   8.268 -1.5939  0.1431  0.0277
   29SAPC  C217 3887   7.083   0.941   8.235  0.8158 -0.2164 -0.3057
   29SAPC  H17R 3888   7.078   1.022   8.159 -0.2213 -1.4548 -1.5876
   29SAPC  H17S 3889   7.193   0.925   8.239  1.0018  0.9279  3.5078
   29SAPC  C218 3890   7.041   1.010   8.367  0.2776  0.0617 -0.0381
   29SAPC  H18R 3891   7.050   0.932   8.445  0.1377 -0.2238 -0.3088
   29SAPC  H18S 3892   6.935   1.044   8.362  1.2680  3.6396 -0.0069
   29SAPC  C219 3893   7.123   1.136   8.402  0.2907  0.0688  0.1214
   29SAPC  H19R 3894   7.117   1.206   8.317  0.0697 -2.4919 -2.0887
   29SAPC  H19S 3895   7.232   1.121   8.422  0.3291  0.9241  0.6099
   29SAPC  C220 3896   7.067   1.203   8.523 -0.4400 -0.4297 -0.4700
   29SAPC  H20R 3897   7.135   1.289   8.542  2.1963 -2.6090  0.6537
   29SAPC  H20S 3898   7.062   1.132   8.608 -0.8645 -1.0734 -1.0161
   29SAPC  H20T 3899   6.967   1.242   8.496 -1.4229 -0.5061  2.7097
   29SAPC   C33 3900   6.526   0.746   7.164 -0.6263 -0.1530 -0.0031
   29SAPC   H3X 3901   6.427   0.762   7.117  0.3584  1.2346 -1.7261
   29SAPC   H3Y 3902   6.571   0.838   7.206 -2.6780  1.0952 -0.3948
   29SAPC   C34 3903   6.523   0.626   7.267  0.3911 -0.4639  0.0512
   29SAPC   H4X 3904   6.630   0.602   7.284 -0.5042 -4.5049  1.0579
   29SAPC   H4Y 3905   6.468   0.547   7.211  2.1495 -0.1307 -2.2765
   29SAPC   C35 3906   6.441   0.662   7.396 -0.3285 -0.6632 -0.2986
   29SAPC   H5X 3907   6.439   0.564   7.447  0.2761 -0.5976 -0.1350
   29SAPC   H5Y 3908   6.341   0.702   7.371  0.4942  2.7013  1.1746
   29SAPC   C36 3909   6.529   0.748   7.480  0.1306  0.3655  0.0098
   29SAPC   H6X 3910   6.567   0.828   7.413 -0.5328  0.0399 -0.7702
   29SAPC   H6Y 3911   6.609   0.685   7.524  0.5673  0.1627 -1.0532
   29SAPC   C37 3912   6.455   0.824   7.592  0.2511 -0.5488  0.3718
   29SAPC   H7X 3913   6.370   0.872   7.539  1.3999  0.6066 -0.4848
   29SAPC   H7Y 3914   6.525   0.894   7.641  1.2532 -1.2906  0.0282
   29SAPC   C38 3915   6.414   0.735   7.709  0.3928  0.0617 -0.2602
   29SAPC   H8X 3916   6.362   0.642   7.678 -0.2617  0.1216  0.6082
   29SAPC   H8Y 3917   6.332   0.788   7.761  0.8438 -0.5255  1.1068
   29SAPC   C39 3918   6.524   0.686   7.812  0.9782  0.0480  0.0851
   29SAPC   H9X 3919   6.552   0.773   7.875  0.4931  1.1375 -1.1615
   29SAPC   H9Y 3920   6.619   0.669   7.758  0.5853  2.2056 -1.4156
   29SAPC  C310 3921   6.472   0.571   7.903 -0.7150  0.9570 -0.2607
   29SAPC  H10X 3922   6.566   0.554   7.960  0.1512 -1.4432 -2.2157
   29SAPC  H10Y 3923   6.455   0.474   7.851  1.6707  0.1771  0.2947
   29SAPC  C311 3924   6.350   0.610   7.993 -0.7428  0.6669 -0.1731
   29SAPC  H11X 3925   6.261   0.614   7.926 -1.8686  1.4140  1.2942
   29SAPC  H11Y 3926   6.371   0.706   8.045 -0.1451  0.9043 -0.8355
   29SAPC  C312 3927   6.314   0.494   8.092 -0.1085 -0.1227  0.2131
   29SAPC  H12X 3928   6.409   0.449   8.127  0.1562  0.0463 -0.2594
   29SAPC  H12Y 3929   6.268   0.413   8.033  0.5640  0.5714 -1.3352
   29SAPC  C313 3930   6.230   0.532   8.215 -0.0705  0.8550  0.0360
   29SAPC  H13X 3931   6.135   0.567   8.168 -0.6059 -1.4258 -0.7388
   29SAPC  H13Y 3932   6.281   0.610   8.275  2.1550  1.0480 -1.9277
   29SAPC  C314 3933   6.187   0.413   8.303  0.2264  0.4306  0.0388
   29SAPC  H14X 3934   6.280   0.358   8.331  1.1010  1.0082 -1.6097
   29SAPC  H14Y 3935   6.125   0.346   8.239  0.2270 -0.0439  0.5229
   29SAPC  C315 3936   6.104   0.455   8.420  0.0809  0.5177 -0.2173
   29SAPC  H15X 3937   5.998   0.470   8.389 -0.4603 -1.4255  0.5485
   29SAPC  H15Y 3938   6.135   0.553   8.462 -0.1946  0.4790  0.0811
   29SAPC  C316 3939   6.115   0.359   8.546 -0.2064  0.7519  0.6834
   29SAPC  H16X 3940   6.049   0.405   8.623  0.0014  1.7219  0.2944
   29SAPC  H16Y 3941   6.217   0.365   8.589 -0.5702  6.0801  1.4880
   29SAPC  C317 3942   6.060   0.217   8.520  0.0121 -0.4650 -0.4955
   29SAPC  H17X 3943   6.070   0.155   8.611 -0.8163  0.5557  0.3119
   29SAPC  H17Y 3944   6.124   0.171   8.441  0.9266 -0.1241  0.0335
   29SAPC  C318 3945   5.908   0.209   8.479  0.3569 -0.0750 -0.0783
   29SAPC  H18X 3946   5.883   0.101   8.470  2.3274 -0.6416  0.5796
   29SAPC  H18Y 3947   5.890   0.265   8.386  0.1299 -0.0236 -0.0019
   29SAPC  H18Z 3948   5.840   0.244   8.559  0.7490 -0.9854  0.6881
   30SAPC     N 3949   1.240   0.899   5.941 -0.1088  0.1876  0.4485
   30SAPC   C12 3950   1.363   0.901   6.033  0.9129 -0.2031 -0.2749
   30SAPC  H12A 3951   1.431   0.979   6.002  1.7114 -1.7109 -2.5339
   30SAPC  H12B 3952   1.407   0.804   6.018  1.5224  0.0255  0.0064
   30SAPC   C13 3953   1.151   1.006   5.984  0.0523  0.5215  0.4586
   30SAPC  H13A 3954   1.064   1.016   5.920  1.7696  1.6921 -1.8419
   30SAPC  H13B 3955   1.128   0.984   6.087 -0.5090 -2.2257 -0.1649
   30SAPC  H13C 3956   1.206   1.099   5.992 -0.9730  1.1249  0.7053
   30SAPC   C14 3957   1.291   0.928   5.800 -0.1573  0.5407  0.0692
   30SAPC  H14A 3958   1.213   0.937   5.726  0.9418 -2.1727 -1.5704
   30SAPC  H14B 3959   1.338   1.025   5.803 -0.0036  0.4412  2.1899
   30SAPC  H14C 3960   1.363   0.850   5.780  0.6857  0.6219  2.5380
   30SAPC   C15 3961   1.160   0.774   5.956  0.0919 -0.1197  0.6771
   30SAPC  H15A 3962   1.219   0.685   5.939  0.2798 -0.4574  2.7871
   30SAPC  H15B 3963   1.097   0.768   6.044 -3.8423 -1.2577 -1.9562
   30SAPC  H15C 3964   1.093   0.780   5.871  1.0040  1.1655  0.0098
   30SAPC   C11 3965   1.323   0.901   6.192  0.3306  0.2916  0.3408
   30SAPC  H11A 3966   1.244   0.976   6.214  2.8485  4.2406 -2.7170
   30SAPC  H11B 3967   1.402   0.946   6.256  0.1932  0.5143  0.3547
   30SAPC     P 3968   1.372   0.645   6.223 -0.6723 -0.4613  0.2331
   30SAPC   O13 3969   1.297   0.535   6.278 -0.6169  0.6047  0.8543
   30SAPC   O14 3970   1.436   0.616   6.094  0.3320 -0.4595 -0.0232
   30SAPC   O12 3971   1.276   0.772   6.223 -0.0527 -0.0042  0.0922
   30SAPC   O11 3972   1.490   0.688   6.326 -0.0794  0.0006 -0.2220
   30SAPC    C1 3973   1.472   0.700   6.466  0.0441  0.0042 -0.1902
   30SAPC    HA 3974   1.392   0.635   6.507  0.4676 -0.3132  0.1505
   30SAPC    HB 3975   1.565   0.661   6.514 -1.2728 -1.0562  1.5967
   30SAPC    C2 3976   1.455   0.842   6.520  0.1942 -0.0488  0.4918
   30SAPC    HS 3977   1.363   0.884   6.474  0.4110 -0.1981 -0.0976
   30SAPC   O21 3978   1.569   0.918   6.469  0.5080  0.0058  0.1788
   30SAPC   C21 3979   1.545   1.051   6.468  0.8462  0.8014 -0.4643
   30SAPC   O22 3980   1.447   1.107   6.507 -0.1224 -0.1114  0.5790
   30SAPC   C22 3981   1.666   1.116   6.416 -0.6686 -0.5654 -0.2932
   30SAPC   H2R 3982   1.690   1.065   6.320 -0.3782 -2.0980  0.5518
   30SAPC   H2S 3983   1.644   1.222   6.394  1.5455 -0.2959 -1.4644
   30SAPC    C3 3984   1.450   0.845   6.672  0.1248  0.5568  0.6576
   30SAPC    HX 3985   1.406   0.943   6.702  0.2027 -0.0129  2.8439
   30SAPC    HY 3986   1.558   0.833   6.695  0.4879  1.8901 -0.2354
   30SAPC   O31 3987   1.378   0.731   6.728  0.0270 -1.2113  0.4514
   30SAPC   C31 3988   1.252   0.751   6.748  0.0192 -0.5549  0.1157
   30SAPC   O32 3989   1.187   0.854   6.719  0.4116  0.0936 -0.4379
   30SAPC   C32 3990   1.192   0.628   6.821 -0.2034 -0.7876 -0.3978
   30SAPC   H2X 3991   1.264   0.558   6.869 -1.2446 -2.1476 -0.7468
   30SAPC   H2Y 3992   1.133   0.567   6.749  1.7671 -1.9310 -1.1418
   30SAPC   C23 3993   1.785   1.108   6.512 -0.2113  0.5597  0.2592
   30SAPC   H3R 3994   1.878   1.141   6.461  0.9036 -0.5108  1.5113
   30SAPC   H3S 3995   1.802   0.999   6.530  3.0664  0.8898 -0.2019
   30SAPC   C24 3996   1.770   1.182   6.638 -0.2435 -0.3731 -0.3572
   30SAPC   H4R 3997   1.680   1.147   6.694 -0.5109  1.0902  0.1668
   30SAPC   H4S 3998   1.763   1.290   6.616  1.4080 -0.1565  0.0590
   30SAPC   C25 3999   1.890   1.163   6.726 -0.4812  0.0151  0.1168
   30SAPC   H5R 4000   1.988   1.198   6.688  0.3998 -1.8857  0.5089
   30SAPC   C26 4001   1.895   1.101   6.847 -0.9521  0.1280 -0.0085
   30SAPC   H6R 4002   1.993   1.091   6.895 -0.9799  1.8435  0.4816
   30SAPC   C27 4003   1.784   1.045   6.923 -0.0436  0.1293  0.0608
   30SAPC   H7R 4004   1.775   0.936   6.901 -2.4335  0.2052  0.4250
   30SAPC   H7S 4005   1.684   1.088   6.900  0.7296  1.9949  0.0669
   30SAPC   C28 4006   1.807   1.043   7.067 -0.4639 -0.7260 -0.7953
   30SAPC   H8R 4007   1.890   0.976   7.093 -0.4907 -0.0222  1.3408
   30SAPC   C29 4008   1.756   1.137   7.154  0.0744 -0.3064  0.7994
   30SAPC   H9R 4009   1.780   1.128   7.261 -0.7470  1.7908  1.2067
   30SAPC  C210 4010   1.649   1.239   7.131 -0.3977  0.4385 -1.0635
   30SAPC  H10R 4011   1.631   1.254   7.023  0.2171 -1.0919 -1.3969
   30SAPC  H10S 4012   1.692   1.332   7.176  1.0042 -0.3763 -0.6439
   30SAPC  C211 4013   1.522   1.203   7.199  0.0119 -0.2231  0.5082
   30SAPC  H11R 4014   1.446   1.147   7.141 -0.6381  0.7987  0.3414
   30SAPC  C212 4015   1.477   1.250   7.315 -0.1989 -0.3383  0.4083
   30SAPC  H12R 4016   1.377   1.217   7.348 -0.1655  0.5324  1.4323
   30SAPC  C213 4017   1.543   1.349   7.410 -0.1638  0.4605  0.5698
   30SAPC  H13R 4018   1.458   1.396   7.464  0.4769  0.2996  1.7516
   30SAPC  H13S 4019   1.581   1.433   7.348 -3.1171 -0.5204 -2.8625
   30SAPC  C214 4020   1.635   1.281   7.509 -0.0366  0.7541  0.1006
   30SAPC  H14R 4021   1.692   1.194   7.472  1.2086  1.0397  1.2700
   30SAPC  C215 4022   1.652   1.317   7.632 -0.4122 -0.8769 -0.9077
   30SAPC  H15R 4023   1.736   1.270   7.687 -0.9338  0.2371  0.9278
   30SAPC  C216 4024   1.588   1.426   7.719  0.3939  0.6333  0.2363
   30SAPC  H16R 4025   1.506   1.475   7.662  0.0791 -0.9612 -0.7706
   30SAPC  H16S 4026   1.665   1.504   7.736  1.4212 -0.7987  2.7926
   30SAPC  C217 4027   1.533   1.369   7.848 -0.0891  0.5854 -0.5555
   30SAPC  H17R 4028   1.626   1.334   7.898  0.1480 -0.0004 -1.3837
   30SAPC  H17S 4029   1.460   1.289   7.826  0.6589 -0.2001 -0.2261
   30SAPC  C218 4030   1.475   1.483   7.943  0.1435 -0.4553  0.2257
   30SAPC  H18R 4031   1.382   1.526   7.899  0.8721  3.9555  2.3603
   30SAPC  H18S 4032   1.541   1.572   7.948 -0.3306 -0.1032  0.3578
   30SAPC  C219 4033   1.439   1.430   8.084 -0.6169  0.0694 -0.0009
   30SAPC  H19R 4034   1.530   1.410   8.145 -0.0486  0.6992 -0.6168
   30SAPC  H19S 4035   1.390   1.333   8.065  0.2930  0.0311 -2.4909
   30SAPC  C220 4036   1.345   1.529   8.160 -0.8007  0.2617  0.2554
   30SAPC  H20R 4037   1.313   1.493   8.260 -0.3285  1.9911  1.0721
   30SAPC  H20S 4038   1.262   1.560   8.093 -2.0917  2.5332  2.7316
   30SAPC  H20T 4039   1.395   1.626   8.180  2.1800 -1.3663  1.3933
   30SAPC   C33 4040   1.110   0.682   6.939  0.1191 -0.5926  0.2723
   30SAPC   H3X 4041   1.057   0.597   6.987 -1.0680  0.0468  0.1416
   30SAPC   H3Y 4042   1.017   0.733   6.906  0.1303  0.1685  1.3624
   30SAPC   C34 4043   1.192   0.766   7.043  0.5631  0.3065  0.2197
   30SAPC   H4X 4044   1.213   0.872   7.018 -0.7135  0.5294  0.0462
   30SAPC   H4Y 4045   1.289   0.712   7.048  0.3898 -0.0962 -0.6226
   30SAPC   C35 4046   1.125   0.757   7.181  0.4847  0.4627  0.2670
   30SAPC   H5X 4047   1.090   0.658   7.216  1.6460 -1.3583 -3.2262
   30SAPC   H5Y 4048   1.036   0.823   7.168 -0.6112 -0.8674  0.7284
   30SAPC   C36 4049   1.220   0.806   7.290  0.2000 -0.1112  0.2983
   30SAPC   H6X 4050   1.277   0.896   7.259  0.9323 -0.0564  1.7159
   30SAPC   H6Y 4051   1.297   0.729   7.313  0.9213  1.0774  2.0520
   30SAPC   C37 4052   1.154   0.830   7.426 -0.0816 -0.0468 -0.2824
   30SAPC   H7X 4053   1.100   0.740   7.462 -0.2860 -0.1183 -0.7596
   30SAPC   H7Y 4054   1.070   0.899   7.406  0.5784  0.5365 -1.1526
   30SAPC   C38 4055   1.250   0.897   7.524  1.1509  0.4202  0.8392
   30SAPC   H8X 4056   1.274   0.999   7.488  1.0162  0.3132  0.4432
   30SAPC   H8Y 4057   1.348   0.846   7.517  1.1482 -0.1167  3.6865
   30SAPC   C39 4058   1.190   0.902   7.668 -0.6341 -0.6056 -0.4164
   30SAPC   H9X 4059   1.162   0.803   7.709  1.1124 -1.2084 -0.5968
   30SAPC   H9Y 4060   1.101   0.969   7.667 -0.2786 -0.0743  0.9877
   30SAPC  C310 4061   1.279   0.973   7.769 -0.0947 -0.6173 -0.1368
   30SAPC  H10X 4062   1.289   1.083   7.755 -3.0077 -0.4464 -1.4879
   30SAPC  H10Y 4063   1.384   0.939   7.756  1.3175  3.0176  0.3942
   30SAPC  C311 4064   1.242   0.952   7.922  0.7132 -0.5658  0.2062
   30SAPC  H11X 4065   1.259   0.846   7.952  1.4043 -0.0481  1.7963
   30SAPC  H11Y 4066   1.138   0.986   7.942  1.4506  1.7562  0.3862
   30SAPC  C312 4067   1.335   1.039   8.007 -0.4243  0.3084  0.4111
   30SAPC  H12X 4068   1.356   1.143   7.973  1.0375 -0.1605 -0.1893
   30SAPC  H12Y 4069   1.435   0.993   7.996 -1.1909 -1.6756  1.3002
   30SAPC  C313 4070   1.299   1.031   8.152 -0.1321  0.0819 -0.1446
   30SAPC  H13X 4071   1.267   0.931   8.189  0.4267  0.1624  0.5876
   30SAPC  H13Y 4072   1.208   1.094   8.157 -0.4345 -0.4439  3.2225
   30SAPC  C314 4073   1.396   1.091   8.253  0.2424  0.9959 -0.1750
   30SAPC  H14X 4074   1.390   1.201   8.246 -3.0337  1.0598  1.6675
   30SAPC  H14Y 4075   1.488   1.044   8.212 -1.1395 -1.3252 -0.8206
   30SAPC  C315 4076   1.373   1.034   8.400 -0.0644 -0.5346 -0.6171
   30SAPC  H15X 4077   1.472   1.045   8.450 -0.5313  2.2331 -0.1276
   30SAPC  H15Y 4078   1.338   0.929   8.401 -0.7614 -0.3045 -0.4084
   30SAPC  C316 4079   1.261   1.107   8.490 -0.0078  0.3572  0.3643
   30SAPC  H16X 4080   1.162   1.102   8.439  0.2852  1.7080 -0.3799
   30SAPC  H16Y 4081   1.298   1.211   8.490 -2.0080  1.1197  0.9201
   30SAPC  C317 4082   1.257   1.057   8.634  0.9253 -0.0764  0.2318
   30SAPC  H17X 4083   1.171   1.101   8.689  0.7029 -0.5513  0.2663
   30SAPC  H17Y 4084   1.355   1.091   8.674  0.6829 -0.1700  0.9225
   30SAPC  C318 4085   1.258   0.911   8.652  0.0179  0.3459 -0.3420
   30SAPC  H18X 4086   1.358   0.875   8.619  0.7819  0.9531  1.2355
   30SAPC  H18Y 4087   1.172   0.862   8.602  0.2400  0.0819 -0.4732
   30SAPC  H18Z 4088   1.265   0.870   8.755  1.2544  0.0787 -0.5103
   31SAPC     N 4089   2.551   1.805   5.995  0.0950  0.5554  0.6438
   31SAPC   C12 4090   2.551   1.866   6.133 -0.1646 -0.7122 -0.2748
   31SAPC  H12A 4091   2.499   1.961   6.136  1.0357 -0.0638  2.3741
   31SAPC  H12B 4092   2.653   1.889   6.161 -0.3440 -0.1925 -0.0341
   31SAPC   C13 4093   2.574   1.909   5.886  0.3695  0.6901  0.4419
   31SAPC  H13A 4094   2.555   1.890   5.782  1.5676 -1.7368  0.5802
   31SAPC  H13B 4095   2.513   1.993   5.916  1.9468  1.8391  0.5986
   31SAPC  H13C 4096   2.674   1.949   5.895 -0.1782  1.7261  2.8367
   31SAPC   C14 4097   2.667   1.713   5.981 -0.3058 -1.0151  0.7194
   31SAPC  H14A 4098   2.676   1.672   5.881 -1.6856  0.6447 -0.1443
   31SAPC  H14B 4099   2.764   1.755   6.002  0.5287 -2.2060 -0.5315
   31SAPC  H14C 4100   2.650   1.626   6.042  0.1242 -2.6996 -1.4390
   31SAPC   C15 4101   2.428   1.727   5.963 -0.4083 -0.0713  0.0147
   31SAPC  H15A 4102   2.432   1.678   5.867  2.8782  1.1833 -0.6207
   31SAPC  H15B 4103   2.416   1.646   6.033 -0.8408 -0.3237 -0.3439
   31SAPC  H15C 4104   2.342   1.793   5.972  1.1077  2.5639 -2.5890
   31SAPC   C11 4105   2.499   1.787   6.252 -0.3996  0.2405 -0.4689
   31SAPC  H11A 4106   2.400   1.738   6.236 -0.2643  0.2617 -1.4004
   31SAPC  H11B 4107   2.471   1.862   6.329  0.3259  0.3492 -0.3119
   31SAPC     P 4108   2.704   1.721   6.400  0.1370 -0.1224  0.5055
   31SAPC   O13 4109   2.824   1.650   6.372 -0.4281 -0.1219 -0.2522
   31SAPC   O14 4110   2.718   1.864   6.424 -0.1810 -0.2339 -0.9634
   31SAPC   O12 4111   2.592   1.689   6.291  0.0561  0.3093 -0.2368
   31SAPC   O11 4112   2.634   1.663   6.527  0.5487  0.6532  0.2570
   31SAPC    C1 4113   2.672   1.532   6.573  0.2854 -0.4435 -0.2293
   31SAPC    HA 4114   2.617   1.448   6.525 -0.9807  1.3243 -2.0154
   31SAPC    HB 4115   2.781   1.515   6.584  0.8352  3.4002  2.2010
   31SAPC    C2 4116   2.631   1.518   6.723  0.0553  0.3667  0.4088
   31SAPC    HS 4117   2.520   1.509   6.731 -0.0155  0.3691 -0.4812
   31SAPC   O21 4118   2.686   1.629   6.801  0.0442  0.2858  0.4594
   31SAPC   C21 4119   2.602   1.725   6.832 -0.6047  0.4757  0.0936
   31SAPC   O22 4120   2.484   1.718   6.794 -0.3406  0.0298 -0.6223
   31SAPC   C22 4121   2.680   1.826   6.919 -0.0251  0.5535  0.2496
   31SAPC   H2R 4122   2.755   1.775   6.985  0.0345  1.2743  0.7520
   31SAPC   H2S 4123   2.742   1.893   6.855  0.3926  0.8449  0.9384
   31SAPC    C3 4124   2.685   1.381   6.778  0.6024  0.2777  0.2698
   31SAPC    HX 4125   2.795   1.388   6.763  0.3361  1.9392 -1.2764
   31SAPC    HY 4126   2.653   1.295   6.715  2.1252 -1.1893  1.3969
   31SAPC   O31 4127   2.654   1.357   6.910  0.2989 -0.4376 -0.2926
   31SAPC   C31 4128   2.532   1.308   6.932  0.5068 -0.1378  0.4099
   31SAPC   O32 4129   2.449   1.290   6.843  0.0457  0.2826 -0.0887
   31SAPC   C32 4130   2.522   1.256   7.070  0.3789 -0.4255 -0.7838
   31SAPC   H2X 4131   2.517   1.145   7.061  1.5315 -0.4062 -1.8710
   31SAPC   H2Y 4132   2.426   1.295   7.112  1.3653  0.3289  0.8861
   31SAPC   C23 4133   2.590   1.909   7.016 -0.1952  0.6976 -0.0013
   31SAPC   H3R 4134   2.489   1.864   7.024  0.7290 -1.2740  1.6442
   31SAPC   H3S 4135   2.576   2.013   6.980  0.2680  1.1146  0.9933
   31SAPC   C24 4136   2.644   1.920   7.156  0.2701  0.2014 -0.1471
   31SAPC   H4R 4137   2.593   2.008   7.200 -0.4676  0.8700 -2.2171
   31SAPC   H4S 4138   2.754   1.939   7.156  0.1808  0.8760  1.1483
   31SAPC   C25 4139   2.634   1.805   7.251  0.0451  0.3039 -0.0657
   31SAPC   H5R 4140   2.620   1.712   7.192  1.9351  0.6449 -1.1168
   31SAPC   C26 4141   2.654   1.804   7.386  0.1033 -0.3912 -0.2731
   31SAPC   H6R 4142   2.641   1.704   7.428 -1.3602 -1.4668 -3.0203
   31SAPC   C27 4143   2.692   1.910   7.486 -0.1856  0.1235 -0.4267
   31SAPC   H7R 4144   2.730   1.996   7.427 -4.2278  1.8889 -0.7968
   31SAPC   H7S 4145   2.784   1.886   7.543 -1.5975 -1.7167  1.1743
   31SAPC   C28 4146   2.587   1.940   7.587  0.8359  0.3729  0.4766
   31SAPC   H8R 4147   2.516   2.011   7.543 -0.4678 -2.2127 -1.8950
   31SAPC   C29 4148   2.579   1.878   7.711 -0.9515  0.2917  0.9191
   31SAPC   H9R 4149   2.488   1.884   7.772 -0.8525 -0.6490  1.1817
   31SAPC  C210 4150   2.685   1.783   7.761 -0.0049  0.5437  0.2515
   31SAPC  H10R 4151   2.717   1.810   7.864  2.0641  0.3799 -0.3212
   31SAPC  H10S 4152   2.783   1.790   7.711  0.6277 -0.4333  1.2958
   31SAPC  C211 4153   2.652   1.638   7.758  0.1753  0.2653  0.3228
   31SAPC  H11R 4154   2.678   1.593   7.661  1.9733 -1.0099  1.3317
   31SAPC  C212 4155   2.598   1.564   7.855  0.3490  0.7064 -0.7018
   31SAPC  H12R 4156   2.580   1.459   7.831  0.9200  0.6675 -0.9650
   31SAPC  C213 4157   2.545   1.611   7.984 -0.3978 -0.8469 -0.3207
   31SAPC  H13R 4158   2.463   1.680   7.955  0.9540 -0.1176 -2.6628
   31SAPC  H13S 4159   2.619   1.674   8.037 -2.7775  1.6029  0.3050
   31SAPC  C214 4160   2.487   1.507   8.079 -0.1085  0.5614  0.0080
   31SAPC  H14R 4161   2.545   1.414   8.085 -1.5353 -0.3211  0.4745
   31SAPC  C215 4162   2.373   1.509   8.150 -0.2669 -0.3494 -0.1538
   31SAPC  H15R 4163   2.341   1.425   8.213  0.6075 -1.4292 -1.1114
   31SAPC  C216 4164   2.279   1.632   8.140 -0.6251  0.2134  0.9930
   31SAPC  H16R 4165   2.185   1.596   8.092  0.7936 -0.7765 -1.2083
   31SAPC  H16S 4166   2.320   1.713   8.076 -1.4237 -1.0894 -1.2982
   31SAPC  C217 4167   2.253   1.704   8.268 -0.3030 -0.7330  0.4523
   31SAPC  H17R 4168   2.195   1.796   8.247  1.3736  0.2603 -0.0004
   31SAPC  H17S 4169   2.352   1.735   8.307 -0.6399  2.8489 -1.1471
   31SAPC  C218 4170   2.187   1.614   8.372 -0.4474  0.0900 -0.1014
   31SAPC  H18R 4171   2.241   1.517   8.369 -1.2112 -0.7085  4.3385
   31SAPC  H18S 4172   2.082   1.604   8.337  0.1290  1.8989 -2.6143
   31SAPC  C219 4173   2.201   1.676   8.520  0.2445  0.0359 -0.3797
   31SAPC  H19R 4174   2.147   1.773   8.518 -0.3749 -0.3127 -1.2136
   31SAPC  H19S 4175   2.308   1.704   8.537  0.2741  0.5281 -1.2911
   31SAPC  C220 4176   2.140   1.590   8.631 -0.2607 -0.4191  0.0310
   31SAPC  H20R 4177   2.036   1.559   8.609  0.0024  0.2765 -2.5579
   31SAPC  H20S 4178   2.126   1.653   8.722 -1.0709  0.0486 -0.4039
   31SAPC  H20T 4179   2.193   1.496   8.654 -1.5394 -1.2445 -0.3221
   31SAPC   C33 4180   2.639   1.277   7.162 -0.6873  0.9156 -0.7242
   31SAPC   H3X 4181   2.693   1.370   7.138  1.1512 -0.0709 -0.5627
   31SAPC   H3Y 4182   2.713   1.203   7.124 -1.2662 -1.0103  1.6698
   31SAPC   C34 4183   2.624   1.263   7.313  0.1797 -0.0804 -0.3622
   31SAPC   H4X 4184   2.724   1.267   7.361 -0.2606  1.1170  0.5428
   31SAPC   H4Y 4185   2.581   1.162   7.331 -1.8452  1.0980  2.1111
   31SAPC   C35 4186   2.535   1.373   7.374 -0.5212  0.1305 -0.1140
   31SAPC   H5X 4187   2.440   1.371   7.317 -0.5079 -3.0227 -0.2501
   31SAPC   H5Y 4188   2.587   1.470   7.362 -0.8606  0.7833  2.9384
   31SAPC   C36 4189   2.509   1.352   7.522  0.2553  0.9886  0.2915
   31SAPC   H6X 4190   2.463   1.442   7.569  0.2378  1.2158 -0.1488
   31SAPC   H6Y 4191   2.613   1.347   7.559 -0.2420  0.7425  1.6979
   31SAPC   C37 4192   2.433   1.222   7.544 -0.0327 -0.6545  0.6810
   31SAPC   H7X 4193   2.495   1.129   7.545 -0.3116 -1.0122 -3.0544
   31SAPC   H7Y 4194   2.369   1.202   7.456 -0.5318  1.2141  0.5935
   31SAPC   C38 4195   2.344   1.223   7.672 -0.2310 -0.5349 -0.4502
   31SAPC   H8X 4196   2.267   1.147   7.646 -1.7430  0.8160 -0.0899
   31SAPC   H8Y 4197   2.288   1.315   7.697  2.7136  0.8963  1.4989
   31SAPC   C39 4198   2.406   1.173   7.806 -0.9343  0.4009 -0.2142
   31SAPC   H9X 4199   2.491   1.231   7.849 -1.2812  0.7254  0.0388
   31SAPC   H9Y 4200   2.445   1.070   7.788 -1.8066  0.3706 -2.2596
   31SAPC  C310 4201   2.302   1.158   7.915  0.3625 -0.1373  0.6003
   31SAPC  H10X 4202   2.227   1.087   7.874  1.6709 -1.2638  0.0881
   31SAPC  H10Y 4203   2.243   1.251   7.904  0.8390 -0.0912 -2.4574
   31SAPC  C311 4204   2.345   1.122   8.060  0.1548 -0.8642  0.5104
   31SAPC  H11X 4205   2.404   1.204   8.108  0.0164 -0.8470  0.6519
   31SAPC  H11Y 4206   2.412   1.034   8.050 -0.2659 -1.1787  0.4272
   31SAPC  C312 4207   2.229   1.082   8.149  0.7191 -0.7798 -0.4518
   31SAPC  H12X 4208   2.187   0.985   8.113 -0.4184 -0.7546  0.7415
   31SAPC  H12Y 4209   2.150   1.160   8.145  1.1082 -0.3723 -0.2303
   31SAPC  C313 4210   2.273   1.067   8.291  0.2161  0.2114 -0.7077
   31SAPC  H13X 4211   2.280   1.161   8.350 -0.9020 -0.6281  0.8733
   31SAPC  H13Y 4212   2.367   1.008   8.293 -0.2066 -0.4586 -0.3531
   31SAPC  C314 4213   2.168   0.986   8.370 -0.0101  0.9680 -0.0138
   31SAPC  H14X 4214   2.175   0.878   8.344  0.9848  0.5693  1.7174
   31SAPC  H14Y 4215   2.073   1.024   8.327  0.2168  0.1722 -1.2449
   31SAPC  C315 4216   2.175   0.999   8.522 -0.0262 -0.1984 -1.4048
   31SAPC  H15X 4217   2.277   1.041   8.537 -0.3344  0.5993 -1.4876
   31SAPC  H15Y 4218   2.166   0.901   8.573  0.1754 -0.6458 -2.2090
   31SAPC  C316 4219   2.058   1.087   8.568  0.2563 -0.3045 -0.2189
   31SAPC  H16X 4220   1.961   1.034   8.578  0.4297 -0.4294  0.8637
   31SAPC  H16Y 4221   2.041   1.166   8.491  1.0069  0.5733  0.4888
   31SAPC  C317 4222   2.081   1.145   8.704  0.3420  0.1485 -0.3652
   31SAPC  H17X 4223   2.084   1.066   8.782 -0.6929  1.0902  0.6550
   31SAPC  H17Y 4224   1.994   1.205   8.738 -0.1356 -0.9562  0.4111
   31SAPC  C318 4225   2.204   1.235   8.715  0.7392 -0.2791 -0.0341
   31SAPC  H18X 4226   2.291   1.187   8.766 -0.0235 -0.8519  0.7571
   31SAPC  H18Y 4227   2.183   1.326   8.775 -0.3225 -1.0676  0.8570
   31SAPC  H18Z 4228   2.238   1.277   8.618  1.2907  0.3380  0.4174
   32SAPC     N 4229   1.773   3.577   5.930  0.1306 -0.0043 -0.2977
   32SAPC   C12 4230   1.748   3.513   6.066 -0.0912  0.2068 -0.4354
   32SAPC  H12A 4231   1.810   3.424   6.065 -1.3301 -0.7297  1.3114
   32SAPC  H12B 4232   1.647   3.475   6.068 -0.0765 -0.1709 -3.0645
   32SAPC   C13 4233   1.675   3.690   5.898 -0.6702 -0.3381 -0.4947
   32SAPC  H13A 4234   1.687   3.767   5.972  0.6938 -2.3655  1.5346
   32SAPC  H13B 4235   1.699   3.725   5.799 -1.2704  0.3815 -0.3893
   32SAPC  H13C 4236   1.576   3.647   5.898 -0.7680 -0.1150 -1.0110
   32SAPC   C14 4237   1.915   3.618   5.909 -0.7233  0.5223  0.0764
   32SAPC  H14A 4238   1.944   3.704   5.968  2.6031  0.5477 -1.4071
   32SAPC  H14B 4239   1.976   3.532   5.932 -0.1882  0.5883 -1.0404
   32SAPC  H14C 4240   1.935   3.645   5.807  1.7715 -1.8659 -0.1997
   32SAPC   C15 4241   1.744   3.470   5.833 -0.4565  0.2806  0.3799
   32SAPC  H15A 4242   1.813   3.387   5.821 -2.8674 -1.8522  0.4297
   32SAPC  H15B 4243   1.646   3.428   5.853 -1.0241  0.7845 -1.1849
   32SAPC  H15C 4244   1.744   3.511   5.733 -1.1514 -3.0822 -1.1617
   32SAPC   C11 4245   1.782   3.592   6.194  0.2424  0.0501  0.3778
   32SAPC  H11A 4246   1.893   3.603   6.197  0.4044 -1.5804  1.0968
   32SAPC  H11B 4247   1.749   3.539   6.286 -1.9835  1.0705  0.2314
   32SAPC     P 4248   1.618   3.771   6.276 -0.1114  0.0540 -0.0485
   32SAPC   O13 4249   1.575   3.907   6.235  0.3817 -0.5322 -0.1447
   32SAPC   O14 4250   1.514   3.662   6.288  0.1393  0.1617  0.4656
   32SAPC   O12 4251   1.731   3.722   6.186 -0.1522  0.2833 -0.0100
   32SAPC   O11 4252   1.694   3.787   6.415  0.4702  0.2697 -0.1953
   32SAPC    C1 4253   1.791   3.891   6.437  0.0885  0.7057 -0.7760
   32SAPC    HA 4254   1.895   3.851   6.439  0.3334  0.8860 -4.1909
   32SAPC    HB 4255   1.800   3.967   6.357 -1.0833  2.2219  0.4590
   32SAPC    C2 4256   1.761   3.977   6.562  0.0853  0.3293 -0.4000
   32SAPC    HS 4257   1.848   4.045   6.574 -0.0970  1.1114 -2.9492
   32SAPC   O21 4258   1.739   3.886   6.668  0.2129  0.1599  0.5825
   32SAPC   C21 4259   1.796   3.901   6.780 -0.4960  0.2272 -0.3649
   32SAPC   O22 4260   1.889   3.976   6.806  0.1789 -0.0674  0.2317
   32SAPC   C22 4261   1.724   3.814   6.887  0.5212  0.4116  0.4214
   32SAPC   H2R 4262   1.616   3.840   6.887  0.3072 -0.4583  0.7872
   32SAPC   H2S 4263   1.740   3.708   6.857  1.6883  0.4175  0.9884
   32SAPC    C3 4264   1.643   4.071   6.532  0.6821 -0.3728  0.2334
   32SAPC    HX 4265   1.557   4.007   6.505  0.1948  1.0211 -1.7167
   32SAPC    HY 4266   1.681   4.119   6.439 -0.8358  2.8131  1.1428
   32SAPC   O31 4267   1.619   4.163   6.644 -0.4715  0.2740  0.4807
   32SAPC   C31 4268   1.656   4.288   6.633 -0.5005  0.0656  0.1432
   32SAPC   O32 4269   1.682   4.343   6.530 -0.8328 -0.0103  0.3148
   32SAPC   C32 4270   1.644   4.349   6.770 -0.1787 -0.5353  0.8347
   32SAPC   H2X 4271   1.537   4.375   6.782 -1.0151 -1.6588 -2.8891
   32SAPC   H2Y 4272   1.709   4.439   6.776  0.6449 -1.0635  0.1170
   32SAPC   C23 4273   1.787   3.838   7.024 -0.5408  0.0391 -0.6615
   32SAPC   H3R 4274   1.776   3.942   7.062  1.1838 -0.6938  2.1539
   32SAPC   H3S 4275   1.896   3.832   7.005 -0.4083  2.7411 -1.2210
   32SAPC   C24 4276   1.753   3.735   7.136 -0.2686  0.5592 -0.1740
   32SAPC   H4R 4277   1.823   3.766   7.217  0.7722  1.7943 -1.4966
   32SAPC   H4S 4278   1.771   3.630   7.106  0.0363  0.6073 -0.1591
   32SAPC   C25 4279   1.613   3.749   7.181  0.0219 -0.2543 -0.5949
   32SAPC   H5R 4280   1.534   3.711   7.115  0.0934 -0.3792 -0.6093
   32SAPC   C26 4281   1.582   3.809   7.300 -0.1188  0.4117  0.3597
   32SAPC   H6R 4282   1.478   3.823   7.332  0.4308  1.4083  1.8525
   32SAPC   C27 4283   1.664   3.863   7.409 -0.0584  0.2114  0.5441
   32SAPC   H7R 4284   1.592   3.920   7.471  0.1557  0.0063  0.9848
   32SAPC   H7S 4285   1.738   3.939   7.375 -0.6934 -0.2975 -2.2574
   32SAPC   C28 4286   1.738   3.763   7.484 -0.4628  0.4971 -0.6242
   32SAPC   H8R 4287   1.818   3.717   7.424 -1.5707 -2.3922 -0.0484
   32SAPC   C29 4288   1.722   3.718   7.609  0.0511 -0.5661  0.6767
   32SAPC   H9R 4289   1.803   3.652   7.642  1.1414  0.2822 -0.2275
   32SAPC  C210 4290   1.616   3.771   7.706  0.2161 -0.2601  0.1978
   32SAPC  H10R 4291   1.519   3.738   7.663  0.0316  0.0829  0.3530
   32SAPC  H10S 4292   1.610   3.882   7.700  0.5826 -0.0049  3.1729
   32SAPC  C211 4293   1.647   3.711   7.846  0.6604 -0.0973 -1.0315
   32SAPC  H11R 4294   1.626   3.603   7.842 -4.0440  0.5261  1.1652
   32SAPC  C212 4295   1.678   3.766   7.968  0.0602  0.1226  0.1557
   32SAPC  H12R 4296   1.720   3.703   8.047 -1.9077 -0.3763  0.8736
   32SAPC  C213 4297   1.683   3.916   7.982  0.1414  0.2607  0.0463
   32SAPC  H13R 4298   1.617   3.973   7.913 -0.4570 -0.9068 -0.3608
   32SAPC  H13S 4299   1.783   3.951   7.948 -0.8194  1.3012 -1.8851
   32SAPC  C214 4300   1.661   3.965   8.128 -0.1509  0.6284  0.3345
   32SAPC  H14R 4301   1.573   4.030   8.139 -0.1526  0.5504  0.8085
   32SAPC  C215 4302   1.747   3.951   8.231  0.1169  0.1820 -0.4501
   32SAPC  H15R 4303   1.719   3.980   8.333 -0.5584  1.5920 -1.0111
   32SAPC  C216 4304   1.881   3.881   8.250 -0.0739 -0.0460  0.5044
   32SAPC  H16R 4305   1.957   3.959   8.270 -2.3458  2.5903 -0.5709
   32SAPC  H16S 4306   1.921   3.848   8.152 -0.7025  1.0786 -0.1486
   32SAPC  C217 4307   1.877   3.759   8.339  0.8132 -0.2525 -0.4619
   32SAPC  H17R 4308   1.836   3.780   8.440  1.0878 -0.8103 -0.2310
   32SAPC  H17S 4309   1.985   3.741   8.356  1.0560  0.2324 -1.4112
   32SAPC  C218 4310   1.814   3.637   8.271 -0.6737  0.5248 -0.3193
   32SAPC  H18R 4311   1.873   3.612   8.181 -0.7753  0.0766 -0.2611
   32SAPC  H18S 4312   1.707   3.654   8.249 -0.5500  0.3196 -1.1128
   32SAPC  C219 4313   1.837   3.504   8.350  1.0491  0.0995  0.0667
   32SAPC  H19R 4314   1.944   3.475   8.356  0.6382 -1.3390  0.8790
   32SAPC  H19S 4315   1.773   3.427   8.302  1.2418  0.2106 -0.3811
   32SAPC  C220 4316   1.790   3.515   8.497  0.0234 -0.5025  0.0769
   32SAPC  H20R 4317   1.850   3.588   8.557 -1.8864  0.0270  1.4293
   32SAPC  H20S 4318   1.817   3.420   8.548  3.5379  0.1456 -0.2867
   32SAPC  H20T 4319   1.686   3.551   8.504  0.7621  1.4645  2.3756
   32SAPC   C33 4320   1.699   4.252   6.882  0.2098 -0.3125 -0.0864
   32SAPC   H3X 4321   1.800   4.214   6.858  0.3357 -1.2632  1.7755
   32SAPC   H3Y 4322   1.637   4.161   6.900  1.3648 -0.7234  2.2187
   32SAPC   C34 4323   1.708   4.324   7.022  0.2193  0.0328  0.4210
   32SAPC   H4X 4324   1.617   4.383   7.047 -0.6807 -1.3015  0.4384
   32SAPC   H4Y 4325   1.796   4.390   7.010 -0.8317  1.1900 -1.4044
   32SAPC   C35 4326   1.746   4.241   7.148  0.4641  0.5618 -0.0149
   32SAPC   H5X 4327   1.850   4.202   7.153 -0.5947 -2.5918 -0.4218
   32SAPC   H5Y 4328   1.673   4.158   7.147 -0.7965  1.6231  0.4187
   32SAPC   C36 4329   1.736   4.319   7.279  0.0192  0.2501  0.9577
   32SAPC   H6X 4330   1.647   4.386   7.282  0.8474  1.4922 -0.9913
   32SAPC   H6Y 4331   1.822   4.388   7.283  0.7157 -0.5126 -0.3608
   32SAPC   C37 4332   1.737   4.228   7.407  0.6925 -0.5477  0.1681
   32SAPC   H7X 4333   1.828   4.164   7.406  1.2452  0.1979  0.8744
   32SAPC   H7Y 4334   1.646   4.166   7.390  0.9294 -0.7293 -0.4359
   32SAPC   C38 4335   1.711   4.298   7.545  0.1778 -0.4042  0.1361
   32SAPC   H8X 4336   1.610   4.343   7.534  0.9214  0.7375 -4.0493
   32SAPC   H8Y 4337   1.796   4.368   7.558 -0.7969  1.3932 -2.3771
   32SAPC   C39 4338   1.710   4.190   7.654 -0.7068 -0.6862 -0.0969
   32SAPC   H9X 4339   1.674   4.103   7.594 -0.9848  0.7010 -2.0159
   32SAPC   H9Y 4340   1.643   4.218   7.738  2.3812  1.5512  1.8050
   32SAPC  C310 4341   1.853   4.172   7.715  0.2585  0.4302 -0.2534
   32SAPC  H10X 4342   1.922   4.187   7.629  1.1088  1.4858  0.5805
   32SAPC  H10Y 4343   1.868   4.072   7.761  0.0894  0.7435  0.5034
   32SAPC  C311 4344   1.891   4.286   7.818 -1.0176 -0.4692  0.2503
   32SAPC  H11X 4345   1.874   4.386   7.772  0.0926  1.4016  3.5970
   32SAPC  H11Y 4346   1.999   4.281   7.843 -1.1651  0.6102  1.1779
   32SAPC  C312 4347   1.806   4.273   7.951  0.3110 -0.0949  0.6810
   32SAPC  H12X 4348   1.833   4.171   7.987  0.6060 -0.1870  0.2057
   32SAPC  H12Y 4349   1.701   4.250   7.924 -0.0243  1.5500  0.5014
   32SAPC  C313 4350   1.835   4.372   8.061  0.3040 -0.2194  0.0551
   32SAPC  H13X 4351   1.802   4.476   8.041 -0.2046 -0.5733 -1.0343
   32SAPC  H13Y 4352   1.945   4.373   8.081  0.5303 -2.1736 -0.8794
   32SAPC  C314 4353   1.772   4.345   8.202  0.1975  0.4989  0.2039
   32SAPC  H14X 4354   1.807   4.248   8.244 -0.1101  0.2855 -0.0300
   32SAPC  H14Y 4355   1.662   4.332   8.194  0.4856 -1.5280 -0.9858
   32SAPC  C315 4356   1.796   4.460   8.300 -0.5816  0.2140  0.0733
   32SAPC  H15X 4357   1.732   4.447   8.390 -2.5671 -0.8197 -1.4242
   32SAPC  H15Y 4358   1.763   4.548   8.241 -2.1253 -0.1961  0.2854
   32SAPC  C316 4359   1.948   4.473   8.333  0.4009 -0.4156  0.0614
   32SAPC  H16X 4360   2.010   4.480   8.241 -0.3012  0.5453 -0.3537
   32SAPC  H16Y 4361   1.982   4.387   8.394  0.0253 -1.3430 -1.0155
   32SAPC  C317 4362   1.973   4.607   8.409  0.1796 -0.2724  0.2673
   32SAPC  H17X 4363   1.878   4.644   8.454  0.0999  0.2055 -0.2756
   32SAPC  H17Y 4364   2.002   4.682   8.333  0.9564 -0.8334  0.0038
   32SAPC  C318 4365   2.081   4.588   8.519 -0.3091  0.7407 -0.1641
   32SAPC  H18X 4366   2.139   4.494   8.505 -1.4228  0.2811 -2.0064
   32SAPC  H18Y 4367   2.036   4.590   8.621  1.7653 -0.3995  0.8480
   32SAPC  H18Z 4368   2.146   4.678   8.513 -0.9503  1.2242  0.0169
   33POPC     N 4369   0.601   5.381  10.881 -0.1071 -0.4372 -0.1063
   33POPC   C12 4370   0.678   5.446  10.772  0.0131  0.4103  0.0436
   33POPC  H12A 4371   0.761   5.498  10.818 -0.7977  0.5761  1.3843
   33POPC  H12B 4372   0.624   5.529  10.730  0.3983 -0.0792 -1.4862
   33POPC   C13 4373   0.587   5.481  10.992  0.2827  0.5886  0.0201
   33POPC  H13A 4374   0.512   5.548  10.952  0.6309  0.5081 -0.7997
   33POPC  H13B 4375   0.553   5.427  11.079 -0.4180  0.6685 -0.1931
   33POPC  H13C 4376   0.681   5.529  11.013  0.7379 -0.3244  0.1354
   33POPC   C14 4377   0.462   5.348  10.839 -0.3502  0.2843 -0.3317
   33POPC  H14A 4378   0.471   5.281  10.755  2.9327  0.1068  0.0177
   33POPC  H14B 4379   0.418   5.302  10.926  1.2409  0.4204  0.5881
   33POPC  H14C 4380   0.413   5.440  10.811  1.5851  0.8043 -2.3249
   33POPC   C15 4381   0.674   5.264  10.925 -0.4327  0.4182 -0.0810
   33POPC  H15A 4382   0.679   5.187  10.850  2.6021  1.4459 -1.0587
   33POPC  H15B 4383   0.638   5.231  11.021  0.2371  3.0585  1.1670
   33POPC  H15C 4384   0.779   5.288  10.933 -0.0754 -1.3669  1.1906
   33POPC   C11 4385   0.716   5.352  10.651 -0.0758 -0.3294  0.8127
   33POPC  H11A 4386   0.734   5.422  10.567 -0.0963 -1.6125 -0.2951
   33POPC  H11B 4387   0.633   5.287  10.618  1.1668 -1.7847  0.4265
   33POPC     P 4388   0.971   5.311  10.673  0.3202  0.1901 -0.0737
   33POPC   O13 4389   1.063   5.189  10.688 -0.4832 -0.4111 -0.1376
   33POPC   O14 4390   0.995   5.412  10.776  0.0296 -0.3524 -0.0891
   33POPC   O12 4391   0.821   5.274  10.681 -0.3476  0.2076  0.0593
   33POPC   O11 4392   1.004   5.369  10.526  0.3875  0.1247 -0.1575
   33POPC    C1 4393   0.954   5.300  10.413 -0.0326 -0.2694  0.0703
   33POPC    HA 4394   0.861   5.242  10.430 -0.5652  0.5515  0.0100
   33POPC    HB 4395   0.918   5.374  10.339 -0.0737 -0.5964 -0.2389
   33POPC    C2 4396   1.069   5.218  10.333  0.1413 -1.0239 -0.3927
   33POPC    HS 4397   1.119   5.164  10.417  0.0248 -1.3762 -0.5494
   33POPC   O21 4398   1.166   5.313  10.286  0.2308 -0.0015 -0.1799
   33POPC   C21 4399   1.137   5.364  10.170 -0.4378 -0.4984  0.3067
   33POPC   O22 4400   1.026   5.372  10.117 -0.1957  0.2700 -0.0270
   33POPC   C22 4401   1.262   5.422  10.116 -0.1718  0.3344 -0.7660
   33POPC   H2R 4402   1.339   5.345  10.096 -2.0620 -1.6085 -0.9050
   33POPC   H2S 4403   1.291   5.493  10.196 -0.7183  0.4902 -0.7034
   33POPC    C3 4404   0.998   5.121  10.235 -0.6389  0.1432 -0.2687
   33POPC    HX 4405   0.911   5.179  10.196 -1.9494  0.2820  2.5850
   33POPC    HY 4406   0.970   5.032  10.295 -0.2202  0.4010  0.3099
   33POPC   O31 4407   1.084   5.072  10.131 -0.0572 -0.0975 -0.0441
   33POPC   C31 4408   1.015   5.023  10.021  0.1241  0.6567  0.3948
   33POPC   O32 4409   0.901   4.993  10.019 -0.3229  0.3870 -0.2576
   33POPC   C32 4410   1.120   4.999   9.907 -0.2479  1.0342 -0.2158
   33POPC   H2X 4411   1.067   4.998   9.809 -4.1795  0.9814  1.6944
   33POPC   H2Y 4412   1.183   4.908   9.915  1.1220  2.1218  3.4713
   33POPC   C23 4413   1.245   5.516   9.993 -0.3297 -0.4289  0.3387
   33POPC   H3R 4414   1.202   5.613  10.025  0.1477 -0.6527  1.7269
   33POPC   H3S 4415   1.186   5.459   9.918  1.8708  0.6268 -2.3514
   33POPC   C24 4416   1.385   5.551   9.937 -0.6532 -0.5951  0.1525
   33POPC   H4R 4417   1.434   5.457   9.905 -2.0705 -0.6570 -2.0425
   33POPC   H4S 4418   1.465   5.592  10.001  0.3624 -0.8530 -0.9161
   33POPC   C25 4419   1.389   5.642   9.809 -0.2167  0.0705 -0.5256
   33POPC   H5R 4420   1.494   5.667   9.786  0.0221  0.3114  0.7691
   33POPC   H5S 4421   1.336   5.734   9.842  3.0620  1.9453 -0.0965
   33POPC   C26 4422   1.338   5.573   9.677 -0.9868  0.2343 -0.3103
   33POPC   H6R 4423   1.227   5.573   9.679 -1.0153  0.2758 -1.3745
   33POPC   H6S 4424   1.371   5.467   9.684 -2.1494 -0.0633  1.3004
   33POPC   C27 4425   1.397   5.633   9.548  0.8266  0.5303 -0.3956
   33POPC   H7R 4426   1.503   5.601   9.545  0.4443 -1.0371  1.2018
   33POPC   H7S 4427   1.385   5.743   9.556 -2.4377  0.4444 -2.1311
   33POPC   C28 4428   1.323   5.562   9.432  0.8975  0.1973  0.2812
   33POPC   H8R 4429   1.216   5.551   9.456  0.8753 -0.9813 -0.2938
   33POPC   H8S 4430   1.370   5.461   9.436 -0.4315 -0.5397 -1.6992
   33POPC   C29 4431   1.351   5.652   9.313  0.6735  0.9712 -0.2871
   33POPC   H91 4432   1.350   5.760   9.334 -1.7989  0.7338  1.1992
   33POPC  C210 4433   1.349   5.601   9.186  0.4387 -0.7565  0.1544
   33POPC  H101 4434   1.377   5.673   9.107 -1.2942  3.9625  3.4217
   33POPC  C211 4435   1.328   5.456   9.132 -0.0558 -0.0258 -0.0843
   33POPC  H11R 4436   1.361   5.379   9.205  1.0347  1.4922  1.0990
   33POPC  H11S 4437   1.398   5.442   9.047  0.3621 -1.2699  0.4400
   33POPC  C212 4438   1.187   5.417   9.091  0.2556  0.4405  0.4682
   33POPC  H12R 4439   1.129   5.434   9.185  1.6652 -1.8403  1.8541
   33POPC  H12S 4440   1.175   5.309   9.067 -0.6238  0.1209  2.1261
   33POPC  C213 4441   1.132   5.503   8.975  0.3681  0.6435  0.5017
   33POPC  H13R 4442   1.204   5.507   8.890 -0.8359  0.6498 -0.5626
   33POPC  H13S 4443   1.118   5.608   9.008 -0.8666  0.4752  0.5799
   33POPC  C214 4444   0.990   5.464   8.927  0.1809  0.6692  0.3362
   33POPC  H14R 4445   0.924   5.491   9.013  0.7106  0.4721  0.8067
   33POPC  H14S 4446   0.985   5.353   8.916 -1.2209 -0.0099  5.1847
   33POPC  C215 4447   0.933   5.549   8.812  0.1593 -0.1417  0.2462
   33POPC  H15R 4448   0.955   5.656   8.830 -0.0366 -0.4242  2.3485
   33POPC  H15S 4449   0.824   5.556   8.826  0.4083  2.4809  1.3103
   33POPC  C216 4450   0.970   5.508   8.662 -0.3969  0.2072  0.1892
   33POPC  H16R 4451   1.079   5.522   8.647 -0.3901  0.7536  0.7047
   33POPC  H16S 4452   0.904   5.576   8.603 -1.0022  1.1250  1.8584
   33POPC  C217 4453   0.922   5.365   8.635 -0.2298  0.5492  0.0182
   33POPC  H17R 4454   0.812   5.354   8.641 -0.6140  1.5848 -3.1418
   33POPC  H17S 4455   0.988   5.299   8.695 -0.3266 -1.5890 -2.0519
   33POPC  C218 4456   0.961   5.317   8.496  0.2650  0.0538  0.1793
   33POPC  H18R 4457   0.926   5.387   8.417 -0.5799 -1.0407 -0.4495
   33POPC  H18S 4458   0.906   5.224   8.470  1.5082 -0.8611  0.7298
   33POPC  H18T 4459   1.070   5.301   8.484  0.0930  0.1021 -1.7763
   33POPC   C33 4460   1.212   5.126   9.901 -0.2668 -0.6367 -0.2135
   33POPC   H3X 4461   1.268   5.117   9.997  0.3111 -2.9374 -0.7158
   33POPC   H3Y 4462   1.151   5.218   9.913  0.3624 -0.5688  4.1606
   33POPC   C34 4463   1.305   5.137   9.781  0.0445  0.0964 -0.7951
   33POPC   H4X 4464   1.351   5.036   9.778  0.0736  0.1135 -0.9612
   33POPC   H4Y 4465   1.373   5.222   9.805 -1.2402  0.4087  2.0874
   33POPC   C35 4466   1.220   5.169   9.657 -0.1931  0.0607 -0.0063
   33POPC   H5X 4467   1.138   5.240   9.682 -0.8329 -1.4488  2.5045
   33POPC   H5Y 4468   1.163   5.078   9.631  0.1203 -0.3560  0.7243
   33POPC   C36 4469   1.299   5.206   9.531 -0.0779 -0.4134  0.2191
   33POPC   H6X 4470   1.353   5.302   9.545 -2.7153  0.9371  1.7928
   33POPC   H6Y 4471   1.233   5.230   9.445  0.1837 -0.6648 -0.0555
   33POPC   C37 4472   1.388   5.087   9.489  0.3895 -0.1758  0.1323
   33POPC   H7X 4473   1.332   4.993   9.511  0.1624  0.2117  1.2525
   33POPC   H7Y 4474   1.481   5.089   9.551 -0.0490  0.3663  0.7784
   33POPC   C38 4475   1.428   5.078   9.338 -0.1581 -0.1728 -0.0690
   33POPC   H8X 4476   1.505   4.997   9.337 -0.7751 -0.7634 -0.6150
   33POPC   H8Y 4477   1.490   5.167   9.312  0.4120 -0.6227 -0.2860
   33POPC   C39 4478   1.313   5.049   9.243 -0.7022  0.1607 -0.8115
   33POPC   H9X 4479   1.241   5.133   9.234  1.2101  1.7829 -1.6960
   33POPC   H9Y 4480   1.254   4.957   9.263  0.5888 -0.0992  2.4447
   33POPC  C310 4481   1.371   5.049   9.103  0.6657 -0.2360 -0.3844
   33POPC  H10X 4482   1.434   5.136   9.073  0.7059  0.1970  0.9168
   33POPC  H10Y 4483   1.281   5.063   9.038  0.7738 -3.0143 -1.2367
   33POPC  C311 4484   1.453   4.937   9.062 -0.0400  0.0982  0.0477
   33POPC  H11X 4485   1.550   4.941   9.116  0.1146  2.6722 -0.3344
   33POPC  H11Y 4486   1.480   4.941   8.955  0.2399  1.4271  0.1497
   33POPC  C312 4487   1.390   4.798   9.086 -0.0093  0.7813 -0.2552
   33POPC  H12X 4488   1.280   4.801   9.077 -0.0022 -0.3989 -0.8808
   33POPC  H12Y 4489   1.414   4.782   9.193  0.3011  0.2110 -0.4063
   33POPC  C313 4490   1.444   4.681   8.998  0.4332 -0.3903  1.0030
   33POPC  H13X 4491   1.552   4.678   9.025  0.4515  1.2627  1.1942
   33POPC  H13Y 4492   1.439   4.720   8.894  3.2533  1.9068  1.5908
   33POPC  C314 4493   1.364   4.554   8.997  0.3405 -0.3606 -0.0440
   33POPC  H14X 4494   1.257   4.578   8.978  0.8447  0.4217 -2.2730
   33POPC  H14Y 4495   1.364   4.509   9.098  0.7858 -0.0894  0.0836
   33POPC  C315 4496   1.391   4.454   8.886 -0.4440 -0.0696  0.0645
   33POPC  H15X 4497   1.479   4.390   8.909 -0.4675 -0.8192 -1.7801
   33POPC  H15Y 4498   1.410   4.498   8.786  1.1752 -1.6940 -0.3944
   33POPC  C316 4499   1.272   4.357   8.869 -0.3745  0.0682 -0.2303
   33POPC  H16X 4500   1.188   4.423   8.835  0.1110  0.3357 -0.9376
   33POPC  H16Y 4501   1.236   4.310   8.962 -0.9499 -1.6351 -1.2703
   33POPC  H16Z 4502   1.286   4.276   8.794  0.2598 -1.1827  1.1980
   34POPC     N 4503   0.583   6.059  10.488 -0.7693  0.0893 -0.0198
   34POPC   C12 4504   0.451   5.987  10.479 -0.3696  0.1188 -0.7349
   34POPC  H12A 4505   0.468   5.885  10.448 -1.5583 -0.3310  0.0517
   34POPC  H12B 4506   0.386   6.030  10.404  0.0820  1.4980 -0.3612
   34POPC   C13 4507   0.659   6.026  10.365 -0.6171 -0.8678  0.1830
   34POPC  H13A 4508   0.754   6.075  10.349 -2.0013  1.1506 -2.7446
   34POPC  H13B 4509   0.663   5.918  10.366  0.8386 -0.8396  0.2587
   34POPC  H13C 4510   0.596   6.060  10.284  0.5837  1.0654  0.0039
   34POPC   C14 4511   0.562   6.205  10.497 -0.0411  0.1931  0.2896
   34POPC  H14A 4512   0.517   6.237  10.405 -2.0125  0.0466  1.1560
   34POPC  H14B 4513   0.506   6.240  10.582 -0.6892 -0.8781  0.3174
   34POPC  H14C 4514   0.660   6.249  10.513  0.3959 -0.3748 -0.7203
   34POPC   C15 4515   0.666   6.014  10.604  0.7252 -0.1532 -0.1622
   34POPC  H15A 4516   0.689   5.909  10.591 -1.0974 -0.5022 -0.7757
   34POPC  H15B 4517   0.610   6.025  10.696 -0.7550  1.4942 -1.1870
   34POPC  H15C 4518   0.761   6.066  10.610  0.8974 -0.5085  0.2971
   34POPC   C11 4519   0.361   5.976  10.601 -0.0310 -0.0165 -0.3994
   34POPC  H11A 4520   0.262   5.943  10.562  0.0328 -1.0133  0.2257
   34POPC  H11B 4521   0.341   6.081  10.631 -0.5987 -0.5554  1.1948
   34POPC     P 4522   0.375   5.750  10.718 -0.0855  0.2004 -0.4759
   34POPC   O13 4523   0.241   5.766  10.778 -0.2762 -0.1718  0.1351
   34POPC   O14 4524   0.471   5.666  10.787  0.1483 -0.0986 -0.3267
   34POPC   O12 4525   0.433   5.892  10.692 -0.2828  0.0834 -0.1882
   34POPC   O11 4526   0.355   5.693  10.567  0.1819  0.0250 -0.1796
   34POPC    C1 4527   0.316   5.561  10.550 -0.5901  0.2983 -0.1357
   34POPC    HA 4528   0.222   5.533  10.603  0.0671 -0.9026  0.4273
   34POPC    HB 4529   0.393   5.489  10.586 -0.4639 -1.3091 -3.2448
   34POPC    C2 4530   0.275   5.533  10.399 -0.0507 -0.3477 -0.1370
   34POPC    HS 4531   0.203   5.448  10.402 -3.3897  2.1936 -1.3613
   34POPC   O21 4532   0.382   5.511  10.301 -0.3733  0.1283  0.6452
   34POPC   C21 4533   0.461   5.404  10.317  0.0902  1.0514  0.1214
   34POPC   O22 4534   0.444   5.320  10.404 -0.0583 -0.0289 -0.1496
   34POPC   C22 4535   0.567   5.383  10.202  0.5630 -0.2472 -0.1689
   34POPC   H2R 4536   0.565   5.278  10.167 -0.4666 -0.2380 -0.1531
   34POPC   H2S 4537   0.669   5.385  10.247  0.6860  0.8150 -0.4556
   34POPC    C3 4538   0.188   5.645  10.345  0.1637 -0.2481  0.1356
   34POPC    HX 4539   0.261   5.728  10.332  0.9543 -0.6296  1.8644
   34POPC    HY 4540   0.117   5.685  10.421  0.5333 -1.3187  1.0782
   34POPC   O31 4541   0.113   5.601  10.235  0.1904 -0.1998  0.0421
   34POPC   C31 4542   0.134   5.671  10.120 -0.1598  0.2043  0.5563
   34POPC   O32 4543   0.201   5.772  10.106 -0.2770  0.8274 -0.2327
   34POPC   C32 4544   0.061   5.599  10.008  0.5815 -0.3187 -0.5537
   34POPC   H2X 4545   0.013   5.686   9.959  0.7002  0.7715  1.1593
   34POPC   H2Y 4546  -0.011   5.525  10.049  2.9870 -1.4708  1.9575
   34POPC   C23 4547   0.559   5.473  10.075 -0.9660 -0.7652  0.2513
   34POPC   H3R 4548   0.626   5.561  10.083 -1.5267 -0.1919 -1.0466
   34POPC   H3S 4549   0.456   5.512  10.060 -0.3884  0.3043 -1.2328
   34POPC   C24 4550   0.604   5.400   9.947 -0.2689 -0.0897  0.1533
   34POPC   H4R 4551   0.577   5.466   9.862  1.0126  0.7650  0.3861
   34POPC   H4S 4552   0.541   5.309   9.939 -2.3753  1.4244 -1.9497
   34POPC   C25 4553   0.752   5.368   9.936 -0.2650 -0.3847  0.1629
   34POPC   H5R 4554   0.787   5.285  10.002 -1.1771 -1.6795 -0.9155
   34POPC   H5S 4555   0.804   5.462   9.962 -1.0248 -0.1781  0.9887
   34POPC   C26 4556   0.793   5.323   9.793  0.7527  0.4094 -0.2031
   34POPC   H6R 4557   0.752   5.223   9.766 -1.7638  1.3675 -0.1921
   34POPC   H6S 4558   0.904   5.311   9.791  0.7170 -0.1323  0.6552
   34POPC   C27 4559   0.757   5.416   9.676  0.1754  0.3195 -0.3389
   34POPC   H7R 4560   0.766   5.521   9.710 -0.1702  0.4036 -0.5046
   34POPC   H7S 4561   0.651   5.404   9.647  0.7682 -1.5331 -1.9928
   34POPC   C28 4562   0.855   5.401   9.558  0.1105 -0.7817 -0.4685
   34POPC   H8R 4563   0.963   5.415   9.580 -0.3755  2.0504  0.4040
   34POPC   H8S 4564   0.829   5.470   9.475  0.6161 -0.4880 -0.3877
   34POPC   C29 4565   0.849   5.267   9.500  0.3124 -0.2516 -0.1873
   34POPC   H91 4566   0.875   5.184   9.566 -0.0177 -0.6401 -0.5405
   34POPC  C210 4567   0.822   5.233   9.374 -0.0280  0.1368 -0.4490
   34POPC  H101 4568   0.824   5.124   9.357 -0.9783  0.2771 -1.6103
   34POPC  C211 4569   0.792   5.329   9.263 -0.0787  0.5918  0.2821
   34POPC  H11R 4570   0.876   5.398   9.240  0.0342  0.5467  0.5631
   34POPC  H11S 4571   0.703   5.393   9.285  0.4897  1.3590  0.3849
   34POPC  C212 4572   0.753   5.244   9.134 -0.1719  0.3539  0.5265
   34POPC  H12R 4573   0.730   5.312   9.048  0.7788 -0.2715 -0.2487
   34POPC  H12S 4574   0.675   5.170   9.158  1.3711 -0.3562  3.8215
   34POPC  C213 4575   0.875   5.163   9.094 -0.1560  0.5328  0.4479
   34POPC  H13R 4576   0.900   5.085   9.170  0.1395  0.7128  0.5368
   34POPC  H13S 4577   0.962   5.231   9.108  0.3390  0.1308 -0.5335
   34POPC  C214 4578   0.868   5.100   8.953  0.0752  0.2418  0.3522
   34POPC  H14R 4579   0.820   5.176   8.887 -1.2705 -0.7299  0.1768
   34POPC  H14S 4580   0.796   5.015   8.961 -0.4041  0.7364  1.6898
   34POPC  C215 4581   1.001   5.058   8.905  0.9637 -0.4470 -0.2265
   34POPC  H15R 4582   1.037   4.974   8.968  0.9759 -0.3356 -0.0852
   34POPC  H15S 4583   1.076   5.137   8.926  0.8439 -0.0684 -1.1774
   34POPC  C216 4584   0.996   5.013   8.763  0.0813 -0.0939 -0.3557
   34POPC  H16R 4585   0.961   5.088   8.690  0.7492 -0.8352 -1.4719
   34POPC  H16S 4586   0.928   4.926   8.762 -0.6677  0.4793 -0.0414
   34POPC  C217 4587   1.120   4.957   8.685  0.2522 -0.1870 -0.9431
   34POPC  H17R 4588   1.076   4.906   8.596 -2.4898  0.0300  0.1767
   34POPC  H17S 4589   1.177   4.888   8.752 -1.3412  0.4461  1.1804
   34POPC  C218 4590   1.215   5.065   8.633  0.4848  0.7433  0.0805
   34POPC  H18R 4591   1.298   5.015   8.579  2.4871  3.5348  0.3540
   34POPC  H18S 4592   1.250   5.137   8.710  0.6660 -1.0156  1.7067
   34POPC  H18T 4593   1.164   5.124   8.553  3.2638  1.6485 -1.1243
   34POPC   C33 4594   0.164   5.526   9.920  0.3734 -0.0927  0.3939
   34POPC   H3X 4595   0.103   5.458   9.856 -0.0476  0.5628  0.0821
   34POPC   H3Y 4596   0.225   5.456   9.981  0.2576 -1.5714 -1.0833
   34POPC   C34 4597   0.261   5.608   9.833 -0.4173 -0.1351  0.2406
   34POPC   H4X 4598   0.334   5.673   9.886 -0.4643 -0.4499  0.6919
   34POPC   H4Y 4599   0.196   5.677   9.775 -1.9327 -1.0627  0.7887
   34POPC   C35 4600   0.347   5.519   9.743 -0.4407  0.4441  0.5812
   34POPC   H5X 4601   0.394   5.434   9.797  0.1703  0.4464  0.0696
   34POPC   H5Y 4602   0.431   5.579   9.703  0.2453  0.8538  2.4991
   34POPC   C36 4603   0.269   5.467   9.616  0.3297  0.0594 -0.1111
   34POPC   H6X 4604   0.216   5.555   9.576  0.7454  0.9921  1.3122
   34POPC   H6Y 4605   0.193   5.390   9.644  1.7670 -0.5525  2.4495
   34POPC   C37 4606   0.363   5.420   9.507 -0.8387 -0.1070 -0.0125
   34POPC   H7X 4607   0.433   5.346   9.551 -1.4227  0.3858  1.8498
   34POPC   H7Y 4608   0.422   5.506   9.468 -2.3119  0.2388 -1.5895
   34POPC   C38 4609   0.285   5.369   9.388  0.2792  0.9083 -0.0229
   34POPC   H8X 4610   0.214   5.442   9.342 -0.1537 -0.3203 -1.3853
   34POPC   H8Y 4611   0.221   5.282   9.413  0.5636  0.1901 -1.7188
   34POPC   C39 4612   0.382   5.321   9.280  0.7098 -0.4316 -1.1084
   34POPC   H9X 4613   0.412   5.215   9.298  1.6974 -0.5778 -3.2620
   34POPC   H9Y 4614   0.475   5.382   9.273  0.8726 -0.5897 -0.3932
   34POPC  C310 4615   0.323   5.312   9.143  0.3583  1.1976 -0.1841
   34POPC  H10X 4616   0.301   5.412   9.099 -0.9263  1.0459  0.0545
   34POPC  H10Y 4617   0.229   5.253   9.157  1.9791 -1.3596  0.6008
   34POPC  C311 4618   0.416   5.246   9.035  0.4488 -0.3081 -0.5663
   34POPC  H11X 4619   0.436   5.141   9.066  1.5399 -0.4020 -1.5221
   34POPC  H11Y 4620   0.504   5.314   9.045 -0.2819  0.6853 -0.8174
   34POPC  C312 4621   0.356   5.234   8.898 -0.3214 -0.9120  0.3544
   34POPC  H12X 4622   0.315   5.331   8.861  1.9125  0.3601  0.9746
   34POPC  H12Y 4623   0.273   5.161   8.898 -0.3262 -0.9232  1.6155
   34POPC  C313 4624   0.449   5.184   8.781 -0.9666 -0.1278 -0.6693
   34POPC  H13X 4625   0.484   5.086   8.820 -0.4336  1.7577  4.3202
   34POPC  H13Y 4626   0.537   5.246   8.753  0.4394 -0.8524  1.7845
   34POPC  C314 4627   0.368   5.144   8.657 -0.2259 -0.1062 -0.3968
   34POPC  H14X 4628   0.338   5.240   8.610 -1.9775 -0.1294  0.6052
   34POPC  H14Y 4629   0.273   5.098   8.691 -0.1878 -1.0552 -1.5300
   34POPC  C315 4630   0.431   5.026   8.580  0.0934 -0.4848  0.0286
   34POPC  H15X 4631   0.439   4.936   8.644  2.0185 -1.0635 -0.9357
   34POPC  H15Y 4632   0.534   5.058   8.554 -0.5964  1.0753 -0.9824
   34POPC  C316 4633   0.357   4.965   8.460 -0.3397 -1.3194  0.0651
   34POPC  H16X 4634   0.266   4.922   8.508 -0.8301  1.0769  1.4504
   34POPC  H16Y 4635   0.420   4.888   8.411 -0.9091 -2.9958  1.8356
   34POPC  H16Z 4636   0.338   5.042   8.383 -1.9473  0.7026  2.3031
   35POPC     N 4637   5.852   4.011  11.197 -0.0219  0.5089 -0.3165
   35POPC   C12 4638   5.713   4.035  11.158  0.0089 -0.1069  0.0865
   35POPC  H12A 4639   5.670   4.110  11.223 -2.0942  1.4439 -2.8556
   35POPC  H12B 4640   5.656   3.945  11.169  0.2624 -0.2906 -0.0937
   35POPC   C13 4641   5.861   3.945  11.330  0.9437  0.0186 -0.2400
   35POPC  H13A 4642   5.817   4.008  11.406 -0.8263 -2.5867  1.0691
   35POPC  H13B 4643   5.803   3.854  11.334  1.3383 -0.2756 -1.0799
   35POPC  H13C 4644   5.964   3.920  11.350  0.8825 -1.9343 -2.0185
   35POPC   C14 4645   5.904   3.915  11.091  0.3104  0.3561  0.4790
   35POPC  H14A 4646   5.898   3.957  10.992  2.4414 -0.2054  0.0566
   35POPC  H14B 4647   6.010   3.901  11.109 -0.0632 -2.9330  0.7386
   35POPC  H14C 4648   5.856   3.819  11.095  0.4065  0.1151 -2.2008
   35POPC   C15 4649   5.939   4.131  11.205  1.0108  0.0922  0.2071
   35POPC  H15A 4650   5.908   4.190  11.120  1.0821 -0.8882 -0.5154
   35POPC  H15B 4651   6.043   4.108  11.223  1.2219 -0.3734 -1.4205
   35POPC  H15C 4652   5.907   4.187  11.291  1.0488  1.7610 -0.8177
   35POPC   C11 4653   5.689   4.112  11.024 -0.1701 -0.6591 -0.2958
   35POPC  H11A 4654   5.580   4.108  11.006 -0.0681  2.3270 -2.2371
   35POPC  H11B 4655   5.724   4.061  10.932 -0.6820  1.0108 -1.4723
   35POPC     P 4656   5.647   4.362  11.068 -0.2263  0.2088  0.0780
   35POPC   O13 4657   5.729   4.465  11.135  0.1865 -0.7411 -0.8328
   35POPC   O14 4658   5.540   4.311  11.155  0.3295  0.2374  0.4037
   35POPC   O12 4659   5.746   4.246  11.029  0.0516 -0.1635 -0.4571
   35POPC   O11 4660   5.598   4.419  10.934 -0.3061 -0.0301 -0.0573
   35POPC    C1 4661   5.482   4.364  10.861  0.0795 -0.2884  0.9094
   35POPC    HA 4662   5.390   4.423  10.876  0.0614  0.2077 -0.8960
   35POPC    HB 4663   5.456   4.257  10.880  0.2473 -0.8789 -1.7628
   35POPC    C2 4664   5.511   4.390  10.714  0.7204  0.2445  0.8676
   35POPC    HS 4665   5.599   4.328  10.688 -0.4993 -1.4948  0.7138
   35POPC   O21 4666   5.533   4.531  10.702 -0.6113 -0.3105  0.2957
   35POPC   C21 4667   5.616   4.564  10.597 -0.6839  0.2315  0.3152
   35POPC   O22 4668   5.683   4.487  10.531  0.4114  0.3038 -0.1154
   35POPC   C22 4669   5.612   4.715  10.581  0.8376 -0.3201 -0.2126
   35POPC   H2R 4670   5.719   4.747  10.582  0.8251 -0.2242  1.4324
   35POPC   H2S 4671   5.568   4.771  10.666  1.5171  3.1835 -2.0081
   35POPC    C3 4672   5.387   4.333  10.618 -0.3164  0.0594 -0.5848
   35POPC    HX 4673   5.296   4.389  10.650 -0.5351 -0.2526 -0.6556
   35POPC    HY 4674   5.362   4.229  10.647  1.7669 -0.3390 -0.0515
   35POPC   O31 4675   5.390   4.349  10.475  0.7567 -0.0269  0.0222
   35POPC   C31 4676   5.328   4.458  10.420 -0.9887 -0.3716  0.0500
   35POPC   O32 4677   5.269   4.545  10.479  0.6521 -0.1035 -0.0952
   35POPC   C32 4678   5.354   4.457  10.272 -0.6052  0.8599  0.5921
   35POPC   H2X 4679   5.375   4.357  10.230 -0.5255  1.3641 -0.5974
   35POPC   H2Y 4680   5.445   4.519  10.257  0.4231 -1.0433 -1.5979
   35POPC   C23 4681   5.563   4.766  10.443 -0.5015  0.0512 -0.9256
   35POPC   H3R 4682   5.457   4.736  10.426 -0.7941 -0.6813  1.7484
   35POPC   H3S 4683   5.619   4.718  10.360 -0.4441 -1.3792 -0.0865
   35POPC   C24 4684   5.579   4.916  10.419 -0.0086 -0.2417  0.6226
   35POPC   H4R 4685   5.686   4.946  10.408 -0.5611  1.1915 -1.6751
   35POPC   H4S 4686   5.533   4.972  10.503  0.8022  1.3619  0.0522
   35POPC   C25 4687   5.502   4.970  10.294 -0.3426 -0.2062 -0.1803
   35POPC   H5R 4688   5.538   5.068  10.256  1.9262 -0.6531  0.6391
   35POPC   H5S 4689   5.395   4.990  10.313 -0.2748 -0.6178  0.7011
   35POPC   C26 4690   5.507   4.868  10.178 -0.5570 -0.1594  0.0012
   35POPC   H6R 4691   5.459   4.771  10.204  2.3714 -1.1651  2.0918
   35POPC   H6S 4692   5.611   4.833  10.161 -1.2495 -2.1923 -0.3993
   35POPC   C27 4693   5.445   4.931  10.049 -0.2661  0.1377 -0.0201
   35POPC   H7R 4694   5.497   5.029  10.045  1.1719 -0.4425  2.3727
   35POPC   H7S 4695   5.339   4.957  10.067 -0.7238  1.3082 -3.5917
   35POPC   C28 4696   5.472   4.861   9.914  0.6046 -0.8581  0.4082
   35POPC   H8R 4697   5.441   4.754   9.923 -3.5749 -0.1890 -2.8054
   35POPC   H8S 4698   5.582   4.868   9.910  0.4604  2.1399 -1.2123
   35POPC   C29 4699   5.412   4.942   9.801 -0.2049  0.2193  0.2108
   35POPC   H91 4700   5.305   4.969   9.808 -0.7362 -1.6078 -0.2852
   35POPC  C210 4701   5.480   4.966   9.687  0.1868  0.5675 -0.2336
   35POPC  H101 4702   5.419   5.025   9.618  0.8180  0.7862 -0.6155
   35POPC  C211 4703   5.617   4.938   9.633 -0.6764 -0.3559  0.0357
   35POPC  H11R 4704   5.651   4.840   9.674 -1.9572 -0.9060 -0.1519
   35POPC  H11S 4705   5.687   5.022   9.650 -2.2944  1.0226  0.2103
   35POPC  C212 4706   5.619   4.905   9.480 -0.3962 -0.0540 -0.2688
   35POPC  H12R 4707   5.728   4.897   9.463 -0.2737  2.6760 -1.2415
   35POPC  H12S 4708   5.591   4.988   9.413 -0.8847  2.4601  2.8432
   35POPC  C213 4709   5.537   4.770   9.451  0.2151 -0.3594  0.1927
   35POPC  H13R 4710   5.530   4.709   9.543 -0.1163  0.2856  0.6084
   35POPC  H13S 4711   5.585   4.717   9.366 -1.2439 -0.2730 -0.7287
   35POPC  C214 4712   5.403   4.805   9.382  0.5166  0.0462 -0.3842
   35POPC  H14R 4713   5.410   4.897   9.320  0.7510  0.1266 -0.2430
   35POPC  H14S 4714   5.335   4.829   9.466 -0.2228 -1.9060 -0.3775
   35POPC  C215 4715   5.339   4.689   9.308 -0.5404 -0.0182  0.1652
   35POPC  H15R 4716   5.243   4.730   9.268  0.0242  2.6705  1.3026
   35POPC  H15S 4717   5.320   4.606   9.379 -0.1909  0.3883  0.7397
   35POPC  C216 4718   5.422   4.633   9.191  0.0268  0.5269 -0.7950
   35POPC  H16R 4719   5.363   4.569   9.121  0.0876 -2.3067  1.5505
   35POPC  H16S 4720   5.507   4.581   9.240 -1.2435  1.9101  3.3186
   35POPC  C217 4721   5.483   4.735   9.094 -0.1924 -0.1937  0.2625
   35POPC  H17R 4722   5.554   4.807   9.139 -3.1122  2.2846  1.2515
   35POPC  H17S 4723   5.402   4.800   9.055  2.1642  2.6919 -0.1236
   35POPC  C218 4724   5.549   4.663   8.974 -0.2847 -0.2968 -0.5132
   35POPC  H18R 4725   5.597   4.736   8.905 -0.1890  0.7571  0.6280
   35POPC  H18S 4726   5.474   4.603   8.918 -1.1418 -0.6770  0.9846
   35POPC  H18T 4727   5.626   4.588   9.001 -1.9474 -2.6850 -2.0138
   35POPC   C33 4728   5.224   4.490  10.196 -0.4583 -0.0474  0.4723
   35POPC   H3X 4729   5.191   4.593  10.222  3.5860  0.9824  2.4039
   35POPC   H3Y 4730   5.140   4.422  10.223  1.0607 -1.2873  2.4620
   35POPC   C34 4731   5.246   4.496  10.046 -0.6149 -0.0449  0.3985
   35POPC   H4X 4732   5.258   4.391  10.011  0.7321 -0.0599  0.8442
   35POPC   H4Y 4733   5.331   4.564  10.024 -1.2697  0.0744 -2.0428
   35POPC   C35 4734   5.117   4.548   9.980  0.5070  0.1572  0.2182
   35POPC   H5X 4735   5.111   4.659   9.979  0.6576  0.1901  1.5751
   35POPC   H5Y 4736   5.029   4.524  10.043  0.7861  2.0072  1.4044
   35POPC   C36 4737   5.099   4.496   9.840  0.2910 -0.1199  0.4871
   35POPC   H6X 4738   5.086   4.386   9.837  1.2203 -0.2424 -2.8865
   35POPC   H6Y 4739   5.183   4.539   9.782 -0.1838 -1.4143 -1.2316
   35POPC   C37 4740   4.975   4.558   9.777 -0.1974 -0.0185 -0.5441
   35POPC   H7X 4741   4.983   4.669   9.778  0.0434 -0.0318  0.7851
   35POPC   H7Y 4742   4.893   4.535   9.848  0.5992 -1.9697 -0.1887
   35POPC   C38 4743   4.980   4.536   9.626  0.1280  0.5131  0.6210
   35POPC   H8X 4744   5.078   4.560   9.578 -0.1609  3.0102  1.1452
   35POPC   H8Y 4745   4.904   4.595   9.570  1.2496 -0.0513 -1.6180
   35POPC   C39 4746   4.944   4.386   9.593  0.2774  0.1845 -0.0316
   35POPC   H9X 4747   4.857   4.363   9.658  0.1438  2.8430  0.8555
   35POPC   H9Y 4748   5.035   4.327   9.618 -1.4672 -1.4046  3.3293
   35POPC  C310 4749   4.893   4.368   9.446  0.2111 -0.0071  0.0205
   35POPC  H10X 4750   4.795   4.422   9.444 -0.2013 -0.7196  0.4591
   35POPC  H10Y 4751   4.859   4.264   9.428  0.0083 -0.1623  1.2107
   35POPC  C311 4752   4.988   4.425   9.348 -0.8644  0.0981 -0.2559
   35POPC  H11X 4753   5.030   4.523   9.378 -2.9521  1.0699 -0.3049
   35POPC  H11Y 4754   4.928   4.446   9.257 -0.0167 -1.0576 -1.0984
   35POPC  C312 4755   5.095   4.323   9.310 -0.3237 -0.1419 -0.0748
   35POPC  H12X 4756   5.051   4.222   9.318 -0.2673 -0.0955  0.9193
   35POPC  H12Y 4757   5.177   4.333   9.385 -1.1784  3.6395  0.5567
   35POPC  C313 4758   5.140   4.335   9.161 -0.6792  0.6981  0.0118
   35POPC  H13X 4759   5.216   4.259   9.136  0.0563  1.2531  0.5022
   35POPC  H13Y 4760   5.195   4.432   9.154  0.1517  0.3299  1.2525
   35POPC  C314 4761   5.027   4.315   9.060 -0.1162 -0.2728 -0.3481
   35POPC  H14X 4762   5.017   4.408   9.000  2.1119 -0.1445 -0.6027
   35POPC  H14Y 4763   4.929   4.296   9.110  0.3223  2.1910  1.6795
   35POPC  C315 4764   5.058   4.198   8.963 -0.3831 -0.1854  0.3227
   35POPC  H15X 4765   5.092   4.112   9.024  1.1395  2.2003  3.0738
   35POPC  H15Y 4766   5.130   4.228   8.883 -0.1458  0.5186  0.7976
   35POPC  C316 4767   4.923   4.160   8.890  0.6717 -0.0945 -0.0035
   35POPC  H16X 4768   4.872   4.256   8.864  0.9488  0.4879  1.5085
   35POPC  H16Y 4769   4.851   4.105   8.953  2.2783 -2.7763 -0.3402
   35POPC  H16Z 4770   4.933   4.111   8.791 -0.4394  0.2241 -0.2818
   36POPC     N 4771   5.443   2.036  11.308  0.1166 -0.2684 -0.4498
   36POPC   C12 4772   5.378   2.167  11.251 -0.3023 -0.1846  0.3872
   36POPC  H12A 4773   5.426   2.244  11.311  1.4269 -2.8858  2.7447
   36POPC  H12B 4774   5.275   2.153  11.278 -0.0754  0.6310  1.7993
   36POPC   C13 4775   5.416   2.032  11.453  1.0809 -0.5243 -0.3145
   36POPC  H13A 4776   5.472   1.956  11.505 -0.2348  0.4666  2.7749
   36POPC  H13B 4777   5.446   2.121  11.506 -0.0824 -0.9154  1.0677
   36POPC  H13C 4778   5.311   2.011  11.472  1.0006  0.2636  0.1706
   36POPC   C14 4779   5.392   1.916  11.240  0.0427  0.7269  0.9929
   36POPC  H14A 4780   5.436   1.822  11.271 -2.4817 -0.8887  0.0372
   36POPC  H14B 4781   5.286   1.904  11.258  0.0184 -1.8966 -0.3404
   36POPC  H14C 4782   5.409   1.915  11.133  4.3950  1.7792  1.5026
   36POPC   C15 4783   5.594   2.026  11.297 -0.0416  0.8151 -0.7699
   36POPC  H15A 4784   5.635   2.105  11.358  0.1497 -0.4888  0.8331
   36POPC  H15B 4785   5.636   2.019  11.197 -0.8442  0.8837 -1.1178
   36POPC  H15C 4786   5.625   1.939  11.353  1.0456 -0.2976 -2.9461
   36POPC   C11 4787   5.401   2.186  11.099  0.0360  0.5629 -0.0219
   36POPC  H11A 4788   5.338   2.261  11.047 -1.3531 -0.2872  0.3611
   36POPC  H11B 4789   5.381   2.093  11.040  1.3032  1.3329 -1.7587
   36POPC     P 4790   5.590   2.360  11.132 -0.1929 -0.3184  0.2124
   36POPC   O13 4791   5.740   2.361  11.120  0.0324 -0.2477 -0.6328
   36POPC   O14 4792   5.537   2.397  11.263  0.8541 -0.2755  0.3854
   36POPC   O12 4793   5.538   2.218  11.087  0.3868 -1.0380  0.4646
   36POPC   O11 4794   5.534   2.459  11.024 -0.3854 -0.6805 -0.0333
   36POPC    C1 4795   5.547   2.423  10.883  0.0657 -0.7628 -0.2718
   36POPC    HA 4796   5.540   2.312  10.875 -0.4307 -0.8671  1.3911
   36POPC    HB 4797   5.647   2.461  10.854  0.6221 -0.0506  2.3452
   36POPC    C2 4798   5.439   2.491  10.791 -0.0248  0.1700 -0.5250
   36POPC    HS 4799   5.443   2.601  10.805  3.3785  0.6277 -3.7082
   36POPC   O21 4800   5.306   2.446  10.837  0.3698 -0.2899 -0.6223
   36POPC   C21 4801   5.257   2.516  10.942  0.1233  1.3227 -0.4046
   36POPC   O22 4802   5.309   2.612  10.992 -0.3537 -0.5649 -0.2315
   36POPC   C22 4803   5.127   2.456  10.998  0.4442 -0.2224  0.0695
   36POPC   H2R 4804   5.144   2.467  11.107  3.2501  0.6101 -0.3749
   36POPC   H2S 4805   5.134   2.349  10.969  1.0370  0.0870 -0.9842
   36POPC    C3 4806   5.452   2.443  10.649 -0.3566  0.5969  0.1666
   36POPC    HX 4807   5.484   2.337  10.650 -0.3168  0.5960 -0.9229
   36POPC    HY 4808   5.536   2.498  10.602 -0.5238 -0.9854 -2.1442
   36POPC   O31 4809   5.340   2.453  10.561 -0.0584  0.2310  0.7268
   36POPC   C31 4810   5.301   2.576  10.519  0.3456 -0.7139  0.3497
   36POPC   O32 4811   5.349   2.683  10.554  0.4032 -0.1064  0.1528
   36POPC   C32 4812   5.190   2.562  10.409 -0.5613  0.4357  0.0179
   36POPC   H2X 4813   5.156   2.457  10.414  1.9410 -0.6173 -2.3584
   36POPC   H2Y 4814   5.237   2.556  10.309 -0.9328 -1.1171 -0.0814
   36POPC   C23 4815   4.992   2.528  10.958 -0.1801 -0.5260 -0.9357
   36POPC   H3R 4816   5.003   2.637  10.977 -0.6228 -0.7338  0.6412
   36POPC   H3S 4817   4.909   2.492  11.022  0.8991  1.1783  1.5532
   36POPC   C24 4818   4.947   2.506  10.818  0.2201 -0.4892 -0.0773
   36POPC   H4R 4819   5.023   2.548  10.749 -0.0541  1.3693  0.7167
   36POPC   H4S 4820   4.855   2.563  10.792  0.2387 -0.3151  0.2407
   36POPC   C25 4821   4.923   2.364  10.776  0.3931 -0.5177 -0.2881
   36POPC   H5R 4822   4.866   2.309  10.854  0.5677 -0.4608 -0.1207
   36POPC   H5S 4823   5.021   2.312  10.767  1.6961  1.6183  0.9154
   36POPC   C26 4824   4.850   2.358  10.640  0.4289 -0.7426  0.4538
   36POPC   H6R 4825   4.881   2.446  10.580  1.1818 -0.4423  1.2554
   36POPC   H6S 4826   4.742   2.378  10.655  1.0564  2.0498  1.7379
   36POPC   C27 4827   4.882   2.231  10.562  0.2065  0.0614 -0.2466
   36POPC   H7R 4828   4.844   2.142  10.617 -0.9687  2.0496  2.3947
   36POPC   H7S 4829   4.986   2.210  10.529 -0.5614 -0.8107 -2.3004
   36POPC   C28 4830   4.808   2.217  10.424 -0.0473  0.2209 -0.2989
   36POPC   H8R 4831   4.840   2.307  10.366  5.2674 -0.3882  1.0991
   36POPC   H8S 4832   4.704   2.233  10.458  0.5792  3.3986  0.4903
   36POPC   C29 4833   4.831   2.093  10.351  0.2796  0.5280  0.2066
   36POPC   H91 4834   4.822   1.997  10.404 -1.0126 -0.5602 -1.8316
   36POPC  C210 4835   4.876   2.087  10.219  0.3522  0.4611  0.4148
   36POPC  H101 4836   4.862   1.991  10.168  0.3052  0.4214  0.5004
   36POPC  C211 4837   4.911   2.194  10.116  0.8605 -0.7279 -0.0800
   36POPC  H11R 4838   5.020   2.191  10.097  0.8073 -0.3381 -0.4600
   36POPC  H11S 4839   4.890   2.299  10.146  0.7888 -0.5921 -0.5998
   36POPC  C212 4840   4.838   2.158   9.983  0.4459  0.2087  0.7351
   36POPC  H12R 4841   4.730   2.183   9.991 -0.0543 -1.8774  1.1484
   36POPC  H12S 4842   4.843   2.051   9.951  1.2530  0.2455  0.7247
   36POPC  C213 4843   4.890   2.240   9.864 -0.4924  0.1838  0.2627
   36POPC  H13R 4844   5.001   2.244   9.867 -0.5495  1.2446  1.6590
   36POPC  H13S 4845   4.868   2.347   9.884  0.8903  1.2458 -3.2057
   36POPC  C214 4846   4.845   2.191   9.728  0.4055 -0.2965  0.0651
   36POPC  H14R 4847   4.743   2.147   9.724  0.9905 -1.6556 -0.5148
   36POPC  H14S 4848   4.922   2.114   9.702 -0.1534 -2.1567  3.2874
   36POPC  C215 4849   4.841   2.304   9.618 -0.1111  0.1389  0.6597
   36POPC  H15R 4850   4.940   2.353   9.606 -1.5139  2.5484 -2.2872
   36POPC  H15S 4851   4.766   2.378   9.652 -2.4629 -0.7659 -2.1283
   36POPC  C216 4852   4.778   2.263   9.485 -0.5790 -0.1979 -0.1086
   36POPC  H16R 4853   4.668   2.249   9.488 -0.3297 -2.5719 -0.4552
   36POPC  H16S 4854   4.828   2.168   9.458 -1.8933 -1.0122  0.2369
   36POPC  C217 4855   4.789   2.376   9.387 -0.2173 -0.9986  1.3334
   36POPC  H17R 4856   4.895   2.406   9.370 -0.6342 -0.4475 -0.4776
   36POPC  H17S 4857   4.732   2.466   9.418  2.3397  1.7088 -1.0719
   36POPC  C218 4858   4.739   2.335   9.247  0.3694 -0.1217  0.6117
   36POPC  H18R 4859   4.730   2.417   9.173  0.7732 -0.3412  0.3182
   36POPC  H18S 4860   4.641   2.282   9.252  1.1742 -2.1789 -2.5801
   36POPC  H18T 4861   4.800   2.259   9.195 -0.5360  0.2280 -1.0164
   36POPC   C33 4862   5.080   2.668  10.392  0.2151 -0.3323  0.3203
   36POPC   H3X 4863   5.111   2.770  10.423 -3.2651  0.9520  0.0133
   36POPC   H3Y 4864   4.989   2.645  10.451  0.6075 -0.7196  0.7934
   36POPC   C34 4865   5.028   2.676  10.244 -0.4414 -0.8655  0.7160
   36POPC   H4X 4866   4.931   2.728  10.235 -0.0701 -0.4286 -1.2846
   36POPC   H4Y 4867   5.021   2.576  10.195 -2.5643 -0.1369 -0.5801
   36POPC   C35 4868   5.111   2.776  10.152  0.1049  0.0359 -0.1645
   36POPC   H5X 4869   5.215   2.739  10.161 -0.2498 -0.7975  0.6731
   36POPC   H5Y 4870   5.090   2.872  10.205 -3.2432  0.0577 -1.2390
   36POPC   C36 4871   5.070   2.780  10.004  0.2587 -0.2155  0.2005
   36POPC   H6X 4872   5.110   2.871   9.956 -1.8850  0.6671 -0.0031
   36POPC   H6Y 4873   4.960   2.789   9.989  0.6085  1.2277 -1.8182
   36POPC   C37 4874   5.113   2.662   9.924  0.2705 -0.4034  0.1437
   36POPC   H7X 4875   5.056   2.567   9.939 -0.1210 -1.2942 -5.0433
   36POPC   H7Y 4876   5.220   2.640   9.943  0.3407  0.7276  1.1359
   36POPC   C38 4877   5.115   2.683   9.769 -0.0786  0.5417  0.7567
   36POPC   H8X 4878   5.173   2.771   9.735 -0.3542 -0.3807 -2.3982
   36POPC   H8Y 4879   5.012   2.722   9.748 -0.0780 -0.7749 -2.1443
   36POPC   C39 4880   5.150   2.556   9.694  0.2195  0.9450 -0.1208
   36POPC   H9X 4881   5.107   2.466   9.744  1.6507  1.8536  2.9910
   36POPC   H9Y 4882   5.259   2.539   9.705  0.0848 -1.4251 -1.5612
   36POPC  C310 4883   5.116   2.551   9.546  0.4247  0.1806  0.0486
   36POPC  H10X 4884   5.008   2.565   9.524  0.3406 -0.3204  0.1333
   36POPC  H10Y 4885   5.126   2.448   9.507  0.4407  0.6042 -1.1201
   36POPC  C311 4886   5.212   2.649   9.472  0.4129  0.7687 -0.2577
   36POPC  H11X 4887   5.314   2.629   9.510  0.6991  1.3749 -0.7036
   36POPC  H11Y 4888   5.175   2.750   9.497 -0.0090  0.3717  0.7887
   36POPC  C312 4889   5.205   2.642   9.322  0.1496 -0.1814  0.3022
   36POPC  H12X 4890   5.261   2.728   9.279 -1.1715  0.7887  0.4604
   36POPC  H12Y 4891   5.101   2.653   9.285  0.4600 -0.6544 -0.7396
   36POPC  C313 4892   5.247   2.510   9.256 -0.1827 -0.1229 -0.0077
   36POPC  H13X 4893   5.188   2.434   9.313  0.4009 -0.1704  0.5513
   36POPC  H13Y 4894   5.356   2.490   9.263 -0.4760 -2.0420 -0.3150
   36POPC  C314 4895   5.209   2.492   9.106  0.0853  0.4313  0.1941
   36POPC  H14X 4896   5.273   2.561   9.046  0.4652  1.3050  1.5633
   36POPC  H14Y 4897   5.102   2.518   9.093 -1.2712 -3.1927  2.5711
   36POPC  C315 4898   5.212   2.348   9.050 -0.0359  0.3183  0.2066
   36POPC  H15X 4899   5.318   2.320   9.035  0.7496  3.8501 -1.9554
   36POPC  H15Y 4900   5.168   2.339   8.949  1.2649 -1.1946 -0.2624
   36POPC  C316 4901   5.141   2.246   9.139  0.1259  0.0483  0.8253
   36POPC  H16X 4902   5.120   2.154   9.082 -1.1028  0.8788 -0.1269
   36POPC  H16Y 4903   5.045   2.295   9.169  1.3899  5.3346 -2.3813
   36POPC  H16Z 4904   5.199   2.210   9.226  1.4018  0.3259  0.1076
   37POPC     N 4905   3.660   2.543   6.806  0.0605 -0.5404  0.3845
   37POPC   C12 4906   3.736   2.678   6.831  0.6605  0.1090  0.4869
   37POPC  H12A 4907   3.711   2.708   6.932 -1.0975 -0.8320  0.3665
   37POPC  H12B 4908   3.690   2.753   6.769 -1.3711  1.3174  3.2224
   37POPC   C13 4909   3.515   2.551   6.844 -0.2519 -0.4017 -0.1792
   37POPC  H13A 4910   3.475   2.453   6.869 -2.2832 -0.0171 -1.7088
   37POPC  H13B 4911   3.502   2.604   6.937  0.4426 -2.1190  0.9559
   37POPC  H13C 4912   3.446   2.589   6.771 -1.3047 -2.2553 -0.2244
   37POPC   C14 4913   3.655   2.526   6.658  0.6385 -0.0439  0.3036
   37POPC  H14A 4914   3.756   2.535   6.620  0.6705 -2.1184 -0.2089
   37POPC  H14B 4915   3.619   2.428   6.633  0.0840  0.2682 -0.1580
   37POPC  H14C 4916   3.583   2.597   6.618  1.4647  1.7671  1.8569
   37POPC   C15 4917   3.724   2.431   6.874  0.5881 -0.9390  0.8704
   37POPC  H15A 4918   3.825   2.428   6.836 -0.2801 -0.3603 -1.6336
   37POPC  H15B 4919   3.672   2.338   6.856 -1.5233  0.4633 -0.7042
   37POPC  H15C 4920   3.724   2.451   6.980  1.0860  0.1515  0.6733
   37POPC   C11 4921   3.885   2.672   6.806 -0.5109  0.4074  0.3400
   37POPC  H11A 4922   3.925   2.582   6.857 -1.8049  0.2025  1.0140
   37POPC  H11B 4923   3.930   2.759   6.859 -2.0155  2.1306 -1.0862
   37POPC     P 4924   3.882   2.802   6.577 -0.2123 -0.1196 -0.5328
   37POPC   O13 4925   3.741   2.783   6.531  0.2692  0.2085  0.0390
   37POPC   O14 4926   3.984   2.814   6.466 -0.1773  0.2759 -0.8516
   37POPC   O12 4927   3.924   2.675   6.671 -0.7273  0.4914 -0.2130
   37POPC   O11 4928   3.880   2.926   6.677  0.1661 -0.2581 -0.4058
   37POPC    C1 4929   3.966   3.045   6.682  0.2552  0.3484  0.5142
   37POPC    HA 4930   3.918   3.144   6.670  0.0839  0.8427  4.0844
   37POPC    HB 4931   4.038   3.049   6.597  1.5745  2.7652  1.6129
   37POPC    C2 4932   4.049   3.056   6.813 -0.6273  0.2556  0.4998
   37POPC    HS 4933   4.137   3.122   6.798  0.5532 -1.6015 -1.3857
   37POPC   O21 4934   4.096   2.924   6.862 -0.3540 -0.3500 -0.1775
   37POPC   C21 4935   4.196   2.876   6.800  0.1582 -0.8767 -0.7877
   37POPC   O22 4936   4.264   2.927   6.711  0.2233 -0.3345 -0.3193
   37POPC   C22 4937   4.231   2.755   6.887  0.2232 -0.4242 -0.8323
   37POPC   H2R 4938   4.313   2.693   6.844 -1.3387 -2.0512 -1.6247
   37POPC   H2S 4939   4.143   2.687   6.884 -0.2795  0.0428  1.5741
   37POPC    C3 4940   3.961   3.122   6.925  0.2217 -0.1245  0.5571
   37POPC    HX 4941   3.893   3.048   6.970  1.2903 -2.0032 -0.7977
   37POPC    HY 4942   3.893   3.190   6.869 -0.1781 -1.0938 -0.1580
   37POPC   O31 4943   4.036   3.198   7.025 -0.5597 -0.4573  0.4031
   37POPC   C31 4944   4.047   3.156   7.147 -0.2925 -0.2696  0.0511
   37POPC   O32 4945   4.015   3.049   7.191  0.1619  0.0483  0.3002
   37POPC   C32 4946   4.126   3.251   7.237  0.3937  0.0422 -0.4147
   37POPC   H2X 4947   4.159   3.187   7.321 -4.9240 -0.2991  1.8631
   37POPC   H2Y 4948   4.065   3.333   7.281  2.1570  1.7542 -0.9765
   37POPC   C23 4949   4.267   2.799   7.038 -0.5436  0.3736 -0.2353
   37POPC   H3R 4950   4.277   2.701   7.089  2.0865  0.4034 -0.5291
   37POPC   H3S 4951   4.186   2.860   7.084 -0.3821 -0.2679  0.9315
   37POPC   C24 4952   4.403   2.869   7.050  0.6640 -0.4482  0.3792
   37POPC   H4R 4953   4.394   2.961   6.989 -1.3569  0.5563  2.0648
   37POPC   H4S 4954   4.481   2.800   7.012  1.5580 -0.6611  2.4347
   37POPC   C25 4955   4.451   2.913   7.187 -0.6719  0.0737 -0.6183
   37POPC   H5R 4956   4.440   2.832   7.262 -0.2463 -0.8164 -1.4911
   37POPC   H5S 4957   4.378   2.993   7.214  0.1844  0.6534  0.0318
   37POPC   C26 4958   4.581   2.990   7.195  0.4775  0.0566  0.2051
   37POPC   H6R 4959   4.567   3.082   7.135 -1.6014 -1.6489 -2.1840
   37POPC   H6S 4960   4.666   2.935   7.149  0.9088  2.0692 -1.5666
   37POPC   C27 4961   4.618   3.033   7.340  0.3859 -0.3346 -0.2426
   37POPC   H7R 4962   4.529   3.082   7.383  1.0409  0.9814 -0.3514
   37POPC   H7S 4963   4.704   3.103   7.334  0.8070 -0.7539  0.7154
   37POPC   C28 4964   4.660   2.914   7.429 -0.5290  0.2757 -0.2006
   37POPC   H8R 4965   4.728   2.850   7.369  2.7774 -0.2024  3.6009
   37POPC   H8S 4966   4.571   2.850   7.447  0.5977 -0.9529  1.3692
   37POPC   C29 4967   4.739   2.953   7.551  0.1331 -0.6091 -0.9170
   37POPC   H91 4968   4.847   2.940   7.536  0.0696 -0.8716 -1.1583
   37POPC  C210 4969   4.694   3.026   7.658  0.3831 -0.1545  0.3329
   37POPC  H101 4970   4.770   3.046   7.735  2.6489 -2.3113 -1.1845
   37POPC  C211 4971   4.551   3.069   7.692 -1.2168  0.3595  0.1446
   37POPC  H11R 4972   4.474   2.994   7.666 -1.1031  0.8459 -1.7125
   37POPC  H11S 4973   4.540   3.160   7.630  0.8570 -0.7272 -1.9557
   37POPC  C212 4974   4.530   3.098   7.847 -0.1203 -0.0174 -0.0166
   37POPC  H12R 4975   4.611   3.165   7.882 -0.4077 -0.3844  1.4449
   37POPC  H12S 4976   4.549   2.998   7.891 -1.8708 -0.5545 -0.4008
   37POPC  C213 4977   4.391   3.146   7.884  0.1645  0.6632  0.5292
   37POPC  H13R 4978   4.330   3.056   7.861  0.7017  0.3670  0.2480
   37POPC  H13S 4979   4.365   3.224   7.808 -1.2493 -0.9884 -0.7612
   37POPC  C214 4980   4.364   3.174   8.033  0.7766 -0.1425 -0.9831
   37POPC  H14R 4981   4.430   3.254   8.071 -0.7123 -0.1150  1.8461
   37POPC  H14S 4982   4.393   3.085   8.093  0.8456 -0.2368 -1.1561
   37POPC  C215 4983   4.220   3.189   8.069  0.1659 -0.2199  0.1348
   37POPC  H15R 4984   4.172   3.095   8.033  2.2132  0.0563 -3.8822
   37POPC  H15S 4985   4.167   3.271   8.015 -0.7980 -0.4882  0.6368
   37POPC  C216 4986   4.192   3.218   8.220  0.6180 -0.0717 -0.1377
   37POPC  H16R 4987   4.217   3.322   8.251  0.9432 -0.6760  1.7519
   37POPC  H16S 4988   4.242   3.146   8.288  0.3960 -0.2972 -0.2128
   37POPC  C217 4989   4.045   3.206   8.255  0.0175  0.4853 -0.2502
   37POPC  H17R 4990   4.041   3.202   8.366  1.8056 -2.4225 -0.1898
   37POPC  H17S 4991   4.012   3.108   8.213  1.2832 -0.2673  0.4460
   37POPC  C218 4992   3.955   3.320   8.196  0.6231  0.0448 -0.3104
   37POPC  H18R 4993   3.855   3.314   8.245  0.9331 -0.6535  0.2629
   37POPC  H18S 4994   3.938   3.315   8.087  0.4250  2.5748 -0.4487
   37POPC  H18T 4995   4.002   3.418   8.218 -0.0508  0.0136  1.5061
   37POPC   C33 4996   4.242   3.305   7.151  0.1478 -0.4308  0.3432
   37POPC   H3X 4997   4.208   3.387   7.085 -0.7935 -1.7407 -0.8638
   37POPC   H3Y 4998   4.286   3.231   7.079  1.5574  0.6559  0.0428
   37POPC   C34 4999   4.352   3.364   7.242 -0.7866 -0.3905 -0.0568
   37POPC   H4X 5000   4.424   3.410   7.170 -0.4251 -0.6815  0.1171
   37POPC   H4Y 5001   4.407   3.287   7.299  1.2761  0.8682 -0.2432
   37POPC   C35 5002   4.294   3.466   7.342 -0.1143  0.4146 -0.4528
   37POPC   H5X 5003   4.228   3.417   7.416 -0.2069  0.9048 -0.2049
   37POPC   H5Y 5004   4.232   3.540   7.287 -1.9860  0.6723  1.8171
   37POPC   C36 5005   4.396   3.539   7.432  0.3276 -0.4232  0.4943
   37POPC   H6X 5006   4.363   3.643   7.453 -1.4140 -0.9190  0.4069
   37POPC   H6Y 5007   4.493   3.541   7.378  0.0087 -0.5137 -0.0904
   37POPC   C37 5008   4.413   3.474   7.573 -0.1307 -0.4361 -0.2521
   37POPC   H7X 5009   4.464   3.376   7.561  1.5419  0.4634 -0.8315
   37POPC   H7Y 5010   4.316   3.459   7.624 -0.1547 -0.6212 -0.3519
   37POPC   C38 5011   4.484   3.566   7.667 -0.2279  0.4460 -0.0945
   37POPC   H8X 5012   4.429   3.661   7.686 -0.4822  0.5849 -1.4310
   37POPC   H8Y 5013   4.587   3.582   7.631 -0.4305  1.5713 -0.2088
   37POPC   C39 5014   4.485   3.510   7.810  0.8552  0.3966 -0.4400
   37POPC   H9X 5015   4.537   3.412   7.806 -0.3014 -0.3353  1.2014
   37POPC   H9Y 5016   4.382   3.476   7.837 -0.2404  2.2133 -2.1096
   37POPC  C310 5017   4.529   3.611   7.922  0.0807 -0.0670  0.6072
   37POPC  H10X 5018   4.452   3.689   7.939  1.6989  2.3345 -2.2250
   37POPC  H10Y 5019   4.621   3.664   7.893  0.1431  0.4393  1.6707
   37POPC  C311 5020   4.552   3.538   8.050 -0.4317 -1.0701 -0.8227
   37POPC  H11X 5021   4.626   3.456   8.038 -0.5571 -0.9121 -3.0656
   37POPC  H11Y 5022   4.455   3.495   8.082 -1.2948  0.7868 -0.7883
   37POPC  C312 5023   4.609   3.632   8.156  0.0724 -0.1322 -0.8695
   37POPC  H12X 5024   4.536   3.713   8.178  0.0342 -0.3419 -0.2247
   37POPC  H12Y 5025   4.698   3.689   8.120  1.3612 -0.6968  1.2765
   37POPC  C313 5026   4.654   3.544   8.283  0.2524  0.3619  1.1243
   37POPC  H13X 5027   4.739   3.480   8.251 -0.9096 -0.3679 -0.6229
   37POPC  H13Y 5028   4.566   3.480   8.305  2.1626 -3.2676 -0.9296
   37POPC  C314 5029   4.677   3.626   8.407  0.1235  0.0318 -0.0442
   37POPC  H14X 5030   4.628   3.725   8.393 -0.7285 -0.4169 -0.2848
   37POPC  H14Y 5031   4.784   3.654   8.416 -0.6594  3.2191  0.5010
   37POPC  C315 5032   4.624   3.557   8.533  0.6614 -0.4058 -0.5907
   37POPC  H15X 5033   4.673   3.606   8.619  0.9210  0.5040 -1.2506
   37POPC  H15Y 5034   4.648   3.448   8.528  2.1165 -0.3017  2.0170
   37POPC  C316 5035   4.471   3.573   8.546 -0.2610 -0.6856  0.4308
   37POPC  H16X 5036   4.451   3.550   8.653 -1.2995 -2.0252 -0.0297
   37POPC  H16Y 5037   4.400   3.512   8.486 -1.0816 -0.9813  1.6558
   37POPC  H16Z 5038   4.453   3.682   8.533  1.5512 -0.3809  0.0920
   38POPC     N 5039   6.131   6.108   6.369  0.7336  0.1589  0.3290
   38POPC   C12 5040   6.223   6.202   6.445 -0.1806  0.5567 -0.4689
   38POPC  H12A 5041   6.320   6.156   6.458 -0.6124 -1.5485 -3.5343
   38POPC  H12B 5042   6.194   6.214   6.548 -0.0353 -1.5211 -0.1382
   38POPC   C13 5043   6.141   5.973   6.425  0.3659  0.2681  0.6152
   38POPC  H13A 5044   6.082   5.896   6.379 -1.0183  0.9499  1.1798
   38POPC  H13B 5045   6.244   5.941   6.419  0.5603  1.1446 -3.9396
   38POPC  H13C 5046   6.116   5.961   6.530 -0.8058 -0.0343  0.3098
   38POPC   C14 5047   5.997   6.158   6.376 -0.0084 -0.0057 -0.1317
   38POPC  H14A 5048   6.001   6.257   6.334  0.9076 -0.0268 -0.1319
   38POPC  H14B 5049   5.926   6.109   6.311  1.2094 -0.8514 -0.8679
   38POPC  H14C 5050   5.967   6.167   6.479  0.9170  3.0413 -0.0524
   38POPC   C15 5051   6.174   6.092   6.218  0.6731  0.3683  0.0992
   38POPC  H15A 5052   6.181   6.194   6.182 -2.0044  1.0141  1.1523
   38POPC  H15B 5053   6.092   6.042   6.171  0.4675  0.5942  0.2149
   38POPC  H15C 5054   6.265   6.036   6.201  0.6357  0.0308  0.9551
   38POPC   C11 5055   6.242   6.350   6.390  0.3818 -0.1037 -0.1093
   38POPC  H11A 5056   6.293   6.321   6.295  0.9025 -0.5013  0.2870
   38POPC  H11B 5057   6.313   6.401   6.458  0.2417 -1.5302  1.1639
   38POPC     P 5058   6.113   6.568   6.434  0.3425 -0.0868 -0.2788
   38POPC   O13 5059   5.975   6.621   6.408  0.0509 -1.0170 -0.2762
   38POPC   O14 5060   6.221   6.648   6.368 -0.0446 -0.2326 -0.2183
   38POPC   O12 5061   6.117   6.420   6.378 -0.4496  0.1689 -0.3285
   38POPC   O11 5062   6.134   6.562   6.587  0.1252  0.5366  0.1777
   38POPC    C1 5063   6.086   6.457   6.666  0.6407 -0.0717 -0.7253
   38POPC    HA 5064   6.143   6.366   6.638  0.3079 -0.9847  1.3470
   38POPC    HB 5065   5.975   6.452   6.657  0.6433 -2.7945 -0.3064
   38POPC    C2 5066   6.112   6.485   6.817 -0.1640  0.0005 -0.4408
   38POPC    HS 5067   6.221   6.476   6.832 -0.1209 -0.8543 -1.1810
   38POPC   O21 5068   6.046   6.380   6.898  0.0352 -0.3161 -0.2161
   38POPC   C21 5069   6.117   6.273   6.912  0.1874  0.1424 -0.1844
   38POPC   O22 5070   6.209   6.237   6.848  0.3848 -0.4673  0.1058
   38POPC   C22 5071   6.039   6.176   7.006 -0.4265  0.1773  0.0997
   38POPC   H2R 5072   6.092   6.078   7.010 -1.9296 -0.8633 -2.4893
   38POPC   H2S 5073   5.944   6.161   6.951 -0.3637  1.4626 -0.4007
   38POPC    C3 5074   6.071   6.627   6.862 -0.0605  0.4016 -0.2956
   38POPC    HX 5075   5.962   6.637   6.841  0.2249  1.2589 -1.4686
   38POPC    HY 5076   6.133   6.693   6.797  0.6817  0.0017 -0.0061
   38POPC   O31 5077   6.107   6.658   6.994  0.6628  0.2876  0.7118
   38POPC   C31 5078   6.009   6.715   7.064  0.4113 -0.7349  0.5005
   38POPC   O32 5079   5.908   6.767   7.025 -0.1014 -0.6986  0.1520
   38POPC   C32 5080   6.032   6.708   7.214 -0.5066 -0.1057  0.2851
   38POPC   H2X 5081   6.091   6.798   7.242 -2.7934  1.0830  1.6433
   38POPC   H2Y 5082   6.093   6.618   7.235 -0.3592  0.1771  1.1120
   38POPC   C23 5083   6.032   6.236   7.146  0.5550 -0.5898 -0.4843
   38POPC   H3R 5084   5.969   6.328   7.148 -0.8678 -1.5334 -0.3441
   38POPC   H3S 5085   6.124   6.253   7.206 -0.5599 -0.5573  1.2913
   38POPC   C24 5086   5.955   6.131   7.231  0.1523 -0.2980 -0.1527
   38POPC   H4R 5087   6.020   6.041   7.230 -1.5179 -1.5349 -0.0129
   38POPC   H4S 5088   5.859   6.121   7.175  1.2038  1.5725 -2.4857
   38POPC   C25 5089   5.923   6.172   7.375 -0.1586  0.5400  0.2929
   38POPC   H5R 5090   5.875   6.271   7.388 -0.5330  0.2932  0.8036
   38POPC   H5S 5091   6.026   6.188   7.416 -0.6997  2.9221  0.8783
   38POPC   C26 5092   5.849   6.066   7.463  0.6361  0.3125  0.2130
   38POPC   H6R 5093   5.910   5.974   7.461 -0.2426 -0.2784  0.3668
   38POPC   H6S 5094   5.759   6.054   7.400  1.3779  0.7955 -0.9852
   38POPC   C27 5095   5.806   6.105   7.606 -0.1171  0.4488  0.2083
   38POPC   H7R 5096   5.746   6.199   7.603 -0.0181  0.4815 -1.2685
   38POPC   H7S 5097   5.897   6.137   7.661  0.6475 -1.8604  0.3620
   38POPC   C28 5098   5.733   5.993   7.679 -0.1102 -0.0281  0.5827
   38POPC   H8R 5099   5.802   5.906   7.687  1.1080  0.7835 -0.7262
   38POPC   H8S 5100   5.655   5.968   7.605  2.3906 -2.6813 -1.4015
   38POPC   C29 5101   5.673   6.027   7.811  0.2244 -0.6213  0.4956
   38POPC   H91 5102   5.573   6.074   7.814 -0.0515 -1.1073 -0.4775
   38POPC  C210 5103   5.714   5.986   7.933 -0.6954 -0.8256  0.6989
   38POPC  H101 5104   5.648   6.021   8.014 -0.8034  1.7517 -0.3959
   38POPC  C211 5105   5.827   5.897   7.961 -0.6553  0.5476 -0.3629
   38POPC  H11R 5106   5.916   5.949   8.004  0.1350 -0.2174 -1.0423
   38POPC  H11S 5107   5.870   5.853   7.869 -0.4744  1.8626 -0.9347
   38POPC  C212 5108   5.801   5.781   8.058 -0.2798 -0.1470 -1.0284
   38POPC  H12R 5109   5.887   5.712   8.050  0.4907  0.6353  0.2670
   38POPC  H12S 5110   5.699   5.744   8.031 -0.7883  1.1183 -0.9153
   38POPC  C213 5111   5.790   5.826   8.204 -0.1428  0.5019 -0.1790
   38POPC  H13R 5112   5.754   5.931   8.215 -0.9487  0.1860  0.1848
   38POPC  H13S 5113   5.892   5.830   8.249  0.1150 -0.9644 -0.5855
   38POPC  C214 5114   5.699   5.729   8.287  0.1035  0.8403  0.7258
   38POPC  H14R 5115   5.744   5.631   8.310  0.5590  1.1969  1.3825
   38POPC  H14S 5116   5.611   5.711   8.222  0.0076 -0.1221  1.1145
   38POPC  C215 5117   5.646   5.799   8.411 -0.3661 -0.6036 -0.0508
   38POPC  H15R 5118   5.567   5.740   8.461 -3.1790  3.2530  0.4790
   38POPC  H15S 5119   5.606   5.896   8.374 -0.2742  0.5408  2.6364
   38POPC  C216 5120   5.750   5.825   8.525 -0.0403 -0.0411 -0.0159
   38POPC  H16R 5121   5.838   5.871   8.476 -0.7865 -2.0887 -3.5899
   38POPC  H16S 5122   5.780   5.725   8.563  1.1597  0.7409  1.1903
   38POPC  C217 5123   5.693   5.909   8.637 -0.3668  0.0856 -0.6803
   38POPC  H17R 5124   5.683   6.013   8.600 -0.3209  0.6038  0.6944
   38POPC  H17S 5125   5.762   5.926   8.723 -0.1196 -1.3926 -0.5688
   38POPC  C218 5126   5.561   5.857   8.697  0.2020 -0.4537  0.1454
   38POPC  H18R 5127   5.480   5.858   8.621  2.9124  1.2077 -2.9666
   38POPC  H18S 5128   5.511   5.930   8.764 -1.5056  1.7675 -3.2735
   38POPC  H18T 5129   5.573   5.758   8.746  0.4665 -1.2856 -1.5218
   38POPC   C33 5130   5.906   6.706   7.303  0.3270 -0.2717 -0.0887
   38POPC   H3X 5131   5.828   6.636   7.266  0.5852 -0.8152  0.3858
   38POPC   H3Y 5132   5.863   6.809   7.300  0.2556 -0.3261 -2.1410
   38POPC   C34 5133   5.947   6.678   7.452 -0.2425 -0.4120 -0.3052
   38POPC   H4X 5134   5.994   6.770   7.493 -3.1795  0.5186  1.2075
   38POPC   H4Y 5135   6.021   6.595   7.459  0.0374 -0.2836 -1.4330
   38POPC   C35 5136   5.838   6.622   7.544 -0.5066 -0.4616  0.6533
   38POPC   H5X 5137   5.793   6.531   7.499 -0.1576 -0.6646  0.7103
   38POPC   H5Y 5138   5.757   6.694   7.569 -0.3358 -0.2984  0.7437
   38POPC   C36 5139   5.902   6.589   7.681 -0.0071 -0.1663 -0.4962
   38POPC   H6X 5140   5.909   6.684   7.739 -1.4497  0.8990 -1.9518
   38POPC   H6Y 5141   6.007   6.556   7.665  0.4206 -0.0664  1.7570
   38POPC   C37 5142   5.823   6.482   7.756 -0.3078  0.2160  0.2497
   38POPC   H7X 5143   5.839   6.389   7.697 -1.0556  0.6499 -0.6575
   38POPC   H7Y 5144   5.716   6.509   7.764 -0.4624  0.0628 -1.1325
   38POPC   C38 5145   5.875   6.467   7.890 -0.2732 -0.3299  0.2236
   38POPC   H8X 5146   5.882   6.567   7.939 -0.6711 -0.5255  0.6794
   38POPC   H8Y 5147   5.979   6.429   7.875  0.0255  0.9180 -1.1457
   38POPC   C39 5148   5.800   6.362   7.978 -0.0749 -0.3080  0.8143
   38POPC   H9X 5149   5.807   6.268   7.919  1.3136 -0.0347  0.5077
   38POPC   H9Y 5150   5.694   6.390   7.995 -0.5431 -0.4587 -1.5243
   38POPC  C310 5151   5.876   6.335   8.108  0.2476  0.7226 -0.2395
   38POPC  H10X 5152   5.910   6.434   8.148  0.6364  1.2667 -1.8469
   38POPC  H10Y 5153   5.966   6.272   8.094 -1.2447 -1.0913 -2.1589
   38POPC  C311 5154   5.795   6.258   8.213 -0.2080  0.3246 -0.2236
   38POPC  H11X 5155   5.870   6.206   8.275 -0.1176  1.4557  0.6476
   38POPC  H11Y 5156   5.735   6.176   8.167 -1.8051  1.1281  0.3394
   38POPC  C312 5157   5.699   6.340   8.298  0.2646  0.1269  0.3851
   38POPC  H12X 5158   5.607   6.375   8.246  1.1266  1.3031 -0.3935
   38POPC  H12Y 5159   5.753   6.424   8.345  1.9801 -0.1192 -1.0554
   38POPC  C313 5160   5.644   6.250   8.410  0.3394 -0.5878  0.1549
   38POPC  H13X 5161   5.720   6.204   8.477  0.8690 -2.9547 -1.9183
   38POPC  H13Y 5162   5.580   6.171   8.365 -1.2878  0.7954 -0.0403
   38POPC  C314 5163   5.541   6.323   8.503 -0.3319  0.2952  0.3893
   38POPC  H14X 5164   5.455   6.365   8.446 -1.1743 -0.7748  0.8299
   38POPC  H14Y 5165   5.597   6.409   8.546  1.4362 -0.3991 -0.4548
   38POPC  C315 5166   5.504   6.226   8.615 -0.0784 -0.2142  0.0495
   38POPC  H15X 5167   5.590   6.190   8.675  0.5237  0.5883 -0.3275
   38POPC  H15Y 5168   5.471   6.134   8.562 -0.5556  1.0699 -1.9771
   38POPC  C316 5169   5.396   6.278   8.715  0.0399 -0.0097  0.4387
   38POPC  H16X 5170   5.434   6.368   8.766 -0.8668  0.4952  0.2498
   38POPC  H16Y 5171   5.378   6.195   8.787  1.7360 -2.3849 -1.6743
   38POPC  H16Z 5172   5.299   6.285   8.661 -0.2888 -0.3626  0.9646
   39POPC     N 5173   2.605   4.647   5.916  0.3826 -0.5808  0.2672
   39POPC   C12 5174   2.623   4.638   6.068 -0.2149  0.4116 -0.7929
   39POPC  H12A 5175   2.639   4.736   6.110  0.9329 -0.2188  0.3421
   39POPC  H12B 5176   2.704   4.571   6.095 -0.7553  0.2688  0.5606
   39POPC   C13 5177   2.723   4.684   5.836  0.1049  0.5368 -0.9583
   39POPC  H13A 5178   2.712   4.672   5.729  2.0655 -2.4437 -0.9419
   39POPC  H13B 5179   2.748   4.786   5.860  0.5913  0.3004 -0.4513
   39POPC  H13C 5180   2.798   4.611   5.863 -1.7057 -1.4524 -0.9952
   39POPC   C14 5181   2.560   4.511   5.873 -0.9051  0.1817 -0.1071
   39POPC  H14A 5182   2.464   4.479   5.913 -1.4679  0.6784 -1.0263
   39POPC  H14B 5183   2.546   4.531   5.768 -0.4479  0.9309 -0.0321
   39POPC  H14C 5184   2.638   4.438   5.884  0.1233  1.3508  0.5343
   39POPC   C15 5185   2.487   4.737   5.892 -0.1190  0.2785  0.7551
   39POPC  H15A 5186   2.511   4.838   5.922 -0.0998 -0.0911  2.0474
   39POPC  H15B 5187   2.406   4.699   5.953 -0.2053  0.6480  0.8764
   39POPC  H15C 5188   2.466   4.727   5.786  3.5192  0.0592 -0.0671
   39POPC   C11 5189   2.504   4.581   6.159 -0.6046  0.5332 -0.3811
   39POPC  H11A 5190   2.536   4.600   6.264  1.1395  0.4439 -0.8694
   39POPC  H11B 5191   2.499   4.473   6.136 -2.5324  0.5489 -0.2357
   39POPC     P 5192   2.235   4.582   6.163 -0.2302  0.2490 -0.3200
   39POPC   O13 5193   2.218   4.475   6.063  0.1407 -0.1283  0.1336
   39POPC   O14 5194   2.144   4.693   6.149  0.0765  0.1013  0.1910
   39POPC   O12 5195   2.381   4.651   6.138 -0.0380  0.2635  0.4493
   39POPC   O11 5196   2.260   4.527   6.308 -0.2877 -0.0524  0.0868
   39POPC    C1 5197   2.170   4.427   6.360 -0.3191 -0.3510  0.4805
   39POPC    HA 5198   2.205   4.328   6.322 -0.8163  0.0241 -1.0529
   39POPC    HB 5199   2.063   4.445   6.337  0.1842 -0.7121 -2.6857
   39POPC    C2 5200   2.174   4.407   6.514 -0.2491 -0.5651 -0.5136
   39POPC    HS 5201   2.157   4.300   6.534 -0.0864 -0.5700 -0.4010
   39POPC   O21 5202   2.083   4.497   6.570  0.1710 -0.5690 -0.6076
   39POPC   C21 5203   2.026   4.475   6.680  0.0623  0.0154 -0.7018
   39POPC   O22 5204   2.022   4.368   6.742 -0.7134  0.0112 -0.0721
   39POPC   C22 5205   1.964   4.601   6.747 -0.1309  0.2545 -0.3020
   39POPC   H2R 5206   1.905   4.581   6.839  0.9599 -0.1691  0.3251
   39POPC   H2S 5207   1.891   4.645   6.676 -0.1641 -0.5114 -0.7530
   39POPC    C3 5208   2.316   4.432   6.577  0.2498  0.1710  0.2170
   39POPC    HX 5209   2.335   4.539   6.597 -0.5237  0.0406  1.7752
   39POPC    HY 5210   2.395   4.395   6.507 -1.2683 -1.3894 -0.7594
   39POPC   O31 5211   2.325   4.346   6.695 -0.1938  0.4771 -0.1428
   39POPC   C31 5212   2.437   4.366   6.760 -0.4387  0.2011 -0.6302
   39POPC   O32 5213   2.522   4.446   6.728 -0.2083 -0.4180 -0.7039
   39POPC   C32 5214   2.437   4.294   6.897 -0.1953  0.2314  0.0607
   39POPC   H2X 5215   2.367   4.347   6.965 -2.0708 -0.7267 -1.0100
   39POPC   H2Y 5216   2.392   4.193   6.879  2.3549 -1.3157  1.7600
   39POPC   C23 5217   2.073   4.704   6.764 -1.2600  0.1065  0.3726
   39POPC   H3R 5218   2.027   4.796   6.806  1.3167  1.6842 -0.0308
   39POPC   H3S 5219   2.124   4.743   6.673  0.5100  0.0525  1.3007
   39POPC   C24 5220   2.180   4.661   6.868  0.6665 -0.2926  0.7489
   39POPC   H4R 5221   2.251   4.746   6.878 -0.7167  1.0933 -0.5846
   39POPC   H4S 5222   2.235   4.572   6.829 -1.7002 -0.9955 -1.2893
   39POPC   C25 5223   2.122   4.628   7.005  0.3828  0.7680  0.0006
   39POPC   H5R 5224   2.044   4.549   6.994 -1.2906  2.4042 -0.2715
   39POPC   H5S 5225   2.063   4.714   7.042  0.9414  0.1804  2.4591
   39POPC   C26 5226   2.229   4.575   7.110 -0.4165 -0.5146  0.2083
   39POPC   H6R 5227   2.326   4.628   7.107 -0.2763 -0.7327  0.7732
   39POPC   H6S 5228   2.248   4.470   7.078  0.3937  0.0728 -1.3901
   39POPC   C27 5229   2.170   4.564   7.247  0.4369  0.2878  0.0769
   39POPC   H7R 5230   2.069   4.520   7.233  0.6973 -0.5864  0.8639
   39POPC   H7S 5231   2.161   4.665   7.294 -1.2660  0.2785 -0.1485
   39POPC   C28 5232   2.258   4.466   7.333 -0.2274 -0.6499 -0.3276
   39POPC   H8R 5233   2.346   4.528   7.360 -1.1186 -0.2678  1.8846
   39POPC   H8S 5234   2.285   4.371   7.283 -3.0456 -2.0578  0.6463
   39POPC   C29 5235   2.184   4.435   7.462  0.1278 -0.3204 -0.9310
   39POPC   H91 5236   2.083   4.394   7.448 -0.8193  1.2779  0.7670
   39POPC  C210 5237   2.222   4.467   7.589  0.4508  0.3009  0.1047
   39POPC  H101 5238   2.142   4.450   7.663  0.2178  2.2841  0.3645
   39POPC  C211 5239   2.349   4.533   7.646 -0.2561  0.3432  0.0935
   39POPC  H11R 5240   2.322   4.628   7.697 -1.5353 -0.5120  1.0661
   39POPC  H11S 5241   2.414   4.567   7.563 -0.7761 -2.4542 -1.5827
   39POPC  C212 5242   2.444   4.458   7.746 -0.1050 -0.7441  0.4725
   39POPC  H12R 5243   2.537   4.518   7.752 -2.3014  2.9977  0.3513
   39POPC  H12S 5244   2.459   4.357   7.703 -2.2805 -1.3341  0.9361
   39POPC  C213 5245   2.382   4.432   7.879  0.0580  0.1363 -0.2330
   39POPC  H13R 5246   2.297   4.501   7.900  0.2317  0.4154 -0.4308
   39POPC  H13S 5247   2.450   4.469   7.959 -0.9357  2.0931 -0.2311
   39POPC  C214 5248   2.336   4.287   7.901  0.3364 -0.0092  0.2525
   39POPC  H14R 5249   2.424   4.222   7.884 -1.9920 -3.3768  0.1577
   39POPC  H14S 5250   2.258   4.270   7.824 -0.2936 -0.7750  1.0550
   39POPC  C215 5251   2.277   4.266   8.041  0.1235  0.0866  0.1804
   39POPC  H15R 5252   2.238   4.163   8.059 -1.6401  1.1114  2.9214
   39POPC  H15S 5253   2.193   4.338   8.055 -0.4535 -0.3900 -0.6877
   39POPC  C216 5254   2.385   4.295   8.154  0.6754  0.7499 -0.2941
   39POPC  H16R 5255   2.415   4.402   8.154  1.5082  0.5248 -0.0854
   39POPC  H16S 5256   2.479   4.238   8.134 -0.5427 -0.6502 -2.4603
   39POPC  C217 5257   2.329   4.248   8.287  0.1875  0.3310 -0.3403
   39POPC  H17R 5258   2.308   4.139   8.281 -1.3047  0.5550  0.3113
   39POPC  H17S 5259   2.231   4.299   8.303  0.7813  1.5849 -0.5675
   39POPC  C218 5260   2.427   4.273   8.405 -0.9223  0.6830 -0.0948
   39POPC  H18R 5261   2.384   4.235   8.500  1.7105  0.1840  0.9737
   39POPC  H18S 5262   2.444   4.383   8.407  1.1244  0.3881  0.8935
   39POPC  H18T 5263   2.522   4.219   8.390 -1.0430  0.9375 -2.0668
   39POPC   C33 5264   2.563   4.295   6.980 -0.2701  0.3631 -0.3817
   39POPC   H3X 5265   2.651   4.316   6.916 -1.1273 -0.0362 -1.7177
   39POPC   H3Y 5266   2.574   4.191   7.016  1.1228  0.3297 -0.8597
   39POPC   C34 5267   2.569   4.399   7.093 -0.0731  0.5185 -0.8593
   39POPC   H4X 5268   2.476   4.410   7.152  0.8397  3.7422  0.1921
   39POPC   H4Y 5269   2.579   4.500   7.046 -0.7802  1.6205  1.2350
   39POPC   C35 5270   2.679   4.361   7.192  0.2542  0.3229  0.3533
   39POPC   H5X 5271   2.720   4.455   7.234 -0.2329  0.6071  0.1901
   39POPC   H5Y 5272   2.749   4.311   7.121  1.1686  4.3593 -1.9000
   39POPC   C36 5273   2.626   4.263   7.304  0.2469  0.4850  0.6408
   39POPC   H6X 5274   2.594   4.165   7.262 -0.8464  1.1254 -0.0866
   39POPC   H6Y 5275   2.548   4.313   7.366  1.5006  3.7109 -0.1936
   39POPC   C37 5276   2.734   4.236   7.410  0.4310  0.4258 -0.4290
   39POPC   H7X 5277   2.768   4.335   7.447  0.5538  0.0206  0.5746
   39POPC   H7Y 5278   2.821   4.184   7.363 -1.0879 -2.0585 -0.6613
   39POPC   C38 5279   2.667   4.159   7.525  0.1148 -0.0369 -0.0270
   39POPC   H8X 5280   2.607   4.084   7.469  0.6025 -1.0436  0.7851
   39POPC   H8Y 5281   2.595   4.228   7.574 -2.2002 -1.4056 -1.3173
   39POPC   C39 5282   2.763   4.095   7.617 -0.3619  0.3739  0.4494
   39POPC   H9X 5283   2.838   4.166   7.658 -1.0920  1.6168 -0.2758
   39POPC   H9Y 5284   2.819   4.025   7.552 -0.4074  0.6584  0.0957
   39POPC  C310 5285   2.698   4.021   7.731  0.4823  0.7812 -0.3334
   39POPC  H10X 5286   2.634   3.933   7.708 -0.7314  1.2445  1.1172
   39POPC  H10Y 5287   2.620   4.091   7.768 -0.9525 -0.9304  0.0531
   39POPC  C311 5288   2.786   3.975   7.845 -0.0353  0.3073  0.0605
   39POPC  H11X 5289   2.855   4.057   7.873  0.6724 -0.4931  0.7339
   39POPC  H11Y 5290   2.850   3.894   7.804 -1.9876  0.7868 -4.6358
   39POPC  C312 5291   2.708   3.925   7.972 -1.3297 -0.1012  0.3783
   39POPC  H12X 5292   2.623   3.861   7.941 -1.6287  0.8631 -0.8449
   39POPC  H12Y 5293   2.664   4.015   8.020 -0.5542  0.0038  0.9194
   39POPC  C313 5294   2.807   3.856   8.067  0.0061 -0.8150  0.0563
   39POPC  H13X 5295   2.871   3.941   8.099 -1.9677  1.4453 -1.6544
   39POPC  H13Y 5296   2.880   3.794   8.012  1.5335 -0.0001  1.0700
   39POPC  C314 5297   2.740   3.796   8.194  0.1163 -0.1638  0.2060
   39POPC  H14X 5298   2.680   3.707   8.165  0.3071 -0.4387  0.6403
   39POPC  H14Y 5299   2.685   3.880   8.243  0.6422  0.8454 -0.8809
   39POPC  C315 5300   2.858   3.746   8.282  0.1781  0.0524 -0.3183
   39POPC  H15X 5301   2.944   3.815   8.293  0.2151 -0.3263  2.5755
   39POPC  H15Y 5302   2.892   3.654   8.229 -2.3688 -0.9014 -0.4627
   39POPC  C316 5303   2.801   3.723   8.425 -0.0926 -0.4289  0.2418
   39POPC  H16X 5304   2.801   3.827   8.465  1.4189 -0.3580  0.0952
   39POPC  H16Y 5305   2.872   3.672   8.493 -0.3029 -1.1013 -0.0396
   39POPC  H16Z 5306   2.707   3.667   8.406  1.0432 -1.7707 -1.8252
   40POPC     N 5307   2.421   5.793   6.094  0.1853  0.8479 -0.0863
   40POPC   C12 5308   2.391   5.923   6.166 -0.3550 -0.0704  0.4690
   40POPC  H12A 5309   2.383   5.890   6.269  0.5029  0.1242  0.6087
   40POPC  H12B 5310   2.298   5.968   6.136  0.3826  0.6597 -0.8053
   40POPC   C13 5311   2.297   5.710   6.081 -0.4755 -0.6422 -0.4848
   40POPC  H13A 5312   2.263   5.662   6.172 -0.3402 -2.6528 -1.4502
   40POPC  H13B 5313   2.218   5.768   6.035  0.8480 -0.8453 -3.2039
   40POPC  H13C 5314   2.328   5.630   6.016  1.4961  0.3529 -0.8248
   40POPC   C14 5315   2.480   5.824   5.962 -0.1170 -0.3076 -0.2861
   40POPC  H14A 5316   2.565   5.886   5.986 -0.7395  0.5794 -0.3478
   40POPC  H14B 5317   2.507   5.739   5.900 -0.1662 -2.0499  1.9548
   40POPC  H14C 5318   2.413   5.879   5.897 -0.2493  0.0406  0.1441
   40POPC   C15 5319   2.525   5.706   6.164 -0.5730 -0.0973  0.7477
   40POPC  H15A 5320   2.470   5.674   6.251 -1.8272 -0.0221  0.0198
   40POPC  H15B 5321   2.605   5.768   6.200 -1.7244  0.8179  1.8374
   40POPC  H15C 5322   2.551   5.623   6.101 -1.6434  0.1615 -0.0823
   40POPC   C11 5323   2.496   6.038   6.168 -0.1535 -0.0442 -0.3636
   40POPC  H11A 5324   2.445   6.120   6.223 -0.8006 -1.1650  0.7636
   40POPC  H11B 5325   2.518   6.073   6.065  1.0891  1.0349  0.2312
   40POPC     P 5326   2.632   5.981   6.392 -0.0298 -0.2138 -0.2505
   40POPC   O13 5327   2.691   6.104   6.450  0.7126 -0.1534 -0.1760
   40POPC   O14 5328   2.711   5.852   6.418  0.4417  0.2649 -0.8221
   40POPC   O12 5329   2.623   6.005   6.239 -0.0563  0.9182  0.7162
   40POPC   O11 5330   2.482   5.962   6.447  0.1717 -0.6072 -0.5454
   40POPC    C1 5331   2.421   5.843   6.490 -1.0002  0.1494  0.5829
   40POPC    HA 5332   2.491   5.759   6.472  0.7677  1.9171 -1.4772
   40POPC    HB 5333   2.327   5.834   6.431  0.0715 -2.1367 -0.9082
   40POPC    C2 5334   2.382   5.853   6.632 -0.1341 -0.4362 -0.2141
   40POPC    HS 5335   2.335   5.951   6.655  2.2495  0.6511  0.3641
   40POPC   O21 5336   2.492   5.839   6.723 -0.2838  0.4317  0.1355
   40POPC   C21 5337   2.553   5.951   6.765  0.4136  0.4520  0.3757
   40POPC   O22 5338   2.525   6.066   6.738 -0.1393 -0.4774  0.1775
   40POPC   C22 5339   2.671   5.917   6.864  0.7147  0.1837  0.1048
   40POPC   H2R 5340   2.759   5.953   6.806 -0.4301 -1.5847 -2.9750
   40POPC   H2S 5341   2.682   5.808   6.879  2.5995  0.2154 -0.8139
   40POPC    C3 5342   2.287   5.728   6.659 -0.0567 -0.4307  0.1249
   40POPC    HX 5343   2.348   5.635   6.657  1.5941  0.5784  1.0508
   40POPC    HY 5344   2.209   5.729   6.580  0.8270 -0.4427 -0.7667
   40POPC   O31 5345   2.227   5.738   6.794  0.5678  0.3508  0.7210
   40POPC   C31 5346   2.148   5.634   6.816 -0.1412 -0.4207  0.2687
   40POPC   O32 5347   2.094   5.568   6.727 -0.3833 -0.4539  0.1637
   40POPC   C32 5348   2.130   5.619   6.966 -0.2546  0.2728 -0.5709
   40POPC   H2X 5349   2.078   5.710   7.004 -1.3657 -0.9494  0.9375
   40POPC   H2Y 5350   2.232   5.600   7.004 -0.4857 -1.4637 -0.7532
   40POPC   C23 5351   2.674   5.987   6.998 -0.0607 -0.4678 -0.6975
   40POPC   H3R 5352   2.648   6.095   6.988 -1.0396 -0.6699 -0.4440
   40POPC   H3S 5353   2.775   5.986   7.043 -0.7718 -3.0658  1.0501
   40POPC   C24 5354   2.582   5.926   7.108 -0.1869 -0.5073 -0.6486
   40POPC   H4R 5355   2.617   5.968   7.205  1.8334  0.7965 -1.8643
   40POPC   H4S 5356   2.604   5.817   7.107  0.7241 -0.3363 -0.7778
   40POPC   C25 5357   2.438   5.961   7.087 -0.5113 -0.5801  0.1007
   40POPC   H5R 5358   2.405   5.906   6.996  1.7231 -1.7378 -0.0713
   40POPC   H5S 5359   2.424   6.070   7.072  0.5263 -0.6215 -1.3979
   40POPC   C26 5360   2.360   5.924   7.213 -0.3786 -0.4195  0.2543
   40POPC   H6R 5361   2.409   5.981   7.295  0.2625 -0.7179  0.0842
   40POPC   H6S 5362   2.380   5.819   7.242 -0.4375 -0.5946 -0.3346
   40POPC   C27 5363   2.215   5.962   7.204  0.0169 -0.2295 -0.1478
   40POPC   H7R 5364   2.175   5.907   7.116  1.4518  1.2187 -1.7820
   40POPC   H7S 5365   2.218   6.070   7.176 -0.4317  0.1094  1.0625
   40POPC   C28 5366   2.131   5.932   7.329  0.2878  0.3235  0.0685
   40POPC   H8R 5367   2.128   5.823   7.353  0.1481  0.1479 -0.7377
   40POPC   H8S 5368   2.029   5.971   7.307 -0.7927 -2.0848  0.4306
   40POPC   C29 5369   2.182   6.006   7.453  0.2094  0.4520  0.8253
   40POPC   H91 5370   2.261   6.079   7.430 -0.8665  1.0124 -1.3917
   40POPC  C210 5371   2.145   5.974   7.579  0.0226 -0.2418  0.1038
   40POPC  H101 5372   2.201   6.018   7.663 -0.9859 -2.0388  1.8205
   40POPC  C211 5373   2.035   5.879   7.628 -1.2057 -0.0899  0.5863
   40POPC  H11R 5374   2.079   5.816   7.708 -2.1397  1.3630  2.3289
   40POPC  H11S 5375   1.989   5.819   7.547 -1.6182 -1.2157  1.6210
   40POPC  C212 5376   1.925   5.956   7.704  1.2733 -0.3403  0.1733
   40POPC  H12R 5377   1.966   6.041   7.763  2.4401 -0.7670 -0.0112
   40POPC  H12S 5378   1.877   5.878   7.768 -0.9684  0.9176  0.1351
   40POPC  C213 5379   1.806   6.019   7.627  0.6006  0.9007 -0.1550
   40POPC  H13R 5380   1.766   5.946   7.553 -1.9886  0.8779  1.1553
   40POPC  H13S 5381   1.844   6.112   7.579  2.3895  1.3326  1.8884
   40POPC  C214 5382   1.703   6.069   7.729  0.1404 -0.6838  0.2492
   40POPC  H14R 5383   1.745   6.141   7.802 -1.3739  0.6786 -0.1538
   40POPC  H14S 5384   1.684   5.978   7.789 -0.0914 -0.4000  0.6099
   40POPC  C215 5385   1.570   6.122   7.673 -0.0340  0.5171  0.4860
   40POPC  H15R 5386   1.527   6.037   7.615 -1.5483  0.7725  1.1766
   40POPC  H15S 5387   1.588   6.209   7.606  2.2192  0.4984  0.9713
   40POPC  C216 5388   1.471   6.154   7.785  0.2305  0.5348  0.0451
   40POPC  H16R 5389   1.445   6.063   7.844 -1.7526  1.0456  0.0250
   40POPC  H16S 5390   1.372   6.182   7.742 -0.1500 -1.8758 -0.8386
   40POPC  C217 5391   1.513   6.258   7.888  0.0461 -0.2798 -0.6955
   40POPC  H17R 5392   1.515   6.351   7.827 -1.6827 -0.3627 -0.9504
   40POPC  H17S 5393   1.611   6.249   7.939 -1.2306  1.2311  2.2689
   40POPC  C218 5394   1.406   6.281   7.994 -1.0192 -0.3731 -0.6997
   40POPC  H18R 5395   1.390   6.192   8.059  0.4923  0.6171  1.1340
   40POPC  H18S 5396   1.312   6.316   7.947  0.1700  0.5749 -2.5102
   40POPC  H18T 5397   1.435   6.356   8.071 -0.4985 -2.8808  1.7034
   40POPC   C33 5398   2.044   5.504   7.009 -0.2058 -0.0468  0.0299
   40POPC   H3X 5399   2.082   5.405   6.975  0.4062  0.0991  0.2868
   40POPC   H3Y 5400   1.942   5.513   6.964 -0.0470  0.3472 -0.2544
   40POPC   C34 5401   2.028   5.521   7.162  0.9947  0.0639  0.4123
   40POPC   H4X 5402   1.961   5.440   7.199 -0.0890  1.0067  0.5930
   40POPC   H4Y 5403   1.961   5.608   7.181 -0.1768 -0.5551 -0.7074
   40POPC   C35 5404   2.154   5.537   7.250  0.3908  0.3977  0.0043
   40POPC   H5X 5405   2.188   5.638   7.218 -1.9297  0.5664 -2.3068
   40POPC   H5Y 5406   2.219   5.453   7.220 -0.1014 -1.4112  3.5057
   40POPC   C36 5407   2.115   5.514   7.393  0.3038 -0.4843  0.8240
   40POPC   H6X 5408   2.077   5.410   7.402  0.5850 -0.5096  1.7853
   40POPC   H6Y 5409   2.029   5.583   7.412 -0.8414 -1.2340 -1.2589
   40POPC   C37 5410   2.217   5.522   7.510 -0.5269 -0.3997  1.2711
   40POPC   H7X 5411   2.269   5.616   7.535  3.8362 -2.3187  0.3997
   40POPC   H7Y 5412   2.294   5.460   7.459 -2.3234 -1.1428 -0.6753
   40POPC   C38 5413   2.167   5.462   7.640 -0.4322  0.1680  0.1775
   40POPC   H8X 5414   2.102   5.375   7.616  0.0728  0.6475 -3.4745
   40POPC   H8Y 5415   2.109   5.535   7.701 -0.4679 -0.7994  1.3386
   40POPC   C39 5416   2.289   5.427   7.736  0.6999 -0.2521  0.0805
   40POPC   H9X 5417   2.357   5.513   7.754 -1.0783  0.7658  2.7993
   40POPC   H9Y 5418   2.342   5.338   7.697  0.8190 -0.5838  0.9632
   40POPC  C310 5419   2.237   5.380   7.882  0.0151  0.7653  0.1568
   40POPC  H10X 5420   2.169   5.292   7.874  1.3931 -0.2190 -2.1509
   40POPC  H10Y 5421   2.176   5.460   7.927 -0.4196  1.6126 -1.8035
   40POPC  C311 5422   2.354   5.343   7.983  0.2684 -0.0069 -0.5222
   40POPC  H11X 5423   2.418   5.434   7.973 -2.3169  1.7946 -2.0344
   40POPC  H11Y 5424   2.408   5.258   7.938 -0.8918 -0.4027 -1.2208
   40POPC  C312 5425   2.297   5.337   8.119 -0.2413  0.3324 -0.2623
   40POPC  H12X 5426   2.201   5.282   8.119  0.9570 -2.2151  4.1594
   40POPC  H12Y 5427   2.262   5.438   8.150  0.0910 -0.2060  2.0311
   40POPC  C313 5428   2.386   5.257   8.212 -0.2429  0.6645  0.0104
   40POPC  H13X 5429   2.492   5.289   8.202  0.6023 -1.9213 -0.1398
   40POPC  H13Y 5430   2.387   5.154   8.171 -0.1185  0.6938 -0.0601
   40POPC  C314 5431   2.355   5.275   8.362  0.2811  0.2619  0.0869
   40POPC  H14X 5432   2.244   5.273   8.373  0.1252  3.1635 -0.1877
   40POPC  H14Y 5433   2.395   5.377   8.381  1.9047 -0.1687 -0.8345
   40POPC  C315 5434   2.440   5.177   8.445  0.2307  0.0930  0.2050
   40POPC  H15X 5435   2.422   5.077   8.400 -0.6190  0.1234  0.4520
   40POPC  H15Y 5436   2.406   5.172   8.551  0.2284 -1.2343  0.1539
   40POPC  C316 5437   2.593   5.204   8.434  0.2306  0.5258  0.3589
   40POPC  H16X 5438   2.635   5.133   8.359 -0.2897  0.5761  0.0068
   40POPC  H16Y 5439   2.653   5.191   8.526 -0.9757  1.3395  1.2911
   40POPC  H16Z 5440   2.605   5.314   8.423 -0.4926  0.8524  2.4094
   41CHL1    C3 5441   1.086   1.361  10.099  0.1554 -0.5073 -0.4599
   41CHL1    H3 5442   1.132   1.260  10.095  0.5753 -0.2802 -1.8264
   41CHL1    O3 5443   1.058   1.387  10.235  0.0375  0.4398  0.3865
   41CHL1   H3' 5444   1.129   1.344  10.283 -0.1045 -0.4061 -0.1447
   41CHL1    C4 5445   1.188   1.465  10.054  0.1732 -0.1223  0.2970
   41CHL1   H4A 5446   1.148   1.565  10.081 -2.6594 -1.3117  0.8983
   41CHL1   H4B 5447   1.274   1.447  10.122  0.1451 -0.7711  0.1640
   41CHL1    C5 5448   1.217   1.456   9.907 -0.8902 -0.5271  0.0305
   41CHL1    C6 5449   1.339   1.422   9.864 -0.1086  0.3405 -0.5540
   41CHL1    H6 5450   1.414   1.410   9.944 -1.1837 -0.4205  0.3732
   41CHL1    C7 5451   1.390   1.412   9.722 -0.4296 -0.1826  0.2312
   41CHL1   H7A 5452   1.482   1.472   9.707  1.2214 -2.3877  0.9797
   41CHL1   H7B 5453   1.421   1.307   9.703 -0.6752 -0.9095  3.3181
   41CHL1    C8 5454   1.279   1.457   9.623 -0.2954  0.7706  0.1726
   41CHL1    H8 5455   1.283   1.568   9.614  1.5541  0.6927 -0.3522
   41CHL1   C14 5456   1.302   1.396   9.483 -0.1930  0.4202  0.8606
   41CHL1   H14 5457   1.309   1.286   9.500  0.7194  0.3820  0.3061
   41CHL1   C15 5458   1.433   1.444   9.425  0.1111  0.7393  0.2116
   41CHL1  H15A 5459   1.427   1.555   9.427  2.0165  0.8690  1.9573
   41CHL1  H15B 5460   1.529   1.400   9.460 -0.0692 -0.7149 -0.9936
   41CHL1   C16 5461   1.434   1.401   9.275 -0.3576 -0.1510 -0.5951
   41CHL1  H16A 5462   1.468   1.483   9.208 -0.3283 -0.2862 -0.7456
   41CHL1  H16B 5463   1.491   1.311   9.245 -1.8649 -0.7415 -1.8253
   41CHL1   C17 5464   1.282   1.360   9.247 -0.2082 -0.1209 -0.3224
   41CHL1   H17 5465   1.301   1.251   9.251  0.7226 -0.0805 -2.2802
   41CHL1   C13 5466   1.200   1.416   9.371 -0.5133  0.0775 -0.1953
   41CHL1   C18 5467   1.170   1.569   9.342 -0.2374  0.7067 -0.6845
   41CHL1  H18A 5468   1.257   1.618   9.294  0.2398  1.3637  0.8041
   41CHL1  H18B 5469   1.080   1.584   9.279  0.9451 -0.5472 -2.7819
   41CHL1  H18C 5470   1.154   1.617   9.441 -0.3333  0.4540 -0.5769
   41CHL1   C12 5471   1.078   1.346   9.421  1.4017 -0.0052  0.1796
   41CHL1  H12A 5472   0.997   1.359   9.347 -0.5449 -1.4009  1.9549
   41CHL1  H12B 5473   1.096   1.238   9.438 -1.2561 -0.9686 -2.4731
   41CHL1   C11 5474   1.031   1.407   9.556  0.2551 -0.1219  0.3953
   41CHL1  H11A 5475   1.001   1.513   9.542 -0.0940 -0.1071  1.1667
   41CHL1  H11B 5476   0.939   1.353   9.586 -0.1060  0.0382 -0.3913
   41CHL1    C9 5477   1.140   1.401   9.670  0.2796  0.5055  0.0847
   41CHL1    H9 5478   1.160   1.294   9.690 -0.8619  0.2534 -0.0601
   41CHL1   C10 5479   1.094   1.448   9.812 -0.1820  0.4171  0.6290
   41CHL1   C19 5480   1.038   1.590   9.795  0.0573 -0.3991  0.0661
   41CHL1  H19A 5481   1.018   1.636   9.894  1.5028  5.1190 -1.8412
   41CHL1  H19B 5482   1.111   1.655   9.742  0.9000 -0.5565  0.9978
   41CHL1  H19C 5483   0.940   1.594   9.744 -1.1406 -0.4463  2.2284
   41CHL1    C1 5484   0.984   1.350   9.863 -0.6658  0.5114 -0.3851
   41CHL1   H1A 5485   0.885   1.377   9.820 -1.7771 -0.9624  1.1419
   41CHL1   H1B 5486   1.025   1.247   9.856 -1.5361 -0.0072  1.6099
   41CHL1    C2 5487   0.959   1.369  10.014 -0.7876  0.6516  0.1572
   41CHL1   H2A 5488   0.870   1.312  10.045  0.0479 -1.3857 -1.0381
   41CHL1   H2B 5489   0.926   1.475  10.017  0.4359  1.1742 -2.2772
   41CHL1   C20 5490   1.226   1.397   9.103 -0.6341  0.2571 -0.7400
   41CHL1   H20 5491   1.197   1.503   9.086 -1.2329  0.0722 -0.9122
   41CHL1   C21 5492   1.098   1.304   9.083 -0.2676 -0.4228 -0.1511
   41CHL1  H21A 5493   1.136   1.203   9.110  1.0765 -0.1815 -1.0643
   41CHL1  H21B 5494   1.056   1.314   8.980 -2.5009 -0.8475  0.6669
   41CHL1  H21C 5495   1.014   1.337   9.147 -1.1264 -2.4436 -0.1446
   41CHL1   C22 5496   1.334   1.365   8.991  0.3805 -0.6437 -0.5263
   41CHL1  H22A 5497   1.436   1.400   9.016  0.5105  0.1505 -2.0129
   41CHL1  H22B 5498   1.334   1.255   8.978  2.3463 -0.8313  0.7340
   41CHL1   C23 5499   1.297   1.441   8.866  0.0818 -0.2381  0.1355
   41CHL1  H23A 5500   1.203   1.400   8.824 -0.0081 -1.2345  1.2866
   41CHL1  H23B 5501   1.271   1.546   8.894  1.2718 -0.2341  1.2944
   41CHL1   C24 5502   1.404   1.422   8.757  0.3331 -0.2748  0.4547
   41CHL1  H24A 5503   1.506   1.446   8.794  1.0600 -1.9733 -0.3367
   41CHL1  H24B 5504   1.398   1.314   8.729 -0.9195 -0.5682  1.7464
   41CHL1   C25 5505   1.360   1.492   8.631 -0.4492 -0.2114 -0.1075
   41CHL1   H25 5506   1.264   1.447   8.600  0.2888 -2.4791  0.6775
   41CHL1   C26 5507   1.338   1.640   8.654  0.5635  0.2439 -0.4046
   41CHL1  H26A 5508   1.431   1.683   8.697  1.7721  0.0109 -2.6591
   41CHL1  H26B 5509   1.308   1.690   8.559  0.6202  0.8825 -0.0896
   41CHL1  H26C 5510   1.257   1.655   8.729  1.0316  1.6659 -0.1516
   41CHL1   C27 5511   1.477   1.486   8.525 -0.4597  0.0374 -0.4570
   41CHL1  H27A 5512   1.565   1.524   8.581 -1.1361  0.9411  0.0224
   41CHL1  H27B 5513   1.501   1.384   8.489 -1.1202 -0.1290 -0.4378
   41CHL1  H27C 5514   1.451   1.552   8.440  0.1594 -0.0591 -0.7263
   42CHL1    C3 5515   0.689   0.122   9.877  0.0141 -0.4671  0.0011
   42CHL1    H3 5516   0.584   0.138   9.910 -0.2467 -0.3770 -0.8586
   42CHL1    O3 5517   0.755   0.104   9.996 -0.1659  0.0895 -0.2082
   42CHL1   H3' 5518   0.835   0.061   9.966 -1.7613 -3.7341  0.4232
   42CHL1    C4 5519   0.678  -0.008   9.792  0.3602  0.3260 -0.3568
   42CHL1   H4A 5520   0.763  -0.075   9.819  1.2223  0.7787 -1.8430
   42CHL1   H4B 5521   0.591  -0.056   9.841 -1.3197  2.3954 -1.1438
   42CHL1    C5 5522   0.655   0.017   9.644  0.4656  0.6709  0.2770
   42CHL1    C6 5523   0.562  -0.056   9.587  0.4770  0.6194  0.6981
   42CHL1    H6 5524   0.500  -0.124   9.647 -0.9273  1.6502  0.4706
   42CHL1    C7 5525   0.536  -0.040   9.439  0.4529  0.7714  0.1203
   42CHL1   H7A 5526   0.549  -0.138   9.388  0.5000 -0.1091  1.7646
   42CHL1   H7B 5527   0.431  -0.007   9.422 -0.2613 -1.3570  0.1347
   42CHL1    C8 5528   0.644   0.046   9.359 -0.3983  0.4029 -0.0634
   42CHL1    H8 5529   0.742  -0.007   9.362 -0.5377  0.1338 -0.2664
   42CHL1   C14 5530   0.584   0.072   9.222 -0.6168 -0.6257  0.5702
   42CHL1   H14 5531   0.486   0.116   9.250 -0.2927  0.6598 -0.2110
   42CHL1   C15 5532   0.547  -0.047   9.130  0.5448  0.0999  0.0333
   42CHL1  H15A 5533   0.633  -0.117   9.118 -1.8648 -3.0843 -0.0489
   42CHL1  H15B 5534   0.455  -0.104   9.156  0.0958  0.1207 -1.4433
   42CHL1   C16 5535   0.519   0.033   8.998  0.1459  0.0320 -0.0533
   42CHL1  H16A 5536   0.564  -0.026   8.915 -1.2822  0.6159 -1.2925
   42CHL1  H16B 5537   0.412   0.035   8.971  0.4573 -4.9350 -2.7812
   42CHL1   C17 5538   0.581   0.172   9.008  0.5045  0.1147 -0.1576
   42CHL1   H17 5539   0.498   0.242   9.032  0.6259  0.8547 -1.7666
   42CHL1   C13 5540   0.668   0.173   9.133  0.4246 -0.4761  0.0276
   42CHL1   C18 5541   0.798   0.106   9.103 -0.0295 -0.1237 -0.1794
   42CHL1  H18A 5542   0.852   0.067   9.192  1.1509  0.3771 -0.6731
   42CHL1  H18B 5543   0.789   0.017   9.037 -0.6337 -0.8985  0.9106
   42CHL1  H18C 5544   0.867   0.173   9.049 -0.8373 -2.2113 -4.1457
   42CHL1   C12 5545   0.687   0.305   9.219  0.1959  0.3445  0.6985
   42CHL1  H12A 5546   0.758   0.368   9.161  0.5873 -1.9202 -1.4822
   42CHL1  H12B 5547   0.586   0.351   9.215 -0.2952 -0.7745 -1.4897
   42CHL1   C11 5548   0.740   0.285   9.354 -0.3999 -0.3262 -0.3494
   42CHL1  H11A 5549   0.845   0.249   9.345 -0.9373 -1.8498 -0.8051
   42CHL1  H11B 5550   0.761   0.384   9.400 -0.2632 -0.2605 -0.5491
   42CHL1    C9 5551   0.667   0.170   9.433 -0.0026 -1.0396  0.6014
   42CHL1    H9 5552   0.566   0.215   9.445  0.3702  0.0877 -0.3370
   42CHL1   C10 5553   0.722   0.136   9.578 -0.8076  0.3595 -0.0761
   42CHL1   C19 5554   0.874   0.112   9.576  0.1569 -0.4873 -0.2070
   42CHL1  H19A 5555   0.893   0.019   9.518  1.3093 -0.1459 -0.3935
   42CHL1  H19B 5556   0.931   0.200   9.539  0.8366  0.8602  3.6082
   42CHL1  H19C 5557   0.918   0.084   9.674 -3.1994  1.4761  2.0654
   42CHL1    C1 5558   0.693   0.256   9.666  0.3518  0.6741 -0.1313
   42CHL1   H1A 5559   0.743   0.346   9.624  0.0353  0.5638 -0.7706
   42CHL1   H1B 5560   0.584   0.280   9.668  0.1765 -0.1153  1.7996
   42CHL1    C2 5561   0.741   0.247   9.810  0.5938 -0.0717 -0.1536
   42CHL1   H2A 5562   0.695   0.338   9.855 -0.6856 -0.9092  0.2857
   42CHL1   H2B 5563   0.851   0.254   9.799  0.5462 -0.4655 -0.9379
   42CHL1   C20 5564   0.640   0.211   8.875  0.4997  0.2060 -1.1474
   42CHL1   H20 5565   0.731   0.151   8.857  0.8438  0.5101 -0.4662
   42CHL1   C21 5566   0.684   0.361   8.882  0.1790 -0.3652 -0.5949
   42CHL1  H21A 5567   0.685   0.404   8.779 -0.3912  3.3100  0.8033
   42CHL1  H21B 5568   0.778   0.361   8.940 -0.8318 -0.8064  1.1342
   42CHL1  H21C 5569   0.606   0.417   8.938 -2.2981 -1.9501 -2.2171
   42CHL1   C22 5570   0.526   0.185   8.764 -0.3744  0.3810  0.5459
   42CHL1  H22A 5571   0.488   0.081   8.760  1.2065 -0.2057  0.0804
   42CHL1  H22B 5572   0.438   0.248   8.789 -0.9395 -0.6094  1.0949
   42CHL1   C23 5573   0.570   0.209   8.618  0.0827 -0.4015 -0.1805
   42CHL1  H23A 5574   0.475   0.202   8.560  0.5202 -2.1028 -0.7562
   42CHL1  H23B 5575   0.614   0.311   8.615  0.8770 -0.7497 -0.6422
   42CHL1   C24 5576   0.656   0.100   8.558  0.3685 -0.2243  1.2058
   42CHL1  H24A 5577   0.755   0.093   8.608  0.7138  1.6594  0.8653
   42CHL1  H24B 5578   0.597   0.006   8.562  0.1503 -0.1249  0.4418
   42CHL1   C25 5579   0.674   0.109   8.406  0.0267 -0.3764  0.4139
   42CHL1   H25 5580   0.579   0.138   8.357  0.4225  0.3196  0.0338
   42CHL1   C26 5581   0.794   0.207   8.371  0.1248 -0.3669 -1.4141
   42CHL1  H26A 5582   0.805   0.186   8.263  1.0896  1.6409 -1.7620
   42CHL1  H26B 5583   0.762   0.312   8.389 -0.2875 -0.6362 -0.4796
   42CHL1  H26C 5584   0.883   0.175   8.429  0.8943  1.7132 -1.3464
   42CHL1   C27 5585   0.703  -0.035   8.365 -0.1586  0.5398 -0.0064
   42CHL1  H27A 5586   0.744  -0.042   8.262  1.1907  1.5382  0.4291
   42CHL1  H27B 5587   0.789  -0.063   8.430  0.2838 -1.0791 -1.2099
   42CHL1  H27C 5588   0.621  -0.108   8.380  1.3226 -1.0875  0.5530
   43CHL1    C3 5589   0.990   0.784  10.119  0.7355  0.0369  0.2052
   43CHL1    H3 5590   1.100   0.770  10.130  0.8107 -0.7539 -1.3060
   43CHL1    O3 5591   0.949   0.816  10.253 -0.1431  0.3337  0.1337
   43CHL1   H3' 5592   0.869   0.867  10.237  1.6824  2.7851 -2.1192
   43CHL1    C4 5593   0.955   0.897  10.024 -0.1270 -0.2303 -0.6552
   43CHL1   H4A 5594   0.848   0.921  10.037  0.6889  3.0716  1.3481
   43CHL1   H4B 5595   1.001   0.991  10.063  0.2167 -0.5196 -0.3516
   43CHL1    C5 5596   1.007   0.861   9.888 -0.1141 -0.0279 -0.4030
   43CHL1    C6 5597   1.097   0.937   9.824 -0.4470 -0.3348 -0.9239
   43CHL1    H6 5598   1.132   1.031   9.870 -0.8302 -0.5097 -0.2652
   43CHL1    C7 5599   1.148   0.906   9.682  0.0996 -0.0101 -0.0840
   43CHL1   H7A 5600   1.147   0.985   9.604 -0.8638 -0.2808 -0.3599
   43CHL1   H7B 5601   1.255   0.881   9.695  0.4325  1.2150 -0.3277
   43CHL1    C8 5602   1.067   0.799   9.613 -0.6254  0.4174  0.8986
   43CHL1    H8 5603   0.973   0.847   9.576  1.1914  1.4849 -2.7930
   43CHL1   C14 5604   1.142   0.736   9.494  0.9134 -0.0593 -0.3990
   43CHL1   H14 5605   1.234   0.690   9.537  0.9689 -0.8333 -1.3042
   43CHL1   C15 5606   1.190   0.833   9.388  0.2072 -0.6392  0.7212
   43CHL1  H15A 5607   1.105   0.888   9.343 -2.1368 -3.2190  1.7512
   43CHL1  H15B 5608   1.265   0.906   9.425 -1.9536  1.4795  1.1599
   43CHL1   C16 5609   1.241   0.736   9.282 -0.7473  0.6557 -0.6375
   43CHL1  H16A 5610   1.206   0.774   9.184 -0.1490  0.7677 -0.8148
   43CHL1  H16B 5611   1.351   0.725   9.290 -0.7817  0.2167 -0.7587
   43CHL1   C17 5612   1.184   0.594   9.312 -0.6478  0.5554  0.1302
   43CHL1   H17 5613   1.265   0.534   9.358 -0.8833 -2.2095 -2.7042
   43CHL1   C13 5614   1.078   0.615   9.423  0.2461  0.1943 -0.5814
   43CHL1   C18 5615   0.946   0.665   9.358  0.4817  0.1349 -0.1124
   43CHL1  H18A 5616   0.877   0.579   9.344  0.3911 -0.0406  1.2409
   43CHL1  H18B 5617   0.893   0.726   9.435  1.6583  1.5032 -0.3473
   43CHL1  H18C 5618   0.952   0.731   9.270 -0.4068 -0.7247 -0.8422
   43CHL1   C12 5619   1.051   0.504   9.521  0.2377  0.3454  0.2625
   43CHL1  H12A 5620   0.993   0.424   9.470  0.0121  1.8203 -1.9265
   43CHL1  H12B 5621   1.150   0.467   9.555 -0.2949 -1.0487  0.3638
   43CHL1   C11 5622   0.979   0.553   9.642 -0.5456  0.0490 -0.3598
   43CHL1  H11A 5623   0.875   0.568   9.608  0.6628 -0.2406 -4.7239
   43CHL1  H11B 5624   0.973   0.476   9.723 -2.5498  0.9724  0.4265
   43CHL1    C9 5625   1.031   0.688   9.709 -0.0168  0.0129  0.0600
   43CHL1    H9 5626   1.118   0.646   9.763  1.0392  0.3336 -1.3446
   43CHL1   C10 5627   0.951   0.732   9.831 -0.4519  0.7351  0.1824
   43CHL1   C19 5628   0.809   0.747   9.782 -0.4960 -0.4265 -0.5888
   43CHL1  H19A 5629   0.794   0.826   9.705  0.2086 -0.4734 -0.7776
   43CHL1  H19B 5630   0.760   0.654   9.746 -1.1549 -0.1349 -0.4605
   43CHL1  H19C 5631   0.745   0.766   9.870 -0.3096  2.3383 -0.9370
   43CHL1    C1 5632   0.957   0.612   9.939  0.2417 -0.2686 -0.5920
   43CHL1   H1A 5633   0.886   0.532   9.909 -2.1540  1.2443  0.6677
   43CHL1   H1B 5634   1.052   0.554   9.935  0.9362  0.7547  0.4423
   43CHL1    C2 5635   0.914   0.652  10.081  0.8068 -0.4135  0.5594
   43CHL1   H2A 5636   0.927   0.573  10.158  0.7728 -1.7048 -0.7103
   43CHL1   H2B 5637   0.807   0.679  10.087  0.6594 -1.2765  3.7445
   43CHL1   C20 5638   1.139   0.523   9.186 -0.0048  0.2662 -0.4002
   43CHL1   H20 5639   1.050   0.568   9.137 -2.4889 -3.7054  0.0004
   43CHL1   C21 5640   1.084   0.388   9.221  0.7171  0.2336 -0.3302
   43CHL1  H21A 5641   1.150   0.331   9.290  0.5775 -1.2362 -1.3643
   43CHL1  H21B 5642   1.086   0.324   9.130  1.0033 -1.5150  0.8419
   43CHL1  H21C 5643   0.978   0.397   9.251 -0.1664 -2.9195 -2.0320
   43CHL1   C22 5644   1.251   0.517   9.078  0.2192  0.5611  0.5848
   43CHL1  H22A 5645   1.222   0.452   8.993  1.8628  1.9004 -1.0986
   43CHL1  H22B 5646   1.265   0.620   9.037  0.8519 -0.1376 -1.0651
   43CHL1   C23 5647   1.382   0.460   9.116 -0.1113  0.1251  0.4053
   43CHL1  H23A 5648   1.436   0.547   9.159  1.6570 -1.1194  0.8283
   43CHL1  H23B 5649   1.374   0.381   9.194 -0.1142  0.9372  1.2472
   43CHL1   C24 5650   1.464   0.414   8.994 -1.0825  0.4543  0.0798
   43CHL1  H24A 5651   1.414   0.333   8.937  3.0504 -2.8226  0.5574
   43CHL1  H24B 5652   1.474   0.504   8.929 -3.8143  1.2220  0.6101
   43CHL1   C25 5653   1.606   0.361   9.023 -0.4879  0.7966 -0.0584
   43CHL1   H25 5654   1.660   0.430   9.091 -0.4988 -1.5792  2.5341
   43CHL1   C26 5655   1.604   0.224   9.094  0.6444 -0.6642 -0.1300
   43CHL1  H26A 5656   1.713   0.205   9.106  1.0095  0.8254 -0.8387
   43CHL1  H26B 5657   1.551   0.239   9.191  2.1006 -1.3395  0.8162
   43CHL1  H26C 5658   1.544   0.154   9.032 -1.2338 -0.7134  1.6178
   43CHL1   C27 5659   1.683   0.343   8.891  0.1840  0.0758  0.2788
   43CHL1  H27A 5660   1.617   0.287   8.821 -1.2367  1.8061  0.1596
   43CHL1  H27B 5661   1.722   0.437   8.847  1.7581 -1.6014 -2.1731
   43CHL1  H27C 5662   1.772   0.289   8.928 -0.1024  0.8110  2.1270
   44CHL1    C3 5663   1.492   0.601  10.251 -0.3888  0.3161  0.0799
   44CHL1    H3 5664   1.501   0.709  10.229  0.2982  0.1653 -0.4102
   44CHL1    O3 5665   1.434   0.606  10.376  0.4563  0.5526  0.3231
   44CHL1   H3' 5666   1.409   0.516  10.401  0.6187 -0.2175 -2.0599
   44CHL1    C4 5667   1.392   0.530  10.158 -0.1387 -0.5801  0.1590
   44CHL1   H4A 5668   1.372   0.424  10.184  2.0778 -0.5512  2.4355
   44CHL1   H4B 5669   1.291   0.577  10.162  0.8426  1.6599  0.1866
   44CHL1    C5 5670   1.441   0.552  10.019 -0.0888  0.3691  0.6804
   44CHL1    C6 5671   1.372   0.617   9.917  0.1473  0.3585  0.2624
   44CHL1    H6 5672   1.273   0.657   9.946  1.6003  3.0255  2.0068
   44CHL1    C7 5673   1.431   0.639   9.775 -0.1689 -0.2968 -0.3375
   44CHL1   H7A 5674   1.360   0.607   9.696 -0.2610  1.8046 -1.1966
   44CHL1   H7B 5675   1.462   0.745   9.761  0.4781 -0.6194 -1.5129
   44CHL1    C8 5676   1.553   0.543   9.748 -0.2410 -0.1159  0.6817
   44CHL1    H8 5677   1.526   0.436   9.748  1.2142 -0.5026  0.2326
   44CHL1   C14 5678   1.618   0.580   9.614 -0.2912  0.6120 -0.0004
   44CHL1   H14 5679   1.649   0.686   9.622 -0.3429  0.5177  2.0877
   44CHL1   C15 5680   1.537   0.560   9.485 -0.1188 -0.2495  0.1985
   44CHL1  H15A 5681   1.477   0.467   9.485  0.2450 -0.5252 -2.0897
   44CHL1  H15B 5682   1.466   0.645   9.473 -0.5049 -0.1169  2.6993
   44CHL1   C16 5683   1.640   0.550   9.370 -0.1519  0.5731 -0.1565
   44CHL1  H16A 5684   1.640   0.457   9.309  2.1876  0.6930 -0.4381
   44CHL1  H16B 5685   1.639   0.633   9.295 -1.2929 -0.6036 -1.5123
   44CHL1   C17 5686   1.779   0.555   9.439 -0.0786  0.1431  0.4488
   44CHL1   H17 5687   1.811   0.661   9.449  2.7878 -0.3715 -1.7165
   44CHL1   C13 5688   1.753   0.503   9.578  0.3927 -0.2956 -0.4584
   44CHL1   C18 5689   1.725   0.358   9.583 -0.3775 -0.3301  0.1623
   44CHL1  H18A 5690   1.818   0.324   9.532  1.6382  3.2351  1.1389
   44CHL1  H18B 5691   1.710   0.314   9.683 -0.6914  0.3527  0.4217
   44CHL1  H18C 5692   1.635   0.338   9.521 -0.3183  1.8173 -0.7110
   44CHL1   C12 5693   1.850   0.557   9.683 -0.4810 -0.2446  0.0201
   44CHL1  H12A 5694   1.951   0.513   9.671 -0.3744 -0.0661  0.2504
   44CHL1  H12B 5695   1.858   0.668   9.675 -0.6504 -0.1726  0.7562
   44CHL1   C11 5696   1.799   0.514   9.827 -0.0687  0.0623 -0.2260
   44CHL1  H11A 5697   1.804   0.405   9.850  1.4230  0.6412  2.6819
   44CHL1  H11B 5698   1.871   0.558   9.899 -1.8571  3.1988 -0.1993
   44CHL1    C9 5699   1.652   0.562   9.860 -0.4118 -0.4456 -0.2301
   44CHL1    H9 5700   1.664   0.671   9.879 -0.5590 -0.5927  0.7637
   44CHL1   C10 5701   1.593   0.508   9.994 -0.7964 -0.8679  0.0602
   44CHL1   C19 5702   1.601   0.356   9.994  0.8728  0.5793 -0.0323
   44CHL1  H19A 5703   1.550   0.310   9.907 -1.5472 -0.5858  1.8941
   44CHL1  H19B 5704   1.702   0.312  10.006 -0.0828 -1.9740 -0.8401
   44CHL1  H19C 5705   1.537   0.332  10.082 -2.4545  3.7954 -1.3241
   44CHL1    C1 5706   1.677   0.555  10.120 -0.0076 -0.1514 -0.0514
   44CHL1   H1A 5707   1.777   0.508  10.110 -1.1493 -2.7732  0.0294
   44CHL1   H1B 5708   1.704   0.663  10.122  2.8701 -0.8045  0.9329
   44CHL1    C2 5709   1.618   0.520  10.250 -0.1068  0.3310  0.4056
   44CHL1   H2A 5710   1.678   0.555  10.337  0.5934 -0.4767  0.2622
   44CHL1   H2B 5711   1.601   0.410  10.256 -3.0976  0.5406 -1.8550
   44CHL1   C20 5712   1.891   0.502   9.344  0.1506  0.3893  0.4472
   44CHL1   H20 5713   1.866   0.395   9.325  0.5499 -0.0221  2.0875
   44CHL1   C21 5714   2.017   0.502   9.423 -0.4710 -0.0364 -1.1455
   44CHL1  H21A 5715   2.025   0.422   9.499 -1.0892 -2.1289 -3.1640
   44CHL1  H21B 5716   2.016   0.598   9.480  0.4243 -0.6710 -0.0180
   44CHL1  H21C 5717   2.103   0.481   9.356 -0.9278  1.6845 -2.3383
   44CHL1   C22 5718   1.899   0.571   9.201  0.6638 -0.3631 -0.2110
   44CHL1  H22A 5719   1.805   0.552   9.144  0.8186  0.4180 -0.7571
   44CHL1  H22B 5720   1.916   0.679   9.223  4.6216 -1.1595  1.2830
   44CHL1   C23 5721   2.005   0.529   9.104 -0.2860  0.2635 -0.3520
   44CHL1  H23A 5722   2.104   0.542   9.153 -0.1685  1.3105 -0.8320
   44CHL1  H23B 5723   1.996   0.420   9.083 -1.1244  0.3790 -0.6168
   44CHL1   C24 5724   2.007   0.612   8.971 -0.0885  0.0433 -0.0116
   44CHL1  H24A 5725   1.909   0.601   8.919 -0.4962  0.1176  0.7185
   44CHL1  H24B 5726   2.016   0.722   8.987 -0.4053  0.1127 -0.2917
   44CHL1   C25 5727   2.123   0.594   8.870 -1.2769  1.0003  0.8697
   44CHL1   H25 5728   2.220   0.626   8.913  1.8704  0.8284 -5.0516
   44CHL1   C26 5729   2.137   0.439   8.836  0.1723  0.1197  0.1695
   44CHL1  H26A 5730   2.036   0.401   8.810  0.2764  0.1555 -0.3041
   44CHL1  H26B 5731   2.210   0.428   8.753  0.9582 -0.9575  0.9847
   44CHL1  H26C 5732   2.174   0.385   8.926 -2.0718  1.1804  1.8499
   44CHL1   C27 5733   2.101   0.669   8.735 -0.3743 -0.7347 -0.5369
   44CHL1  H27A 5734   2.195   0.662   8.675  0.1858 -1.0488  0.3588
   44CHL1  H27B 5735   2.025   0.611   8.678 -0.4777 -0.0499 -1.1148
   44CHL1  H27C 5736   2.061   0.772   8.748 -0.5030 -0.8446 -0.0646
   45CHL1    C3 5737   4.983   5.053  10.199 -0.1854  0.5846 -0.2085
   45CHL1    H3 5738   4.891   4.993  10.184  0.3588 -0.2447 -0.3359
   45CHL1    O3 5739   5.048   5.001  10.317 -0.2191  0.2356 -0.0479
   45CHL1   H3' 5740   5.133   5.043  10.330 -0.0719  0.0029 -0.2523
   45CHL1    C4 5741   5.078   5.023  10.072  0.8280  0.2372 -0.4956
   45CHL1   H4A 5742   5.180   5.066  10.079  0.4839  1.0966 -0.6613
   45CHL1   H4B 5743   5.083   4.912  10.069  1.6486  0.2424  0.3231
   45CHL1    C5 5744   5.009   5.079   9.947  0.4603  0.4308  0.2565
   45CHL1    C6 5745   4.966   4.996   9.852  0.1753  0.8594 -0.3911
   45CHL1    H6 5746   4.994   4.890   9.862 -1.9054  0.3234  0.0767
   45CHL1    C7 5747   4.911   5.037   9.721 -0.0820  0.0523 -0.4279
   45CHL1   H7A 5748   4.973   4.982   9.647  2.6944  1.0995  0.9779
   45CHL1   H7B 5749   4.805   5.004   9.724 -0.5109  1.3536 -0.5275
   45CHL1    C8 5750   4.901   5.189   9.696  0.0195  0.0059  0.1429
   45CHL1    H8 5751   4.814   5.214   9.632  0.0045  1.3242  0.6489
   45CHL1   C14 5752   5.025   5.243   9.622  0.0426 -0.9033  0.4227
   45CHL1   H14 5753   5.121   5.219   9.673  1.5995  1.6169 -1.1181
   45CHL1   C15 5754   5.052   5.184   9.482  0.4330 -0.1186 -0.7285
   45CHL1  H15A 5755   5.162   5.178   9.468  0.6505 -0.2023  0.8202
   45CHL1  H15B 5756   5.015   5.080   9.467  0.3245 -0.1349 -0.3475
   45CHL1   C16 5757   4.981   5.276   9.380  0.1171 -0.4955 -0.0625
   45CHL1  H16A 5758   5.041   5.298   9.290 -2.2092  1.6608 -1.1804
   45CHL1  H16B 5759   4.888   5.224   9.347  0.4030 -1.3357  0.4173
   45CHL1   C17 5760   4.943   5.404   9.465 -0.0519 -0.4945 -0.2432
   45CHL1   H17 5761   4.840   5.377   9.496 -0.0743  0.1779  0.2999
   45CHL1   C13 5762   5.023   5.403   9.598  0.2779  0.0621  0.4615
   45CHL1   C18 5763   5.174   5.438   9.569  0.2761  0.2735  0.3962
   45CHL1  H18A 5764   5.196   5.545   9.547  2.1634 -0.5854 -2.3829
   45CHL1  H18B 5765   5.241   5.403   9.650  2.6114 -0.4428 -1.7200
   45CHL1  H18C 5766   5.190   5.383   9.474 -0.5291 -1.4941  1.2454
   45CHL1   C12 5767   4.971   5.493   9.714 -0.1768  0.4100 -0.2691
   45CHL1  H12A 5768   5.051   5.534   9.779 -1.2328  1.2519  0.5417
   45CHL1  H12B 5769   4.925   5.581   9.665 -1.0269  1.0134  1.5307
   45CHL1   C11 5770   4.873   5.421   9.795 -0.0800  0.3329 -0.4996
   45CHL1  H11A 5771   4.857   5.483   9.886 -0.7808  1.4790 -1.3826
   45CHL1  H11B 5772   4.775   5.420   9.743 -0.8360  0.7148  0.8458
   45CHL1    C9 5773   4.887   5.267   9.827 -0.0497  0.1390 -0.5151
   45CHL1    H9 5774   4.784   5.244   9.861  0.5724 -0.4255  1.1239
   45CHL1   C10 5775   4.976   5.229   9.945 -0.5490  0.3108 -0.0132
   45CHL1   C19 5776   5.109   5.310   9.946 -1.2113 -0.3304  0.0744
   45CHL1  H19A 5777   5.179   5.290   9.863 -0.7474  1.5239 -0.0192
   45CHL1  H19B 5778   5.097   5.420   9.955 -0.1163 -0.2620  0.8588
   45CHL1  H19C 5779   5.165   5.286  10.039 -2.7983 -1.6832  0.7328
   45CHL1    C1 5780   4.902   5.251  10.080 -0.2006 -0.1673  0.1123
   45CHL1   H1A 5781   4.897   5.361  10.092  2.8402  0.5400 -3.3323
   45CHL1   H1B 5782   4.803   5.201  10.075 -0.6599  0.5402  1.4548
   45CHL1    C2 5783   4.971   5.195  10.212  0.0052 -0.3797 -0.3673
   45CHL1   H2A 5784   4.902   5.229  10.293  0.0425  0.5518 -0.7181
   45CHL1   H2B 5785   5.064   5.256  10.209  0.2610 -0.8097 -2.0095
   45CHL1   C20 5786   4.922   5.540   9.394  0.5354  0.4039 -0.1381
   45CHL1   H20 5787   4.972   5.619   9.453 -0.5774  0.6285  0.5299
   45CHL1   C21 5788   4.771   5.583   9.388 -0.1526  0.1200  0.9112
   45CHL1  H21A 5789   4.715   5.567   9.483  1.3819  0.2367  1.8939
   45CHL1  H21B 5790   4.723   5.514   9.316 -1.3145  1.0085  0.8187
   45CHL1  H21C 5791   4.762   5.689   9.357 -0.1112 -0.7292 -2.2547
   45CHL1   C22 5792   4.993   5.549   9.262  0.1376  0.0425 -1.0797
   45CHL1  H22A 5793   5.097   5.517   9.280 -0.2491 -1.2944 -1.1205
   45CHL1  H22B 5794   4.949   5.485   9.182 -1.4038 -0.2849 -0.0259
   45CHL1   C23 5795   5.002   5.692   9.199 -0.8642 -0.2489  0.7477
   45CHL1  H23A 5796   4.906   5.738   9.167  0.3009  1.8211 -0.0233
   45CHL1  H23B 5797   5.044   5.743   9.288  1.9950  0.4159 -0.8444
   45CHL1   C24 5798   5.094   5.683   9.071 -0.5234  0.3781  0.3471
   45CHL1  H24A 5799   5.193   5.646   9.106 -0.7076  1.9981  2.8053
   45CHL1  H24B 5800   5.038   5.618   9.001  0.1371 -0.2018  0.3451
   45CHL1   C25 5801   5.120   5.825   9.005  0.4961 -0.8265 -0.5836
   45CHL1   H25 5802   5.023   5.861   8.965  0.1407 -1.4090 -0.2604
   45CHL1   C26 5803   5.165   5.930   9.107 -0.8776  0.4796 -0.0771
   45CHL1  H26A 5804   5.271   5.906   9.127 -1.1901  0.1136  1.2903
   45CHL1  H26B 5805   5.155   6.031   9.063  2.3670  1.2055  0.6390
   45CHL1  H26C 5806   5.115   5.920   9.206  2.2471 -1.7101  1.4172
   45CHL1   C27 5807   5.210   5.821   8.880 -0.1856 -0.3150 -0.7412
   45CHL1  H27A 5808   5.168   5.749   8.807 -0.0336 -0.5865 -0.5655
   45CHL1  H27B 5809   5.224   5.918   8.827 -0.8894 -0.6990 -1.6598
   45CHL1  H27C 5810   5.314   5.787   8.899  0.5061  1.5803 -0.9138
   46CHL1    C3 5811   0.871   4.023  10.200  0.0963  0.1304 -0.2479
   46CHL1    H3 5812   0.766   4.057  10.184  0.4147  0.9167 -0.6681
   46CHL1    O3 5813   0.881   4.000  10.337 -0.1742 -1.0164 -0.2010
   46CHL1   H3' 5814   0.841   3.914  10.349  2.5329 -2.3797 -0.2100
   46CHL1    C4 5815   0.885   3.886  10.124  0.4385  0.0764  0.3555
   46CHL1   H4A 5816   0.986   3.847  10.150  0.4998  1.1412  1.7992
   46CHL1   H4B 5817   0.803   3.819  10.159 -0.8044  0.9464 -0.7801
   46CHL1    C5 5818   0.881   3.904   9.975  0.1072 -0.2207  0.9226
   46CHL1    C6 5819   0.787   3.835   9.907 -0.2396 -1.0338 -0.3684
   46CHL1    H6 5820   0.717   3.768   9.960 -1.6523  3.4300  4.3076
   46CHL1    C7 5821   0.780   3.837   9.759 -0.3375  0.6900 -0.3995
   46CHL1   H7A 5822   0.770   3.738   9.711 -0.7204  0.3719  0.3378
   46CHL1   H7B 5823   0.688   3.892   9.727 -1.4087 -0.1410  1.1445
   46CHL1    C8 5824   0.896   3.919   9.694  0.5587  0.9998 -0.4066
   46CHL1    H8 5825   0.984   3.851   9.691  1.1715  1.7326  0.3143
   46CHL1   C14 5826   0.864   3.957   9.556 -0.1029 -0.8402 -0.9141
   46CHL1   H14 5827   0.774   4.022   9.566  1.4794  1.1863  0.9779
   46CHL1   C15 5828   0.831   3.843   9.461  0.6693 -0.7581  0.0433
   46CHL1  H15A 5829   0.898   3.757   9.477  1.0459 -0.5059 -0.1728
   46CHL1  H15B 5830   0.725   3.819   9.486  0.1619 -0.1143 -1.3474
   46CHL1   C16 5831   0.823   3.908   9.324 -0.1435 -0.3081 -0.5002
   46CHL1  H16A 5832   0.865   3.838   9.249 -1.5089  2.4317 -4.1422
   46CHL1  H16B 5833   0.717   3.933   9.300 -0.3983  0.9864  1.6474
   46CHL1   C17 5834   0.896   4.052   9.332  0.0656 -0.1566 -1.0593
   46CHL1   H17 5835   0.815   4.125   9.353 -0.2626 -0.8557  0.2621
   46CHL1   C13 5836   0.969   4.036   9.477  0.5104  0.2742  0.3143
   46CHL1   C18 5837   1.091   3.956   9.455  0.1545  0.1350  0.1560
   46CHL1  H18A 5838   1.161   4.027   9.406  0.2102 -0.0641 -0.0543
   46CHL1  H18B 5839   1.145   3.935   9.550  1.1154  0.8248 -0.2215
   46CHL1  H18C 5840   1.081   3.875   9.380 -0.5455  0.4077 -0.0447
   46CHL1   C12 5841   0.997   4.162   9.553 -0.3133 -0.0133 -0.7911
   46CHL1  H12A 5842   1.088   4.208   9.509 -0.1607 -0.5029 -0.9989
   46CHL1  H12B 5843   0.913   4.232   9.535 -1.3888 -1.2828 -0.8308
   46CHL1   C11 5844   1.040   4.129   9.698  0.0379 -0.1186 -0.0802
   46CHL1  H11A 5845   1.136   4.072   9.698  0.9589  1.3541  1.1323
   46CHL1  H11B 5846   1.061   4.223   9.753 -0.6335  0.5175 -0.8775
   46CHL1    C9 5847   0.933   4.042   9.774 -0.2543  0.1962  0.4381
   46CHL1    H9 5848   0.846   4.111   9.776 -1.5109 -1.3219  2.5244
   46CHL1   C10 5849   0.974   4.008   9.918 -0.3177 -0.4404 -0.4599
   46CHL1   C19 5850   1.114   3.938   9.931 -0.5773  0.3178  1.1256
   46CHL1  H19A 5851   1.193   4.013   9.909  0.2919 -1.5641 -3.0960
   46CHL1  H19B 5852   1.146   3.906  10.033  2.0338  0.4929  0.4359
   46CHL1  H19C 5853   1.129   3.854   9.860  0.6667  1.3209  0.1570
   46CHL1    C1 5854   0.978   4.147  10.002 -0.3323  0.0653 -0.6300
   46CHL1   H1A 5855   1.072   4.201   9.979  0.1972 -0.0542  1.1539
   46CHL1   H1B 5856   0.887   4.199   9.962  0.0865  1.5016  0.2118
   46CHL1    C2 5857   0.970   4.124  10.155  0.8179 -0.0878  0.2046
   46CHL1   H2A 5858   0.940   4.220  10.203 -0.7940  0.3353 -1.5364
   46CHL1   H2B 5859   1.072   4.097  10.188 -0.0263 -0.8230  2.3911
   46CHL1   C20 5860   0.970   4.090   9.199 -0.5379  0.2410 -0.9308
   46CHL1   H20 5861   1.052   4.018   9.181  0.0692  1.1977 -2.0675
   46CHL1   C21 5862   1.035   4.234   9.222 -0.0826 -0.2820  0.4747
   46CHL1  H21A 5863   1.021   4.292   9.128 -0.3614 -1.4968 -0.2581
   46CHL1  H21B 5864   1.141   4.227   9.252  0.8817  0.2628 -2.4722
   46CHL1  H21C 5865   0.989   4.288   9.308  0.5595  1.4243 -0.2111
   46CHL1   C22 5866   0.874   4.090   9.080 -0.2756 -0.8156 -0.0355
   46CHL1  H22A 5867   0.941   4.130   9.001 -0.1421  1.1823  1.0147
   46CHL1  H22B 5868   0.858   3.984   9.054  0.3451 -1.2313  1.2070
   46CHL1   C23 5869   0.741   4.167   9.089  0.6116  0.3253  0.4725
   46CHL1  H23A 5870   0.688   4.127   9.178  1.0756  1.5179  1.3061
   46CHL1  H23B 5871   0.770   4.272   9.111  1.8213 -0.4259  2.7578
   46CHL1   C24 5872   0.660   4.148   8.964 -0.0535 -0.0076 -0.1802
   46CHL1  H24A 5873   0.574   4.217   8.947 -0.5936 -1.1908 -2.6412
   46CHL1  H24B 5874   0.729   4.163   8.879  0.6566 -1.8644  0.0336
   46CHL1   C25 5875   0.588   4.016   8.928  0.3377  0.2316  0.3206
   46CHL1   H25 5876   0.676   3.949   8.918  0.5982  0.3928  1.3866
   46CHL1   C26 5877   0.498   3.974   9.043 -0.3330  0.3375  0.8296
   46CHL1  H26A 5878   0.545   3.923   9.130  0.2206 -1.5565 -0.5134
   46CHL1  H26B 5879   0.438   4.060   9.080 -1.7438 -0.4014  0.3357
   46CHL1  H26C 5880   0.414   3.909   9.013 -1.1244  0.9467  1.6817
   46CHL1   C27 5881   0.518   4.013   8.796 -0.0104  0.1828  0.2299
   46CHL1  H27A 5882   0.419   4.062   8.802 -0.0614  1.0961 -4.1187
   46CHL1  H27B 5883   0.576   4.064   8.715 -1.1428  0.1367 -0.6266
   46CHL1  H27C 5884   0.506   3.914   8.747  1.1796  1.2162 -2.3362
   47CHL1    C3 5885   3.098   1.473  10.171 -0.0578 -0.2718  0.1673
   47CHL1    H3 5886   3.018   1.431  10.105  0.2275 -0.7398  0.1193
   47CHL1    O3 5887   3.052   1.448  10.302  0.4346 -0.2903  0.3670
   47CHL1   H3' 5888   3.117   1.495  10.356  3.0780  0.1215 -2.8724
   47CHL1    C4 5889   3.245   1.424  10.152 -0.1955 -0.1413 -0.9093
   47CHL1   H4A 5890   3.312   1.475  10.223  2.4930 -2.3511 -1.7048
   47CHL1   H4B 5891   3.255   1.317  10.179  0.4715 -0.1086 -1.0268
   47CHL1    C5 5892   3.287   1.456  10.011 -0.2953 -0.2187 -0.3531
   47CHL1    C6 5893   3.323   1.353   9.930 -0.1350 -0.2246 -0.5051
   47CHL1    H6 5894   3.337   1.257   9.982 -0.2640  1.0367  1.9926
   47CHL1    C7 5895   3.358   1.365   9.790  1.1165 -0.2029  0.1200
   47CHL1   H7A 5896   3.457   1.316   9.781  0.8217 -0.7137 -0.3801
   47CHL1   H7B 5897   3.278   1.314   9.732  0.5782 -1.6119  2.0041
   47CHL1    C8 5898   3.376   1.516   9.747 -0.1460 -0.3133 -0.0305
   47CHL1    H8 5899   3.471   1.555   9.790 -0.1683 -1.6857  1.3330
   47CHL1   C14 5900   3.368   1.527   9.596  0.1889  0.1913 -1.1777
   47CHL1   H14 5901   3.264   1.491   9.580  0.3791 -1.7738  1.3863
   47CHL1   C15 5902   3.450   1.429   9.520  0.2620  0.2195  0.1994
   47CHL1  H15A 5903   3.560   1.436   9.538  0.1131  1.0723  0.8216
   47CHL1  H15B 5904   3.413   1.326   9.536  0.5977  0.2846  1.5721
   47CHL1   C16 5905   3.424   1.479   9.374  0.2365 -0.0832 -0.6395
   47CHL1  H16A 5906   3.522   1.483   9.323  0.9998  0.1858  0.8105
   47CHL1  H16B 5907   3.361   1.406   9.319 -3.5474 -1.0315  4.2400
   47CHL1   C17 5908   3.355   1.630   9.386  0.1542  0.2701  0.2182
   47CHL1   H17 5909   3.247   1.612   9.373  0.2888 -2.0402  1.6635
   47CHL1   C13 5910   3.377   1.662   9.534 -0.1167 -0.5515  0.3418
   47CHL1   C18 5911   3.519   1.720   9.554 -0.8701 -0.0119 -0.2354
   47CHL1  H18A 5912   3.528   1.820   9.505  0.3753 -1.0231 -2.2151
   47CHL1  H18B 5913   3.544   1.727   9.662  3.3868 -2.1589 -0.8907
   47CHL1  H18C 5914   3.590   1.657   9.497 -0.2807  1.9008 -1.7271
   47CHL1   C12 5915   3.280   1.757   9.603 -0.0726 -0.2309 -0.8820
   47CHL1  H12A 5916   3.285   1.865   9.578  2.1235  0.2639  1.3046
   47CHL1  H12B 5917   3.179   1.733   9.564 -0.1002  1.3849 -1.8793
   47CHL1   C11 5918   3.281   1.755   9.758 -0.0202 -0.2750  0.3602
   47CHL1  H11A 5919   3.381   1.791   9.788  1.7528 -3.9103 -0.6700
   47CHL1  H11B 5920   3.197   1.817   9.796 -0.1513  0.6404 -1.3224
   47CHL1    C9 5921   3.269   1.607   9.807  0.2881 -0.1218 -0.1881
   47CHL1    H9 5922   3.174   1.566   9.766  1.9155 -1.8035 -2.5274
   47CHL1   C10 5923   3.261   1.599   9.964 -0.5978 -0.0304 -0.2491
   47CHL1   C19 5924   3.375   1.675  10.033 -0.2646  0.1210  0.1211
   47CHL1  H19A 5925   3.371   1.682  10.144  0.5615  1.1196  0.1113
   47CHL1  H19B 5926   3.470   1.621  10.013 -0.8244 -0.3832 -1.2899
   47CHL1  H19C 5927   3.392   1.775   9.987 -2.5337  0.7167  0.4915
   47CHL1    C1 5928   3.124   1.648  10.007 -0.6501 -0.0235  0.0020
   47CHL1   H1A 5929   3.111   1.757   9.994  0.8768  0.6195  2.9944
   47CHL1   H1B 5930   3.043   1.597   9.950 -0.3015 -0.2188 -0.3220
   47CHL1    C2 5931   3.091   1.624  10.154  0.2024 -0.1725  0.4790
   47CHL1   H2A 5932   2.993   1.672  10.173 -0.2617 -0.3736 -1.1688
   47CHL1   H2B 5933   3.152   1.681  10.227 -0.6097 -0.3476  1.3070
   47CHL1   C20 5934   3.398   1.724   9.269 -0.1777  0.5519  0.3429
   47CHL1   H20 5935   3.497   1.770   9.288  0.2951 -0.1836 -0.2796
   47CHL1   C21 5936   3.310   1.845   9.269  0.7905  0.6459  0.5460
   47CHL1  H21A 5937   3.203   1.823   9.250  1.0707 -1.8777  1.5334
   47CHL1  H21B 5938   3.336   1.924   9.195  3.4799 -0.6389 -0.0110
   47CHL1  H21C 5939   3.318   1.899   9.366 -0.2237  0.1185  0.9366
   47CHL1   C22 5940   3.410   1.657   9.130  0.6909  0.7175  0.3416
   47CHL1  H22A 5941   3.496   1.588   9.136  0.6005  0.7113  2.2101
   47CHL1  H22B 5942   3.312   1.606   9.115  1.1371 -0.2979  0.8268
   47CHL1   C23 5943   3.439   1.748   9.009 -0.0942 -0.4280  0.1571
   47CHL1  H23A 5944   3.435   1.686   8.917 -0.0344 -2.5917  1.5343
   47CHL1  H23B 5945   3.379   1.841   9.010 -2.1086 -1.6725 -0.1791
   47CHL1   C24 5946   3.596   1.789   9.018  0.3625  0.1026  0.0762
   47CHL1  H24A 5947   3.610   1.838   9.117  0.8055 -0.2704  0.2031
   47CHL1  H24B 5948   3.656   1.696   9.022  0.8226  0.4421  2.1033
   47CHL1   C25 5949   3.641   1.882   8.912 -0.5291 -0.1664  0.4594
   47CHL1   H25 5950   3.575   1.970   8.924  0.6875  0.9298 -0.4772
   47CHL1   C26 5951   3.793   1.922   8.928 -0.1518  0.5796 -0.1988
   47CHL1  H26A 5952   3.832   1.996   8.854  1.0688 -0.1041 -0.2598
   47CHL1  H26B 5953   3.859   1.834   8.923  0.2905  0.7687  1.5732
   47CHL1  H26C 5954   3.805   1.973   9.026  0.2316  2.5394 -1.1966
   47CHL1   C27 5955   3.622   1.812   8.780  0.6128  0.1303 -0.1931
   47CHL1  H27A 5956   3.665   1.710   8.775 -0.9742 -0.5452 -0.6499
   47CHL1  H27B 5957   3.516   1.796   8.752  0.6004 -2.1114  0.9165
   47CHL1  H27C 5958   3.658   1.870   8.693  0.8671  0.8100  0.3563
   48CHL1    C3 5959   3.133   0.930  10.368  0.3019 -0.2920  0.4532
   48CHL1    H3 5960   3.195   0.844  10.399  1.4734  1.1063  2.2308
   48CHL1    O3 5961   3.070   0.988  10.482 -0.0550 -0.4394 -0.1929
   48CHL1   H3' 5962   3.033   1.072  10.457  0.4374 -0.3726 -0.7320
   48CHL1    C4 5963   3.220   1.044  10.293 -0.0221  0.0811 -0.5963
   48CHL1   H4A 5964   3.155   1.127  10.259 -0.3910 -0.0611 -0.2498
   48CHL1   H4B 5965   3.296   1.080  10.366  0.3294 -0.7534 -0.5389
   48CHL1    C5 5966   3.286   0.971  10.179  0.2421 -0.4860 -0.0993
   48CHL1    C6 5967   3.420   0.967  10.153 -0.4939 -0.3486 -0.2493
   48CHL1    H6 5968   3.487   1.031  10.212 -1.2513  0.0655  0.1867
   48CHL1    C7 5969   3.488   0.922  10.027 -0.0715 -0.0764  0.4723
   48CHL1   H7A 5970   3.556   0.998   9.982 -0.2821  2.0554  3.4997
   48CHL1   H7B 5971   3.534   0.824  10.051  1.1392  0.3830  0.1419
   48CHL1    C8 5972   3.387   0.898   9.918  0.5532  0.4970  0.4632
   48CHL1    H8 5973   3.354   0.994   9.873 -4.0123 -1.0221  0.0337
   48CHL1   C14 5974   3.453   0.818   9.804  0.2251 -0.6074 -0.3463
   48CHL1   H14 5975   3.490   0.720   9.841 -0.6923 -0.5049  0.9003
   48CHL1   C15 5976   3.575   0.873   9.730  1.1089 -0.4072  0.0010
   48CHL1  H15A 5977   3.540   0.977   9.714 -0.3371 -1.1240 -1.7992
   48CHL1  H15B 5978   3.663   0.861   9.797  2.0667 -0.4482 -1.2428
   48CHL1   C16 5979   3.583   0.786   9.604  0.0008 -0.1084  0.0736
   48CHL1  H16A 5980   3.616   0.846   9.516  0.8514 -1.4590 -0.5694
   48CHL1  H16B 5981   3.663   0.709   9.610  0.0672 -0.1990 -1.4298
   48CHL1   C17 5982   3.446   0.710   9.586  0.1558 -0.2097  0.2327
   48CHL1   H17 5983   3.472   0.611   9.631  4.7045  0.0751 -1.1978
   48CHL1   C13 5984   3.358   0.781   9.689  0.3082 -0.1393  0.1101
   48CHL1   C18 5985   3.308   0.911   9.626  0.2669 -0.5500 -0.2938
   48CHL1  H18A 5986   3.241   0.876   9.544  0.7314 -1.5311 -0.2664
   48CHL1  H18B 5987   3.248   0.970   9.698  1.0610 -0.3259  0.1922
   48CHL1  H18C 5988   3.385   0.979   9.585 -0.8153  0.8460 -0.0933
   48CHL1   C12 5989   3.245   0.704   9.748 -0.1274  0.9520  0.0420
   48CHL1  H12A 5990   3.171   0.670   9.672  0.4494 -3.1173  1.0633
   48CHL1  H12B 5991   3.277   0.603   9.782 -0.0632  1.1179  0.4766
   48CHL1   C11 5992   3.174   0.777   9.860 -0.4429  0.0792 -0.1104
   48CHL1  H11A 5993   3.112   0.855   9.812  1.0596  1.3278 -0.1182
   48CHL1  H11B 5994   3.105   0.701   9.904  0.1411  0.9184  2.4645
   48CHL1    C9 5995   3.271   0.825   9.973 -0.3656 -0.0487  0.0504
   48CHL1    H9 5996   3.310   0.731  10.017 -1.2832 -0.4575  0.0213
   48CHL1   C10 5997   3.187   0.902  10.076 -0.2112 -0.0035 -0.6041
   48CHL1   C19 5998   3.101   1.012  10.012  0.2266 -0.7681  0.4949
   48CHL1  H19A 5999   3.164   1.077   9.947  1.1507 -2.9229 -0.8953
   48CHL1  H19B 6000   3.020   0.972   9.947  0.0641 -1.2729  1.0014
   48CHL1  H19C 6001   3.060   1.089  10.080  1.7886  0.2498  0.3413
   48CHL1    C1 6002   3.094   0.797  10.155  0.5145  0.5760  0.4977
   48CHL1   H1A 6003   3.017   0.745  10.094  0.6467  0.0060  0.8113
   48CHL1   H1B 6004   3.159   0.715  10.193  1.9325  1.1958 -0.5090
   48CHL1    C2 6005   3.028   0.861  10.277  0.2469 -0.1298 -0.3244
   48CHL1   H2A 6006   2.968   0.782  10.327  0.2695  0.6500  0.9914
   48CHL1   H2B 6007   2.964   0.944  10.240  0.0538 -0.4974 -0.8283
   48CHL1   C20 6008   3.405   0.688   9.437  0.4191  0.0532  0.1079
   48CHL1   H20 6009   3.388   0.786   9.387 -1.9907 -0.7030 -0.6666
   48CHL1   C21 6010   3.274   0.609   9.438  0.1504  0.0133 -0.5599
   48CHL1  H21A 6011   3.287   0.523   9.507  0.5510 -0.3000 -1.0179
   48CHL1  H21B 6012   3.251   0.570   9.337  0.0480 -0.8525 -0.2064
   48CHL1  H21C 6013   3.186   0.670   9.467 -0.0658 -0.8369  0.6379
   48CHL1   C22 6014   3.522   0.613   9.364 -0.0882 -1.0513  0.4945
   48CHL1  H22A 6015   3.626   0.641   9.393  1.3056 -2.7396 -2.3999
   48CHL1  H22B 6016   3.503   0.505   9.376 -0.0066 -1.0599  0.5442
   48CHL1   C23 6017   3.535   0.651   9.219  1.0269  0.5103  0.1497
   48CHL1  H23A 6018   3.548   0.759   9.194 -2.9732  0.9088 -0.9308
   48CHL1  H23B 6019   3.626   0.599   9.181  1.8856  0.8639  1.6475
   48CHL1   C24 6020   3.423   0.605   9.126  0.9467  0.7900 -0.1829
   48CHL1  H24A 6021   3.388   0.504   9.156 -0.8982  1.2342 -0.6684
   48CHL1  H24B 6022   3.334   0.669   9.146 -1.5135 -2.8669  1.5969
   48CHL1   C25 6023   3.453   0.596   8.969 -0.7732  1.1275  0.4026
   48CHL1   H25 6024   3.535   0.521   8.961 -0.6591  1.3631 -1.0254
   48CHL1   C26 6025   3.339   0.529   8.890 -0.1512  0.3218  0.5831
   48CHL1  H26A 6026   3.247   0.591   8.898 -0.5084 -0.3576  2.0852
   48CHL1  H26B 6027   3.364   0.519   8.782  1.0172 -0.0255  0.8693
   48CHL1  H26C 6028   3.318   0.427   8.928 -0.1957 -0.0319 -0.3767
   48CHL1   C27 6029   3.495   0.725   8.908  0.1384 -0.6750 -0.0990
   48CHL1  H27A 6030   3.494   0.712   8.797  0.3184 -1.0868 -0.0527
   48CHL1  H27B 6031   3.437   0.809   8.953  1.3999 -0.1525  0.6120
   48CHL1  H27C 6032   3.598   0.752   8.941 -0.4605  1.2017  0.3590
   49CHL1    C3 6033   6.638   3.617  10.188  0.2006  0.1710  0.1173
   49CHL1    H3 6034   6.561   3.537  10.181 -1.0929  1.3905  0.0158
   49CHL1    O3 6035   6.616   3.687  10.310 -0.0732  0.2397  0.2799
   49CHL1   H3' 6036   6.680   3.657  10.376 -1.1802  1.6881  2.1341
   49CHL1    C4 6037   6.783   3.570  10.170  0.5461 -0.7207  0.0536
   49CHL1   H4A 6038   6.841   3.664  10.166 -2.2694  1.1509  0.5387
   49CHL1   H4B 6039   6.807   3.508  10.260  0.3000 -0.2433  0.4524
   49CHL1    C5 6040   6.796   3.492  10.034  0.3165 -0.7345 -0.0119
   49CHL1    C6 6041   6.830   3.360  10.026  0.0212 -0.3897  0.8778
   49CHL1    H6 6042   6.858   3.305  10.118 -1.2308  0.7895  2.0191
   49CHL1    C7 6043   6.853   3.284   9.895 -0.0588  0.1395 -0.2337
   49CHL1   H7A 6044   6.950   3.230   9.892 -0.1023 -0.1755  1.9702
   49CHL1   H7B 6045   6.772   3.209   9.880  3.0056 -3.9701  1.6327
   49CHL1    C8 6046   6.849   3.380   9.773 -1.1066 -0.1744  0.3357
   49CHL1    H8 6047   6.945   3.435   9.776 -0.5372 -1.2002  1.7872
   49CHL1   C14 6048   6.827   3.309   9.643  0.0404  0.1033 -0.5350
   49CHL1   H14 6049   6.725   3.266   9.656 -0.1697 -0.2526 -3.0024
   49CHL1   C15 6050   6.920   3.193   9.613  0.9835 -0.1072  0.7425
   49CHL1  H15A 6051   7.018   3.234   9.645  0.1176  2.1158  0.7031
   49CHL1  H15B 6052   6.913   3.095   9.665 -0.5516 -0.7752 -0.6247
   49CHL1   C16 6053   6.925   3.176   9.461  0.6929 -0.1803 -0.2142
   49CHL1  H16A 6054   7.032   3.196   9.440  0.5934  0.5725 -0.0643
   49CHL1  H16B 6055   6.908   3.078   9.412  2.5822  0.0730 -1.4551
   49CHL1   C17 6056   6.837   3.284   9.403  0.3196 -0.1068  0.3249
   49CHL1   H17 6057   6.736   3.238   9.394 -0.0184  0.1370  2.3945
   49CHL1   C13 6058   6.827   3.393   9.514  0.6217 -0.8500 -0.0435
   49CHL1   C18 6059   6.953   3.483   9.501 -0.1264 -0.0035  0.0620
   49CHL1  H18A 6060   7.047   3.424   9.486 -0.5627 -0.0051 -3.3117
   49CHL1  H18B 6061   6.938   3.543   9.409  0.6895  0.8611  0.4789
   49CHL1  H18C 6062   6.958   3.541   9.596  0.0262 -0.9182  0.6297
   49CHL1   C12 6063   6.701   3.483   9.523 -0.0166 -0.4863  0.1638
   49CHL1  H12A 6064   6.674   3.556   9.443  0.7821 -0.7576 -0.3711
   49CHL1  H12B 6065   6.625   3.402   9.522  0.3647 -0.8632  1.0477
   49CHL1   C11 6066   6.693   3.561   9.660  0.3147  0.1138  1.0951
   49CHL1  H11A 6067   6.760   3.647   9.638 -2.1618  1.7409 -0.4444
   49CHL1  H11B 6068   6.592   3.606   9.671 -0.0076  0.1609 -1.4524
   49CHL1    C9 6069   6.737   3.486   9.788  0.1612  0.3650 -0.4054
   49CHL1    H9 6070   6.648   3.424   9.811 -0.3921  1.2935  0.0351
   49CHL1   C10 6071   6.754   3.577   9.914  0.0695  0.5258  0.6638
   49CHL1   C19 6072   6.864   3.677   9.871  0.2050 -0.9166 -0.4619
   49CHL1  H19A 6073   6.826   3.752   9.797 -0.8498 -0.1284  0.8390
   49CHL1  H19B 6074   6.892   3.736   9.961 -0.8530 -1.4823  0.2603
   49CHL1  H19C 6075   6.960   3.630   9.841  1.1869  0.8302 -0.1965
   49CHL1    C1 6076   6.615   3.641   9.937  0.8845 -0.0494 -0.4036
   49CHL1   H1A 6077   6.601   3.723   9.864  1.5202  0.3450 -0.0885
   49CHL1   H1B 6078   6.532   3.568   9.923  0.7061  0.2078 -0.6935
   49CHL1    C2 6079   6.596   3.712  10.078  0.6233  0.6916 -0.2973
   49CHL1   H2A 6080   6.490   3.739  10.099  0.0511 -1.4239 -0.2640
   49CHL1   H2B 6081   6.657   3.804  10.089  0.5254  0.7137  0.0962
   49CHL1   C20 6082   6.875   3.325   9.259  0.1319  0.2001  0.1772
   49CHL1   H20 6083   6.970   3.382   9.256 -0.9956  2.3255  2.1817
   49CHL1   C21 6084   6.776   3.434   9.213  0.0787  0.2617  0.5559
   49CHL1  H21A 6085   6.792   3.464   9.107 -0.3540 -1.3106  0.0244
   49CHL1  H21B 6086   6.798   3.528   9.267  1.7941  0.1583  0.1109
   49CHL1  H21C 6087   6.668   3.409   9.217  0.2225 -0.4923 -0.0069
   49CHL1   C22 6088   6.880   3.204   9.161  0.4942  0.4870 -0.3930
   49CHL1  H22A 6089   6.949   3.128   9.204 -0.3365  0.8559  1.6749
   49CHL1  H22B 6090   6.780   3.156   9.155  1.7511 -2.2429 -1.6445
   49CHL1   C23 6091   6.942   3.235   9.023  0.3037 -0.3650 -0.7248
   49CHL1  H23A 6092   6.915   3.339   8.997 -2.1622 -0.4613  1.0356
   49CHL1  H23B 6093   7.048   3.242   9.056 -0.7075  1.4578  2.6472
   49CHL1   C24 6094   6.931   3.138   8.902  1.1772  0.4036 -0.1986
   49CHL1  H24A 6095   6.963   3.044   8.952  0.2006  0.8188  1.2825
   49CHL1  H24B 6096   6.824   3.132   8.872  1.4554  0.9246 -1.3401
   49CHL1   C25 6097   7.005   3.176   8.771 -0.1104 -0.2265 -0.1996
   49CHL1   H25 6098   6.964   3.104   8.697  0.5552 -1.9177  0.9954
   49CHL1   C26 6099   6.985   3.319   8.730  0.5087 -0.9559 -0.1150
   49CHL1  H26A 6100   7.009   3.386   8.815  1.1946 -2.6522  1.0897
   49CHL1  H26B 6101   7.043   3.335   8.637 -0.5006 -2.8790 -1.1422
   49CHL1  H26C 6102   6.879   3.333   8.700  0.5354 -0.8168 -0.1423
   49CHL1   C27 6103   7.154   3.139   8.779 -0.1042 -0.6243  0.1247
   49CHL1  H27A 6104   7.184   3.145   8.672 -1.1804 -0.0879 -0.1508
   49CHL1  H27B 6105   7.210   3.208   8.846 -1.1443  2.2545 -1.8297
   49CHL1  H27C 6106   7.161   3.036   8.821 -1.4911 -0.3010  1.2165
   50CHL1    C3 6107   4.376   4.238  10.122  0.1629  0.5405 -0.0816
   50CHL1    H3 6108   4.279   4.288  10.103  1.3149  2.5720 -1.0130
   50CHL1    O3 6109   4.395   4.212  10.256 -0.2465 -0.3059 -0.5167
   50CHL1   H3' 6110   4.405   4.303  10.287  0.7033 -0.5874  0.0424
   50CHL1    C4 6111   4.379   4.110  10.043  0.1011 -1.0786  0.4023
   50CHL1   H4A 6112   4.474   4.056  10.062 -0.8919 -2.5494  1.3361
   50CHL1   H4B 6113   4.302   4.042  10.084 -0.7818  0.7509  1.9107
   50CHL1    C5 6114   4.364   4.141   9.896  0.0069  0.8690 -0.3213
   50CHL1    C6 6115   4.269   4.086   9.820  0.4754  0.6549  0.9163
   50CHL1    H6 6116   4.194   4.015   9.859  2.0570 -0.6374  1.7222
   50CHL1    C7 6117   4.255   4.113   9.676  0.2733  0.7840 -0.0866
   50CHL1   H7A 6118   4.221   4.017   9.634  0.0487  1.2998 -1.1055
   50CHL1   H7B 6119   4.174   4.189   9.666  0.1812  0.6473 -0.3707
   50CHL1    C8 6120   4.386   4.171   9.606  0.0252  0.6395  0.6404
   50CHL1    H8 6121   4.459   4.087   9.595 -1.5291 -0.5344 -1.4119
   50CHL1   C14 6122   4.346   4.220   9.458 -0.9019  0.4605 -0.6006
   50CHL1   H14 6123   4.277   4.305   9.472 -0.5857  0.5383  0.5672
   50CHL1   C15 6124   4.284   4.119   9.371  0.2571 -1.1761 -0.5680
   50CHL1  H15A 6125   4.318   4.016   9.395 -2.2645 -1.8515  0.5060
   50CHL1  H15B 6126   4.175   4.116   9.395  0.3642 -0.9372 -0.0280
   50CHL1   C16 6127   4.311   4.168   9.224 -0.6991  0.1366  0.0747
   50CHL1  H16A 6128   4.351   4.079   9.171 -2.2850  0.0910 -1.1370
   50CHL1  H16B 6129   4.219   4.210   9.177  0.8129  1.2447 -2.0981
   50CHL1   C17 6130   4.404   4.296   9.245 -0.9873  0.5640 -0.1120
   50CHL1   H17 6131   4.333   4.380   9.259  0.8211  2.1520 -0.1590
   50CHL1   C13 6132   4.470   4.274   9.379  0.0413  0.1496 -0.7284
   50CHL1   C18 6133   4.593   4.175   9.372  0.3850 -0.1370  0.0481
   50CHL1  H18A 6134   4.686   4.218   9.328  0.8573 -0.1197  1.0274
   50CHL1  H18B 6135   4.618   4.121   9.466  1.0984 -0.3058 -0.2283
   50CHL1  H18C 6136   4.561   4.092   9.306  2.4636 -0.2261 -0.9296
   50CHL1   C12 6137   4.506   4.396   9.463  0.0340  0.5340  0.0643
   50CHL1  H12A 6138   4.593   4.437   9.407 -1.0165  0.0619 -2.0152
   50CHL1  H12B 6139   4.427   4.474   9.472 -0.8458 -0.2281 -0.7791
   50CHL1   C11 6140   4.546   4.367   9.608  0.1493 -0.2874 -0.6973
   50CHL1  H11A 6141   4.637   4.304   9.600 -1.4823 -2.6239 -2.6884
   50CHL1  H11B 6142   4.573   4.466   9.650 -2.7394 -0.3820  1.7767
   50CHL1    C9 6143   4.437   4.286   9.682 -0.0846  0.2028  0.8012
   50CHL1    H9 6144   4.351   4.355   9.698 -1.1900 -0.0733 -2.9616
   50CHL1   C10 6145   4.466   4.244   9.833  0.1832  0.2299 -0.1099
   50CHL1   C19 6146   4.611   4.177   9.830  1.2334 -0.3800  0.4364
   50CHL1  H19A 6147   4.695   4.249   9.837  0.9123 -0.1215  1.9081
   50CHL1  H19B 6148   4.630   4.117   9.922 -1.1439 -0.5313  0.8912
   50CHL1  H19C 6149   4.625   4.112   9.741  2.7142  1.4791 -0.7715
   50CHL1    C1 6150   4.470   4.365   9.920 -0.4768 -0.0753 -0.2477
   50CHL1   H1A 6151   4.555   4.429   9.890  0.1717 -0.9048 -0.2077
   50CHL1   H1B 6152   4.377   4.424   9.907  0.0301  0.8853  0.3717
   50CHL1    C2 6153   4.485   4.334  10.069 -0.0859 -0.4323 -0.5303
   50CHL1   H2A 6154   4.483   4.429  10.127  0.8647 -1.1097  0.6574
   50CHL1   H2B 6155   4.587   4.295  10.089  0.4512  0.7346 -0.8668
   50CHL1   C20 6156   4.495   4.328   9.123  0.3578 -0.2422 -0.4219
   50CHL1   H20 6157   4.583   4.262   9.113  1.2176  0.3495  2.3526
   50CHL1   C21 6158   4.552   4.474   9.115 -0.9660 -0.2749 -0.1825
   50CHL1  H21A 6159   4.474   4.553   9.107 -1.4843 -0.6444  0.9516
   50CHL1  H21B 6160   4.626   4.474   9.032  1.1376  0.3067  1.6040
   50CHL1  H21C 6161   4.616   4.498   9.203 -0.5720  0.1276 -0.5734
   50CHL1   C22 6162   4.405   4.307   8.996  0.8463 -0.2363 -0.2810
   50CHL1  H22A 6163   4.364   4.205   8.983  0.6763 -0.3196  0.7889
   50CHL1  H22B 6164   4.316   4.371   9.017  0.3424 -1.3036  0.9944
   50CHL1   C23 6165   4.457   4.360   8.859 -0.0071  0.6862  0.5913
   50CHL1  H23A 6166   4.449   4.470   8.870  2.4304  0.8966  0.6891
   50CHL1  H23B 6167   4.564   4.332   8.859 -0.2173 -0.2727 -1.4352
   50CHL1   C24 6168   4.378   4.293   8.745 -0.3985  0.1955 -0.7331
   50CHL1  H24A 6169   4.395   4.184   8.746  0.3169  0.2898 -1.4663
   50CHL1  H24B 6170   4.273   4.317   8.771 -1.1563 -3.6088  0.2914
   50CHL1   C25 6171   4.398   4.353   8.605  0.5834 -0.0657  0.1753
   50CHL1   H25 6172   4.376   4.462   8.613 -2.9594 -0.7104  0.8310
   50CHL1   C26 6173   4.537   4.321   8.536  0.0905 -0.2606 -0.3933
   50CHL1  H26A 6174   4.564   4.214   8.539 -1.0803 -0.5872 -0.9727
   50CHL1  H26B 6175   4.524   4.353   8.430 -3.2424 -1.8264 -0.5902
   50CHL1  H26C 6176   4.625   4.382   8.565  1.2941 -1.8697 -0.5681
   50CHL1   C27 6177   4.282   4.303   8.518  0.3164 -0.2550 -0.7137
   50CHL1  H27A 6178   4.182   4.336   8.555  1.5222  3.3428 -0.3498
   50CHL1  H27B 6179   4.285   4.337   8.413 -0.6673  0.0529 -0.6588
   50CHL1  H27C 6180   4.294   4.192   8.515  1.7699 -0.1132 -0.6103
   51CHL1    C3 6181   4.664   1.024  10.309 -0.3190 -0.4761  0.8648
   51CHL1    H3 6182   4.755   1.021  10.246 -1.2067  1.2393 -0.5920
   51CHL1    O3 6183   4.684   1.023  10.449 -0.7211  0.2404 -0.0229
   51CHL1   H3' 6184   4.625   0.957  10.486 -0.4037 -0.6579 -1.0572
   51CHL1    C4 6185   4.584   1.152  10.268  0.2758  0.0850 -0.0889
   51CHL1   H4A 6186   4.497   1.162  10.337 -0.0485 -0.0242 -0.4809
   51CHL1   H4B 6187   4.646   1.240  10.296 -0.1770  1.0028 -1.8244
   51CHL1    C5 6188   4.535   1.153  10.124 -0.0271 -0.3411  0.1699
   51CHL1    C6 6189   4.577   1.243  10.038  0.0393  0.0171 -0.4541
   51CHL1    H6 6190   4.641   1.327  10.069  1.8852 -0.3315 -2.9319
   51CHL1    C7 6191   4.533   1.240   9.896  0.2250 -0.3737  0.3033
   51CHL1   H7A 6192   4.514   1.338   9.847  0.6516 -1.1820 -1.5974
   51CHL1   H7B 6193   4.613   1.193   9.834 -0.2103  0.9062 -1.2943
   51CHL1    C8 6194   4.401   1.158   9.869  0.1164 -0.5782 -0.4676
   51CHL1    H8 6195   4.315   1.215   9.911  0.4371  0.3165 -0.9960
   51CHL1   C14 6196   4.379   1.132   9.713 -0.1363 -0.7142 -0.6848
   51CHL1   H14 6197   4.466   1.080   9.669  2.2514  3.8149 -1.8720
   51CHL1   C15 6198   4.370   1.262   9.633 -0.3868  0.1985 -0.5040
   51CHL1  H15A 6199   4.322   1.344   9.692 -2.3815  0.1600 -1.9651
   51CHL1  H15B 6200   4.467   1.306   9.602  0.7450 -1.8283 -0.0294
   51CHL1   C16 6201   4.287   1.223   9.509 -0.1274 -0.0857 -0.6322
   51CHL1  H16A 6202   4.195   1.282   9.494 -0.0007  0.2809 -0.0212
   51CHL1  H16B 6203   4.350   1.222   9.417  0.8863  1.1078  0.0047
   51CHL1   C17 6204   4.248   1.066   9.532  0.6290  0.8520  0.4722
   51CHL1   H17 6205   4.326   1.004   9.482 -0.4789 -1.7147  1.7445
   51CHL1   C13 6206   4.263   1.047   9.678 -0.0167 -0.3761  0.5497
   51CHL1   C18 6207   4.133   1.110   9.734 -0.5168 -0.3467  0.0274
   51CHL1  H18A 6208   4.143   1.115   9.844  1.4756  0.1345 -0.1367
   51CHL1  H18B 6209   4.117   1.211   9.688  2.6916  0.2648  0.0505
   51CHL1  H18C 6210   4.044   1.049   9.706  0.5303 -1.6241 -0.6022
   51CHL1   C12 6211   4.286   0.910   9.740 -0.0815 -0.6434 -0.7831
   51CHL1  H12A 6212   4.191   0.853   9.728 -1.7609  2.0875 -1.5711
   51CHL1  H12B 6213   4.365   0.857   9.683  0.0185 -0.6023 -0.6824
   51CHL1   C11 6214   4.310   0.916   9.896 -0.7786 -0.5647  1.0106
   51CHL1  H11A 6215   4.215   0.960   9.931 -0.4737  0.8907  0.0859
   51CHL1  H11B 6216   4.324   0.813   9.935  1.0083 -0.8071 -0.1744
   51CHL1    C9 6217   4.418   1.023   9.940 -0.0129 -0.1806  0.0912
   51CHL1    H9 6218   4.503   0.975   9.887 -2.3516 -2.5323 -1.7723
   51CHL1   C10 6219   4.453   1.032  10.084  0.3409 -0.3360  0.5794
   51CHL1   C19 6220   4.316   1.048  10.163 -0.4395  0.0662  0.0490
   51CHL1  H19A 6221   4.248   1.119  10.111 -0.8411  0.0469  0.5383
   51CHL1  H19B 6222   4.268   0.948  10.154  1.7515 -1.0250 -0.1260
   51CHL1  H19C 6223   4.317   1.078  10.270 -0.6727 -1.3695  0.4767
   51CHL1    C1 6224   4.518   0.904  10.140  0.1639 -0.1502 -0.1712
   51CHL1   H1A 6225   4.447   0.823  10.116  0.3578 -0.7495  1.1630
   51CHL1   H1B 6226   4.610   0.876  10.085  0.4676 -0.7631  0.6349
   51CHL1    C2 6227   4.578   0.903  10.278  0.2695 -0.4767  0.1921
   51CHL1   H2A 6228   4.628   0.805  10.294 -1.4454 -1.0856  2.3171
   51CHL1   H2B 6229   4.489   0.893  10.343  1.3156  0.3290  1.8076
   51CHL1   C20 6230   4.120   1.038   9.447  0.1372  0.5651  0.5663
   51CHL1   H20 6231   4.037   1.094   9.496 -0.5967 -0.4684  0.5245
   51CHL1   C21 6232   4.075   0.891   9.448 -0.1418  0.6289 -0.2282
   51CHL1  H21A 6233   4.159   0.836   9.401  1.3327  0.9046  1.9527
   51CHL1  H21B 6234   3.986   0.871   9.384  0.4921 -3.8696 -0.0122
   51CHL1  H21C 6235   4.055   0.852   9.551 -0.2347 -1.4859 -0.9995
   51CHL1   C22 6236   4.133   1.080   9.300  0.1798 -0.0879 -0.2139
   51CHL1  H22A 6237   4.162   1.188   9.303 -3.2735  0.9724 -0.7815
   51CHL1  H22B 6238   4.213   1.013   9.261  0.9322  0.4606  0.3520
   51CHL1   C23 6239   4.008   1.068   9.206 -0.1659  1.1730  0.1884
   51CHL1  H23A 6240   4.033   1.105   9.104  1.1022  0.2744  0.1560
   51CHL1  H23B 6241   3.976   0.962   9.192 -1.7444  1.4431  1.3367
   51CHL1   C24 6242   3.887   1.149   9.253  0.1232  0.6262 -0.5336
   51CHL1  H24A 6243   3.831   1.104   9.337  0.7649  2.1416  0.7447
   51CHL1  H24B 6244   3.939   1.238   9.293  0.4131  0.7426 -1.1523
   51CHL1   C25 6245   3.789   1.200   9.141  0.4829 -0.3309 -0.3447
   51CHL1   H25 6246   3.843   1.243   9.054 -0.8893  0.1071 -1.0199
   51CHL1   C26 6247   3.698   1.088   9.096  0.1902  0.7546  0.3679
   51CHL1  H26A 6248   3.646   1.048   9.186 -0.7714 -1.3659 -1.0434
   51CHL1  H26B 6249   3.621   1.108   9.018  0.2486 -2.7922 -0.7872
   51CHL1  H26C 6250   3.752   1.007   9.043 -1.0527  1.2025 -1.7017
   51CHL1   C27 6251   3.706   1.315   9.192  0.6445  0.0926  0.0791
   51CHL1  H27A 6252   3.639   1.339   9.107  2.1740 -0.5614 -1.3696
   51CHL1  H27B 6253   3.637   1.284   9.274  2.0568  0.2772  1.3749
   51CHL1  H27C 6254   3.772   1.397   9.225 -1.4406  3.7607 -3.8950
   52CHL1    C3 6255   0.801   5.946   9.965 -0.8400 -0.4596 -0.3858
   52CHL1    H3 6256   0.728   6.025   9.938 -1.7649 -1.5116 -1.0596
   52CHL1    O3 6257   0.812   5.931  10.106 -0.2744  0.4918 -0.1085
   52CHL1   H3' 6258   0.869   5.855  10.120 -0.1114  0.4166 -1.1369
   52CHL1    C4 6259   0.764   5.815   9.898 -0.0263  0.1325  0.1279
   52CHL1   H4A 6260   0.829   5.730   9.928 -1.3957 -0.7547  0.6765
   52CHL1   H4B 6261   0.668   5.787   9.948 -0.0375 -1.0662 -0.5189
   52CHL1    C5 6262   0.755   5.813   9.747 -0.4434  0.1543 -0.2779
   52CHL1    C6 6263   0.642   5.792   9.678 -0.2188 -0.5074  0.1625
   52CHL1    H6 6264   0.556   5.760   9.739  0.3843 -2.8434 -0.0936
   52CHL1    C7 6265   0.624   5.791   9.531 -0.7506  0.0175  0.5154
   52CHL1   H7A 6266   0.573   5.694   9.512 -0.6881  0.2343 -0.8799
   52CHL1   H7B 6267   0.559   5.879   9.514  1.0815  0.8905 -2.8861
   52CHL1    C8 6268   0.756   5.810   9.449 -0.0183  0.7741 -0.3078
   52CHL1    H8 6269   0.810   5.715   9.430 -1.6840 -0.2295 -0.2103
   52CHL1   C14 6270   0.728   5.879   9.311 -0.3749 -0.7044 -0.8711
   52CHL1   H14 6271   0.692   5.982   9.329  1.1632 -0.4208  0.8071
   52CHL1   C15 6272   0.617   5.821   9.223 -0.9085  1.0095  0.1883
   52CHL1  H15A 6273   0.626   5.710   9.227  0.1484  0.9673 -1.9280
   52CHL1  H15B 6274   0.511   5.836   9.254 -1.3036 -1.0963  0.0434
   52CHL1   C16 6275   0.653   5.880   9.087  0.1311 -0.8961  0.4437
   52CHL1  H16A 6276   0.647   5.813   8.999  0.4278  2.0382 -1.9475
   52CHL1  H16B 6277   0.569   5.950   9.067  1.5602  0.0933 -2.6075
   52CHL1   C17 6278   0.786   5.959   9.096  0.5338 -0.0338  0.5344
   52CHL1   H17 6279   0.759   6.064   9.123  1.0617 -0.1154  1.4169
   52CHL1   C13 6280   0.855   5.898   9.223  0.3580  0.1507  0.1689
   52CHL1   C18 6281   0.917   5.761   9.187  0.0566 -0.2091 -0.2784
   52CHL1  H18A 6282   0.950   5.702   9.276 -0.8639 -0.1256  0.1380
   52CHL1  H18B 6283   0.857   5.700   9.116 -0.3247 -2.1621  1.6115
   52CHL1  H18C 6284   1.011   5.788   9.135 -1.5843  0.2861 -3.1998
   52CHL1   C12 6285   0.948   5.994   9.298 -0.5756 -0.7018 -0.1878
   52CHL1  H12A 6286   1.041   5.998   9.238 -1.4665 -2.2544 -1.7548
   52CHL1  H12B 6287   0.896   6.092   9.308  1.0754  0.1133  0.9010
   52CHL1   C11 6288   0.983   5.938   9.434 -0.6306  0.0085 -0.3320
   52CHL1  H11A 6289   1.030   5.838   9.430 -1.0644 -0.1543 -1.5863
   52CHL1  H11B 6290   1.055   6.009   9.482  1.2912 -0.4455 -2.4055
   52CHL1    C9 6291   0.860   5.903   9.524  0.2684  0.0828  0.2932
   52CHL1    H9 6292   0.798   5.996   9.523 -0.8496 -0.6381 -1.5713
   52CHL1   C10 6293   0.887   5.870   9.677  0.8339  0.5170  0.4088
   52CHL1   C19 6294   0.986   5.759   9.676 -0.5857  0.7982 -0.0794
   52CHL1  H19A 6295   1.007   5.711   9.773 -1.6211 -2.6145 -1.3827
   52CHL1  H19B 6296   0.954   5.677   9.607 -1.8008  0.3204  0.9964
   52CHL1  H19C 6297   1.087   5.788   9.641 -0.3202  2.3657  1.8508
   52CHL1    C1 6298   0.937   5.993   9.749  0.8026 -0.5269 -0.7737
   52CHL1   H1A 6299   1.040   6.024   9.719  1.0459  0.2213  0.7725
   52CHL1   H1B 6300   0.869   6.079   9.736  1.3781 -0.0531 -0.7071
   52CHL1    C2 6301   0.938   5.983   9.905 -0.2131 -0.6926 -0.5841
   52CHL1   H2A 6302   0.971   6.079   9.951 -0.9187 -0.5398 -0.3878
   52CHL1   H2B 6303   1.021   5.914   9.933 -1.7576 -2.7217 -0.8227
   52CHL1   C20 6304   0.864   5.968   8.960  0.1371 -0.2690 -0.4811
   52CHL1   H20 6305   0.895   5.866   8.930 -0.1762 -0.6488  0.4577
   52CHL1   C21 6306   0.985   6.062   8.976 -0.6533  0.4369  0.4819
   52CHL1  H21A 6307   1.069   6.023   9.038  0.0400  4.2910  2.2910
   52CHL1  H21B 6308   0.954   6.152   9.033 -2.1760  0.6124 -0.5748
   52CHL1  H21C 6309   1.038   6.089   8.882 -0.8483  2.3978  0.8806
   52CHL1   C22 6310   0.781   6.022   8.847  0.4487 -0.0476 -0.7336
   52CHL1  H22A 6311   0.684   5.967   8.842  1.5888 -2.0295 -2.7960
   52CHL1  H22B 6312   0.754   6.129   8.860 -0.0357 -0.3048  0.5470
   52CHL1   C23 6313   0.848   5.990   8.712 -0.0234 -0.7482  0.3688
   52CHL1  H23A 6314   0.958   5.996   8.729 -0.2463 -0.0968  1.7158
   52CHL1  H23B 6315   0.839   5.886   8.673  0.5174  0.2532 -2.6631
   52CHL1   C24 6316   0.802   6.095   8.606  0.0179 -0.1018  0.0808
   52CHL1  H24A 6317   0.694   6.068   8.597  0.0579 -1.2412  2.4269
   52CHL1  H24B 6318   0.813   6.198   8.647 -0.3453  0.0772 -0.2618
   52CHL1   C25 6319   0.866   6.080   8.463 -1.1421  0.2025  0.0124
   52CHL1   H25 6320   0.976   6.072   8.472 -1.2004 -0.6079  0.0526
   52CHL1   C26 6321   0.835   5.947   8.393  0.5541  0.3419  0.6594
   52CHL1  H26A 6322   0.898   5.956   8.302 -1.2579  1.2502 -0.5502
   52CHL1  H26B 6323   0.858   5.851   8.444 -1.5758  0.5580  2.1316
   52CHL1  H26C 6324   0.730   5.934   8.361  1.3773 -2.0699 -1.4631
   52CHL1   C27 6325   0.852   6.211   8.374 -0.6119 -0.3745 -0.6732
   52CHL1  H27A 6326   0.746   6.217   8.342 -0.4177  1.8324 -1.0625
   52CHL1  H27B 6327   0.880   6.301   8.432  0.5425  0.0818 -1.8940
   52CHL1  H27C 6328   0.900   6.202   8.275  0.2461  0.5430 -0.3540
   53CHL1    C3 6329   2.315   6.400   9.989  0.2042 -0.1069  0.7814
   53CHL1    H3 6330   2.254   6.489   9.966  0.3857 -0.7835 -2.8195
   53CHL1    O3 6331   2.323   6.387  10.133  0.2199 -0.0441  0.0802
   53CHL1   H3' 6332   2.362   6.467  10.168  0.7036  0.0202 -0.5981
   53CHL1    C4 6333   2.241   6.278   9.927 -0.5136 -0.5883 -0.0391
   53CHL1   H4A 6334   2.278   6.188   9.981 -1.2359 -0.3200  0.9202
   53CHL1   H4B 6335   2.137   6.288   9.964 -1.3131 -0.5619 -2.1671
   53CHL1    C5 6336   2.243   6.268   9.777  0.3627  0.0464 -0.4003
   53CHL1    C6 6337   2.129   6.257   9.702 -0.0314  0.5086 -0.3649
   53CHL1    H6 6338   2.025   6.253   9.739 -0.0201 -0.7417 -0.4516
   53CHL1    C7 6339   2.132   6.254   9.553  0.2724 -0.7507 -0.3385
   53CHL1   H7A 6340   2.078   6.164   9.515  1.0632 -0.7620 -1.5085
   53CHL1   H7B 6341   2.084   6.346   9.512 -0.5710 -1.2896 -0.5927
   53CHL1    C8 6342   2.277   6.237   9.494 -0.0101 -0.3468  0.6076
   53CHL1    H8 6343   2.300   6.128   9.504  0.6299 -0.4742 -1.6540
   53CHL1   C14 6344   2.278   6.268   9.342  0.4357 -0.6154 -0.0814
   53CHL1   H14 6345   2.253   6.376   9.339  0.2937 -0.6195  0.6540
   53CHL1   C15 6346   2.177   6.190   9.253 -0.2415  0.1427 -0.2066
   53CHL1  H15A 6347   2.181   6.083   9.284 -1.2021  0.0885 -0.2443
   53CHL1  H15B 6348   2.069   6.213   9.265 -0.3213 -0.3438  0.0396
   53CHL1   C16 6349   2.229   6.214   9.116 -0.2376  0.0051  0.6528
   53CHL1  H16A 6350   2.237   6.113   9.071  0.4942 -0.8382  2.5703
   53CHL1  H16B 6351   2.162   6.269   9.046 -0.8134 -0.9730  0.4245
   53CHL1   C17 6352   2.368   6.286   9.131  0.9627  0.1830  0.4727
   53CHL1   H17 6353   2.344   6.394   9.135 -2.3958 -0.3913 -0.8612
   53CHL1   C13 6354   2.411   6.257   9.273 -0.0600  0.2312  0.2956
   53CHL1   C18 6355   2.461   6.114   9.282 -0.1979 -0.4726 -0.7473
   53CHL1  H18A 6356   2.406   6.036   9.224  1.7892 -2.3488 -0.2430
   53CHL1  H18B 6357   2.569   6.099   9.263  0.5432 -1.0552  3.1211
   53CHL1  H18C 6358   2.465   6.075   9.386 -0.3815 -0.0315 -0.5708
   53CHL1   C12 6359   2.517   6.340   9.347  0.2687 -0.0992  0.1038
   53CHL1  H12A 6360   2.619   6.320   9.307 -0.2034 -1.6698 -0.3902
   53CHL1  H12B 6361   2.512   6.448   9.321 -0.3770 -0.1861 -0.1478
   53CHL1   C11 6362   2.524   6.319   9.498 -0.3681 -0.0161  0.0687
   53CHL1  H11A 6363   2.569   6.219   9.519 -0.0993  0.3978  1.5503
   53CHL1  H11B 6364   2.583   6.393   9.555 -0.3582  0.4544 -0.5364
   53CHL1    C9 6365   2.384   6.324   9.565  0.5225  0.8043  0.9133
   53CHL1    H9 6366   2.348   6.429   9.557 -0.4269  0.5909  2.1068
   53CHL1   C10 6367   2.385   6.297   9.719  0.3497  0.1883  0.2234
   53CHL1   C19 6368   2.464   6.165   9.752 -0.4276 -0.2688 -0.3229
   53CHL1  H19A 6369   2.459   6.138   9.860  1.3406  0.5212  0.0015
   53CHL1  H19B 6370   2.421   6.074   9.704  1.9661 -2.2203  0.9588
   53CHL1  H19C 6371   2.572   6.179   9.730 -0.5265  0.9916 -0.0631
   53CHL1    C1 6372   2.448   6.426   9.787 -0.1840  0.4213 -0.5838
   53CHL1   H1A 6373   2.556   6.430   9.761  0.3805 -0.7532  1.3290
   53CHL1   H1B 6374   2.385   6.511   9.755 -1.1449 -0.0229  0.0497
   53CHL1    C2 6375   2.458   6.414   9.936  0.8216  0.4290  0.2005
   53CHL1   H2A 6376   2.505   6.503   9.984  1.3978  0.9995 -1.3351
   53CHL1   H2B 6377   2.504   6.320   9.975  0.3765  1.1846  2.7026
   53CHL1   C20 6378   2.458   6.252   9.013  0.1608 -0.4274 -0.4398
   53CHL1   H20 6379   2.471   6.145   8.984 -0.1744 -0.8162  0.8015
   53CHL1   C21 6380   2.599   6.306   9.040 -0.8213 -0.2964 -0.4356
   53CHL1  H21A 6381   2.659   6.296   8.947  1.3164 -0.0560  0.8456
   53CHL1  H21B 6382   2.649   6.247   9.120 -1.7754 -0.7602 -0.1687
   53CHL1  H21C 6383   2.591   6.414   9.061 -0.5958 -0.7792  2.5889
   53CHL1   C22 6384   2.410   6.318   8.881 -0.4323 -0.0251  0.3933
   53CHL1  H22A 6385   2.302   6.294   8.875 -0.4441 -0.5201  2.1469
   53CHL1  H22B 6386   2.417   6.428   8.890  1.7505 -0.0404 -0.4321
   53CHL1   C23 6387   2.490   6.281   8.749  0.0541  0.2183 -0.4787
   53CHL1  H23A 6388   2.435   6.336   8.669 -1.2549 -0.5230 -0.1174
   53CHL1  H23B 6389   2.599   6.296   8.740  0.5945 -1.4635  2.2632
   53CHL1   C24 6390   2.455   6.136   8.712 -0.5896  0.4840  0.6052
   53CHL1  H24A 6391   2.515   6.073   8.781  1.9863  1.2264 -0.8361
   53CHL1  H24B 6392   2.348   6.109   8.728 -0.6010  0.0983 -0.0601
   53CHL1   C25 6393   2.497   6.077   8.575  0.3972  0.5907 -0.3408
   53CHL1   H25 6394   2.433   6.138   8.508  0.0301  0.1952 -0.3548
   53CHL1   C26 6395   2.644   6.101   8.546  0.0682  0.4413  0.2332
   53CHL1  H26A 6396   2.674   6.042   8.457  1.2465  1.1155  0.1493
   53CHL1  H26B 6397   2.659   6.211   8.537 -1.2466  0.8099  2.1451
   53CHL1  H26C 6398   2.710   6.060   8.626  1.4434 -1.6249 -1.8155
   53CHL1   C27 6399   2.456   5.929   8.567  0.1046  0.8493 -0.1303
   53CHL1  H27A 6400   2.460   5.908   8.457  1.9645 -1.1427  0.2433
   53CHL1  H27B 6401   2.534   5.871   8.621 -0.5997  0.7421  0.7851
   53CHL1  H27C 6402   2.355   5.919   8.612  0.3048  0.1180  0.1771
   54CHL1    C3 6403   2.054   0.006  10.103 -0.3930  0.2179 -0.3469
   54CHL1    H3 6404   2.087  -0.100  10.098 -1.3795 -0.0790 -0.8403
   54CHL1    O3 6405   2.033   0.037  10.244  0.5429 -0.4352 -0.4093
   54CHL1   H3' 6406   1.955  -0.008  10.275 -1.6902  3.8936  0.9947
   54CHL1    C4 6407   2.171   0.099  10.042 -0.3142  0.6807 -0.0840
   54CHL1   H4A 6408   2.148   0.207  10.060 -0.3050  0.7383 -0.4258
   54CHL1   H4B 6409   2.271   0.087  10.091  0.8014  4.9402 -0.8988
   54CHL1    C5 6410   2.186   0.060   9.895  0.0712  0.2860  0.8012
   54CHL1    C6 6411   2.305   0.022   9.841 -0.0045  0.0593  0.3752
   54CHL1    H6 6412   2.389   0.022   9.911  0.1723 -0.4105  0.1626
   54CHL1    C7 6413   2.323  -0.012   9.701 -0.2647  0.0338 -0.1902
   54CHL1   H7A 6414   2.424   0.015   9.664  0.4472 -0.9371  0.9907
   54CHL1   H7B 6415   2.306  -0.120   9.682 -2.1980  0.1814  0.5185
   54CHL1    C8 6416   2.212   0.042   9.606 -0.5620  0.1595  0.0991
   54CHL1    H8 6417   2.235   0.148   9.585 -3.0879  1.3798  2.8567
   54CHL1   C14 6418   2.219  -0.039   9.473  0.5075  0.4740 -0.4275
   54CHL1   H14 6419   2.189  -0.140   9.507 -1.1829  1.3502  0.8658
   54CHL1   C15 6420   2.355  -0.052   9.398  1.5163  0.5618 -0.8528
   54CHL1  H15A 6421   2.400   0.050   9.400 -1.3042  1.8877 -0.8651
   54CHL1  H15B 6422   2.426  -0.123   9.445  0.9146  1.1396  1.0300
   54CHL1   C16 6423   2.310  -0.099   9.261 -0.5692 -0.4250 -0.4425
   54CHL1  H16A 6424   2.355  -0.039   9.180  1.7506 -1.0903  0.2835
   54CHL1  H16B 6425   2.337  -0.205   9.243 -1.3546 -0.9913  1.4216
   54CHL1   C17 6426   2.155  -0.083   9.258  0.4011  0.5165  0.3994
   54CHL1   H17 6427   2.106  -0.180   9.283 -0.1867 -0.7818 -4.5398
   54CHL1   C13 6428   2.116   0.013   9.373 -0.1306  0.3953  0.1345
   54CHL1   C18 6429   2.157   0.148   9.315  0.0263 -1.1050  0.1427
   54CHL1  H18A 6430   2.079   0.174   9.240  1.2610  3.1935  0.1260
   54CHL1  H18B 6431   2.168   0.237   9.380  0.4434 -0.3300 -0.9501
   54CHL1  H18C 6432   2.250   0.142   9.254 -0.7861  0.8951 -1.4019
   54CHL1   C12 6433   1.974   0.006   9.428 -0.2819 -0.2102  0.0172
   54CHL1  H12A 6434   1.899   0.047   9.356 -2.0481 -1.6147  0.9569
   54CHL1  H12B 6435   1.937  -0.097   9.447  0.4501 -0.4737  0.0281
   54CHL1   C11 6436   1.970   0.087   9.562 -0.1661 -0.6097 -0.2707
   54CHL1  H11A 6437   1.993   0.195   9.553  0.4586 -0.4641  2.1798
   54CHL1  H11B 6438   1.866   0.096   9.601 -0.5416  2.3786 -1.7358
   54CHL1    C9 6439   2.076   0.032   9.663  0.1646  0.2175 -0.9240
   54CHL1    H9 6440   2.044  -0.075   9.660 -0.2612  0.3374 -0.7072
   54CHL1   C10 6441   2.057   0.080   9.809 -0.2416  0.5501 -0.2286
   54CHL1   C19 6442   2.014   0.232   9.811  0.2325  0.7499 -0.4060
   54CHL1  H19A 6443   1.907   0.246   9.785 -0.2033 -0.5604  0.5936
   54CHL1  H19B 6444   2.024   0.279   9.912 -1.8728 -0.3102  0.3685
   54CHL1  H19C 6445   2.081   0.287   9.742 -0.7329  0.5417 -1.5217
   54CHL1    C1 6446   1.943  -0.003   9.874  0.5263  0.5305 -0.4785
   54CHL1   H1A 6447   1.848   0.007   9.818 -0.2026  3.0400  1.0720
   54CHL1   H1B 6448   1.956  -0.114   9.869 -5.3547 -0.4872 -0.1801
   54CHL1    C2 6449   1.920   0.037  10.028  0.8795 -0.2975 -0.1533
   54CHL1   H2A 6450   1.850  -0.036  10.073 -0.8057 -0.9651 -3.5705
   54CHL1   H2B 6451   1.888   0.140  10.052  0.7749 -0.5998  1.0742
   54CHL1   C20 6452   2.098  -0.062   9.113  0.6386 -0.2779  0.1929
   54CHL1   H20 6453   2.136   0.026   9.057 -1.2300 -1.0420 -2.4647
   54CHL1   C21 6454   1.948  -0.043   9.103 -0.3358 -0.4785 -0.8066
   54CHL1  H21A 6455   1.908   0.031   9.175  0.0291 -2.6971  1.8525
   54CHL1  H21B 6456   1.902  -0.142   9.127 -0.5887 -0.1120  0.2427
   54CHL1  H21C 6457   1.910  -0.006   9.005  1.1155 -1.3079 -1.7284
   54CHL1   C22 6458   2.136  -0.183   9.020  0.5837 -0.0937 -1.0315
   54CHL1  H22A 6459   2.247  -0.183   9.022  0.5802  0.0409 -0.5804
   54CHL1  H22B 6460   2.084  -0.268   9.069 -1.9602  2.3802  0.8796
   54CHL1   C23 6461   2.087  -0.171   8.877 -0.0702 -0.1745  0.9196
   54CHL1  H23A 6462   1.977  -0.180   8.874  0.0009 -1.5207  1.5290
   54CHL1  H23B 6463   2.122  -0.078   8.827 -2.1922  0.1880  0.0154
   54CHL1   C24 6464   2.129  -0.290   8.790 -0.1876  0.2654 -0.0034
   54CHL1  H24A 6465   2.239  -0.296   8.804 -0.3564  0.6769  1.7053
   54CHL1  H24B 6466   2.095  -0.377   8.851 -0.7462  0.1779 -0.4291
   54CHL1   C25 6467   2.077  -0.304   8.645 -0.0095  0.0159 -0.1926
   54CHL1   H25 6468   1.968  -0.312   8.662  0.3465 -3.5972  1.2385
   54CHL1   C26 6469   2.100  -0.177   8.561 -0.5619  0.2089 -0.1152
   54CHL1  H26A 6470   2.209  -0.160   8.573 -0.4694 -1.1668  1.3742
   54CHL1  H26B 6471   2.076  -0.191   8.453  2.9362  1.0685 -1.1378
   54CHL1  H26C 6472   2.036  -0.094   8.598  0.2504  0.9268 -0.2863
   54CHL1   C27 6473   2.137  -0.423   8.576  0.4640 -0.0999 -0.2827
   54CHL1  H27A 6474   2.128  -0.516   8.636  1.6251 -0.9930 -1.4348
   54CHL1  H27B 6475   2.102  -0.443   8.472  2.3268  1.4418 -1.2711
   54CHL1  H27C 6476   2.246  -0.404   8.562  0.5884 -2.1639 -3.0599
   55CHL1    C3 6477   3.150   5.236  10.295  0.4468 -0.4342 -0.1624
   55CHL1    H3 6478   3.200   5.145  10.256  1.2104 -0.2643  0.3919
   55CHL1    O3 6479   3.180   5.244  10.430  0.3949 -0.1159 -0.2827
   55CHL1   H3' 6480   3.275   5.243  10.444  0.3034 -0.1748  0.3664
   55CHL1    C4 6481   3.219   5.362  10.239 -0.4823  0.8354  0.5629
   55CHL1   H4A 6482   3.172   5.450  10.289 -0.7004  1.2831 -0.4225
   55CHL1   H4B 6483   3.324   5.364  10.275 -0.9370 -0.6860  2.1549
   55CHL1    C5 6484   3.201   5.348  10.092 -0.0713  0.6381  0.5327
   55CHL1    C6 6485   3.301   5.346  10.007 -0.3145 -0.5453 -0.1756
   55CHL1    H6 6486   3.402   5.355  10.049 -1.0460  1.7568  1.2961
   55CHL1    C7 6487   3.288   5.344   9.857 -0.2387  0.4352 -0.2482
   55CHL1   H7A 6488   3.361   5.408   9.803 -0.0948  0.4779 -0.0015
   55CHL1   H7B 6489   3.300   5.238   9.826  1.7158  0.2625  0.9434
   55CHL1    C8 6490   3.151   5.386   9.806 -0.6314  0.4681 -0.3307
   55CHL1    H8 6491   3.149   5.496   9.820  0.9897  0.3392  1.3481
   55CHL1   C14 6492   3.131   5.350   9.657  0.3927 -0.4048 -0.0191
   55CHL1   H14 6493   3.134   5.239   9.651 -0.6191 -0.3493 -2.9425
   55CHL1   C15 6494   3.228   5.406   9.553 -0.1768  0.1191  0.1606
   55CHL1  H15A 6495   3.241   5.514   9.574  2.3435 -0.0424 -0.2057
   55CHL1  H15B 6496   3.332   5.367   9.559 -0.3669 -0.6361 -1.0423
   55CHL1   C16 6497   3.166   5.374   9.418  0.1999 -0.8898  0.4351
   55CHL1  H16A 6498   3.169   5.460   9.349  1.5671 -0.7946  0.5815
   55CHL1  H16B 6499   3.210   5.291   9.359 -0.5446 -0.7443 -0.3419
   55CHL1   C17 6500   3.013   5.344   9.452  0.4516 -0.7103 -0.3695
   55CHL1   H17 6501   3.010   5.233   9.454  0.9422 -0.7824 -2.1452
   55CHL1   C13 6502   2.990   5.382   9.603 -0.3517 -0.1502  0.0841
   55CHL1   C18 6503   2.962   5.536   9.614 -0.3386 -0.0949 -0.2034
   55CHL1  H18A 6504   2.936   5.568   9.717  0.0693  0.3159 -0.2272
   55CHL1  H18B 6505   3.044   5.599   9.574  0.5294 -0.8378  0.3585
   55CHL1  H18C 6506   2.873   5.571   9.557 -0.9518 -1.3378 -0.0467
   55CHL1   C12 6507   2.888   5.302   9.682  0.1938 -0.2504  0.2043
   55CHL1  H12A 6508   2.785   5.341   9.662  0.7538  1.0777 -0.2107
   55CHL1  H12B 6509   2.902   5.193   9.667 -0.7023 -0.2382 -0.8091
   55CHL1   C11 6510   2.898   5.335   9.832  0.0433  0.0298 -0.2593
   55CHL1  H11A 6511   2.851   5.432   9.858 -2.3500 -1.4049  1.1141
   55CHL1  H11B 6512   2.839   5.265   9.895  0.1758  0.7374  0.6546
   55CHL1    C9 6513   3.039   5.318   9.891 -0.2614 -0.2075  0.3483
   55CHL1    H9 6514   3.062   5.209   9.882 -1.0990 -0.3286 -0.4847
   55CHL1   C10 6515   3.055   5.342  10.044 -0.6649  0.4545  0.0041
   55CHL1   C19 6516   2.983   5.481  10.078 -0.6319  0.0419 -0.0817
   55CHL1  H19A 6517   2.874   5.485  10.061 -0.5619  1.0196 -0.3477
   55CHL1  H19B 6518   3.006   5.514  10.182  3.0790  0.5407 -0.9191
   55CHL1  H19C 6519   3.039   5.550  10.011  0.0990  1.6078  2.0497
   55CHL1    C1 6520   2.971   5.235  10.119 -0.4082 -0.2612  0.6283
   55CHL1   H1A 6521   2.864   5.262  10.112 -0.1373  0.5025 -1.1721
   55CHL1   H1B 6522   2.988   5.134  10.078 -3.7775 -0.4620 -0.5208
   55CHL1    C2 6523   3.001   5.235  10.272 -0.1625  0.1051  0.4224
   55CHL1   H2A 6524   2.938   5.156  10.319 -1.4881 -0.5190 -2.1909
   55CHL1   H2B 6525   2.959   5.328  10.316 -1.1640 -0.6396  1.1164
   55CHL1   C20 6526   2.911   5.388   9.345 -0.3501  0.1202  0.1391
   55CHL1   H20 6527   2.927   5.497   9.326 -0.8926 -0.1076 -1.8328
   55CHL1   C21 6528   2.769   5.368   9.394  0.2959 -0.9266  0.0330
   55CHL1  H21A 6529   2.697   5.404   9.317  0.0660  0.4939  0.8844
   55CHL1  H21B 6530   2.752   5.415   9.493 -0.2129 -1.4395  0.1925
   55CHL1  H21C 6531   2.751   5.258   9.393 -0.1233 -0.8593  0.0882
   55CHL1   C22 6532   2.941   5.316   9.208  0.1875  0.0647 -0.2696
   55CHL1  H22A 6533   3.051   5.313   9.191  0.5076 -0.1607  1.6515
   55CHL1  H22B 6534   2.906   5.212   9.228  2.2791 -1.1349 -2.3062
   55CHL1   C23 6535   2.869   5.363   9.080  0.3519  0.9397  0.1934
   55CHL1  H23A 6536   2.761   5.339   9.088  0.5552  0.3432  1.3726
   55CHL1  H23B 6537   2.893   5.469   9.058  1.0245  0.4989 -1.2887
   55CHL1   C24 6538   2.920   5.283   8.959 -0.8411  0.3057  0.0480
   55CHL1  H24A 6539   3.028   5.308   8.956  0.6248 -4.8055  0.9686
   55CHL1  H24B 6540   2.926   5.172   8.965  1.1197  0.4066  0.3529
   55CHL1   C25 6541   2.847   5.328   8.833 -0.2070  0.1853 -0.1177
   55CHL1   H25 6542   2.826   5.436   8.840  2.3459  0.7893 -0.8962
   55CHL1   C26 6543   2.935   5.308   8.711  0.0577  0.3829  0.4230
   55CHL1  H26A 6544   3.029   5.366   8.726  0.4664  0.4730 -2.0955
   55CHL1  H26B 6545   2.956   5.200   8.697  1.2880  0.7380 -0.6835
   55CHL1  H26C 6546   2.885   5.362   8.628  0.5198  0.6876  0.3360
   55CHL1   C27 6547   2.718   5.251   8.812 -0.3757 -0.5604  0.4247
   55CHL1  H27A 6548   2.668   5.290   8.721 -0.5028 -0.1893  0.6534
   55CHL1  H27B 6549   2.742   5.144   8.795  0.1229 -0.2593 -0.9020
   55CHL1  H27C 6550   2.643   5.267   8.893 -0.1084  0.1385  0.5460
   56CHL1    C3 6551   0.839   2.709  10.160  0.2821  0.1753  0.3055
   56CHL1    H3 6552   0.881   2.608  10.144  2.5972  1.4909 -3.1322
   56CHL1    O3 6553   0.782   2.727  10.288 -0.1310 -0.0011 -0.1728
   56CHL1   H3' 6554   0.747   2.817  10.292  1.8245  0.9150 -1.7226
   56CHL1    C4 6555   0.959   2.810  10.148 -0.0141 -0.5723 -0.5573
   56CHL1   H4A 6556   0.920   2.911  10.172  3.1800  0.6737 -0.0894
   56CHL1   H4B 6557   1.027   2.774  10.229  0.8475 -0.3145 -1.1559
   56CHL1    C5 6558   1.019   2.810  10.010  0.3394  0.3527 -0.2166
   56CHL1    C6 6559   1.146   2.782   9.990 -0.7347  0.3780 -0.6928
   56CHL1    H6 6560   1.223   2.772  10.068  0.0468  1.2165 -1.3313
   56CHL1    C7 6561   1.208   2.772   9.854 -0.4981 -0.6577  0.5577
   56CHL1   H7A 6562   1.308   2.819   9.847 -1.3236  1.2091  0.7199
   56CHL1   H7B 6563   1.225   2.664   9.834  0.8763 -0.4207  0.3268
   56CHL1    C8 6564   1.127   2.857   9.752 -0.4551 -0.8207  0.1768
   56CHL1    H8 6565   1.137   2.966   9.771 -1.3330 -0.6343 -0.3320
   56CHL1   C14 6566   1.183   2.834   9.610 -0.5455 -0.0414  0.5018
   56CHL1   H14 6567   1.189   2.725   9.590  1.2961 -0.0411  0.8694
   56CHL1   C15 6568   1.327   2.868   9.581  0.5851 -0.6057 -0.0348
   56CHL1  H15A 6569   1.361   2.970   9.612 -2.2450  1.3439 -2.7325
   56CHL1  H15B 6570   1.398   2.793   9.623 -0.3819 -1.2846  0.4301
   56CHL1   C16 6571   1.332   2.867   9.427  0.2464  0.0856  0.4247
   56CHL1  H16A 6572   1.369   2.962   9.383  0.9003  0.4213  1.6629
   56CHL1  H16B 6573   1.411   2.795   9.396 -0.3601 -0.1611 -0.5949
   56CHL1   C17 6574   1.188   2.836   9.369  0.4283 -0.8398 -0.2913
   56CHL1   H17 6575   1.174   2.726   9.362  0.4085 -0.8993  0.5845
   56CHL1   C13 6576   1.102   2.885   9.490 -0.0303 -0.1834 -1.1044
   56CHL1   C18 6577   1.088   3.037   9.491  0.2987 -0.0931 -0.3179
   56CHL1  H18A 6578   1.185   3.080   9.456  0.4545  1.0933  1.4392
   56CHL1  H18B 6579   1.007   3.067   9.421 -1.4959 -1.4127  1.0962
   56CHL1  H18C 6580   1.074   3.064   9.597  2.0667  0.8681 -0.2949
   56CHL1   C12 6581   0.966   2.822   9.503 -0.0281  0.0003  0.4341
   56CHL1  H12A 6582   0.904   2.869   9.423 -0.0492  1.2038  1.1230
   56CHL1  H12B 6583   0.978   2.713   9.489 -1.0339 -0.1118  0.3913
   56CHL1   C11 6584   0.892   2.846   9.632 -0.3580  0.2148 -0.3998
   56CHL1  H11A 6585   0.864   2.953   9.645  0.4584  0.3842 -0.0166
   56CHL1  H11B 6586   0.806   2.776   9.630  2.3076 -3.3569 -0.1708
   56CHL1    C9 6587   0.981   2.805   9.756  0.3835  0.3253  0.1353
   56CHL1    H9 6588   0.989   2.694   9.749 -0.8570  0.1140  1.6151
   56CHL1   C10 6589   0.913   2.830   9.898  0.2225 -0.2264 -0.3756
   56CHL1   C19 6590   0.880   2.981   9.909  0.5434  0.4385  0.6618
   56CHL1  H19A 6591   0.804   3.013   9.835  1.2418 -0.5903 -0.5565
   56CHL1  H19B 6592   0.846   3.015  10.009  0.8626 -1.3603  1.4340
   56CHL1  H19C 6593   0.961   3.054   9.887 -0.3472  0.9715 -0.9399
   56CHL1    C1 6594   0.791   2.740   9.918  1.1657 -0.1028 -0.7566
   56CHL1   H1A 6595   0.707   2.778   9.856  0.8878  0.2260 -0.1934
   56CHL1   H1B 6596   0.823   2.640   9.881  1.5133 -1.3539  2.5421
   56CHL1    C2 6597   0.727   2.737  10.060 -0.3637  0.7355  0.4267
   56CHL1   H2A 6598   0.647   2.660  10.068  0.7902 -0.6640 -0.8437
   56CHL1   H2B 6599   0.682   2.836  10.080  0.0846  1.1237 -0.4644
   56CHL1   C20 6600   1.174   2.894   9.228  0.5240  0.1750  0.1834
   56CHL1   H20 6601   1.192   3.004   9.226 -0.0354  0.2791  0.7001
   56CHL1   C21 6602   1.036   2.870   9.170  0.3747  0.2338 -0.3861
   56CHL1  H21A 6603   1.012   2.765   9.146  2.2688 -0.4404  0.5044
   56CHL1  H21B 6604   1.021   2.935   9.080  1.1891  0.8176 -0.1176
   56CHL1  H21C 6605   0.953   2.920   9.225  0.0338 -0.5347 -0.1979
   56CHL1   C22 6606   1.283   2.853   9.123  0.2092  0.7788  0.3919
   56CHL1  H22A 6607   1.380   2.887   9.164  1.1099 -0.1379 -0.8722
   56CHL1  H22B 6608   1.283   2.743   9.110  1.9732  0.8631 -0.6170
   56CHL1   C23 6609   1.255   2.909   8.982 -0.4959  0.7048  0.0569
   56CHL1  H23A 6610   1.154   2.887   8.941 -0.8389 -0.1874  1.3228
   56CHL1  H23B 6611   1.262   3.019   8.967  1.6472  0.6472  0.3499
   56CHL1   C24 6612   1.345   2.834   8.877  0.7610 -0.8167 -0.2679
   56CHL1  H24A 6613   1.334   2.882   8.777 -0.8465  0.4952  0.5024
   56CHL1  H24B 6614   1.449   2.854   8.910  1.2917  0.1799 -2.3579
   56CHL1   C25 6615   1.307   2.683   8.851  0.0610  0.0732 -0.4961
   56CHL1   H25 6616   1.326   2.624   8.942 -1.3023  0.9037  0.3674
   56CHL1   C26 6617   1.164   2.660   8.824  0.1329 -0.5289 -0.1771
   56CHL1  H26A 6618   1.122   2.717   8.738 -0.0136  1.3645  1.0805
   56CHL1  H26B 6619   1.146   2.551   8.811 -0.9972 -0.6447  1.9287
   56CHL1  H26C 6620   1.104   2.683   8.914  1.1479  1.6149  0.0178
   56CHL1   C27 6621   1.390   2.635   8.724 -0.2069 -0.3898  0.0842
   56CHL1  H27A 6622   1.366   2.527   8.712  1.0047 -0.5779 -0.8267
   56CHL1  H27B 6623   1.365   2.705   8.641  1.0358  1.6009  1.3025
   56CHL1  H27C 6624   1.498   2.650   8.748 -0.8103  3.3949  1.1423
   57CHL1    C3 6625   5.296   5.732  10.228 -0.4416  0.3080  0.1000
   57CHL1    H3 6626   5.405   5.730  10.250 -0.1096 -1.3952 -1.4595
   57CHL1    O3 6627   5.230   5.701  10.350 -0.1678  0.0160 -0.1873
   57CHL1   H3' 6628   5.230   5.781  10.403 -1.3062 -1.1241  1.6538
   57CHL1    C4 6629   5.271   5.877  10.177 -0.3048  0.4176 -0.0415
   57CHL1   H4A 6630   5.160   5.891  10.176 -0.2897  2.0146  3.8066
   57CHL1   H4B 6631   5.306   5.942  10.260 -0.7876 -0.6878  1.0636
   57CHL1    C5 6632   5.333   5.910  10.043 -0.8595  0.2315 -0.0146
   57CHL1    C6 6633   5.427   6.006  10.027  0.2002  0.6472  0.1597
   57CHL1    H6 6634   5.471   6.067  10.107  2.7555  3.7370 -3.2725
   57CHL1    C7 6635   5.492   6.037   9.896  0.3346  0.4160 -0.2803
   57CHL1   H7A 6636   5.506   6.146   9.879  0.7837  0.6316  1.3333
   57CHL1   H7B 6637   5.593   5.993   9.913  0.2263 -0.0727 -0.8430
   57CHL1    C8 6638   5.432   5.965   9.768  0.5101 -0.3268  0.5592
   57CHL1    H8 6639   5.337   6.015   9.741  1.1720 -0.4248 -2.3286
   57CHL1   C14 6640   5.520   5.971   9.645 -0.5849 -0.4395 -0.3660
   57CHL1   H14 6641   5.614   5.918   9.671 -0.1783  1.2086  1.8692
   57CHL1   C15 6642   5.558   6.109   9.592 -0.6430 -0.1101  0.0078
   57CHL1  H15A 6643   5.468   6.174   9.590 -0.1228  0.6148 -0.9043
   57CHL1  H15B 6644   5.630   6.161   9.660 -2.6491  0.0006  2.1662
   57CHL1   C16 6645   5.615   6.079   9.454 -0.2182 -0.0549 -0.5261
   57CHL1  H16A 6646   5.585   6.154   9.377 -0.0675  0.2134 -0.3244
   57CHL1  H16B 6647   5.725   6.073   9.471  0.0461  1.7487 -1.2927
   57CHL1   C17 6648   5.570   5.929   9.417 -0.1336  0.0569  0.0280
   57CHL1   H17 6649   5.655   5.863   9.443 -1.1023 -0.6050  1.6423
   57CHL1   C13 6650   5.464   5.895   9.523 -0.6353 -1.1804 -0.2904
   57CHL1   C18 6651   5.325   5.958   9.483 -0.9513  0.0752  0.1854
   57CHL1  H18A 6652   5.264   5.976   9.574  2.0165 -0.3791  2.4049
   57CHL1  H18B 6653   5.339   6.050   9.422 -1.3722 -0.3512 -0.5675
   57CHL1  H18C 6654   5.264   5.898   9.412 -1.7625  0.6459  0.3893
   57CHL1   C12 6655   5.452   5.747   9.563  0.0888  0.0653 -0.2392
   57CHL1  H12A 6656   5.401   5.686   9.485 -1.4997 -0.5196  1.2017
   57CHL1  H12B 6657   5.556   5.711   9.573 -0.3712 -1.3046 -0.2062
   57CHL1   C11 6658   5.356   5.729   9.683  0.4542  0.6356 -0.1371
   57CHL1  H11A 6659   5.257   5.757   9.642  0.1601 -1.5187 -1.0328
   57CHL1  H11B 6660   5.342   5.622   9.708 -2.0538  0.4428 -2.0474
   57CHL1    C9 6661   5.397   5.817   9.805 -0.3700  0.0839  0.9245
   57CHL1    H9 6662   5.496   5.781   9.838  0.2117 -1.1148 -1.8002
   57CHL1   C10 6663   5.298   5.813   9.928  0.4135 -0.0022 -0.0760
   57CHL1   C19 6664   5.148   5.831   9.886  0.5022  0.3137  0.2166
   57CHL1  H19A 6665   5.118   5.928   9.842 -0.3796 -0.5621 -1.1589
   57CHL1  H19B 6666   5.126   5.755   9.809 -0.4560  1.1860 -0.3949
   57CHL1  H19C 6667   5.075   5.809   9.966  0.3033  0.5490  0.1019
   57CHL1    C1 6668   5.318   5.664   9.987  0.2732 -0.5647  0.0538
   57CHL1   H1A 6669   5.273   5.602   9.907 -0.9305 -1.2255  1.1913
   57CHL1   H1B 6670   5.426   5.639   9.983  0.9785  2.2832 -2.5647
   57CHL1    C2 6671   5.258   5.629  10.124  0.0764 -0.3979  0.4869
   57CHL1   H2A 6672   5.287   5.526  10.152  2.9406 -0.2171 -1.3725
   57CHL1   H2B 6673   5.147   5.641  10.119 -0.2212 -2.8587 -0.7588
   57CHL1   C20 6674   5.534   5.898   9.263  0.2308 -0.8207 -0.3007
   57CHL1   H20 6675   5.430   5.932   9.240  0.0313 -2.8390 -2.8055
   57CHL1   C21 6676   5.538   5.753   9.237  0.1722  0.3901 -0.1429
   57CHL1  H21A 6677   5.533   5.733   9.128 -3.0663 -0.4972  0.0902
   57CHL1  H21B 6678   5.454   5.694   9.280  1.6843 -1.2861  0.6541
   57CHL1  H21C 6679   5.638   5.714   9.267  0.1742  0.8221  0.4397
   57CHL1   C22 6680   5.621   5.979   9.162 -0.3153  0.6044  0.5626
   57CHL1  H22A 6681   5.590   5.958   9.057 -2.2580  2.5631  0.6541
   57CHL1  H22B 6682   5.579   6.082   9.172 -2.4265 -0.3274  1.9747
   57CHL1   C23 6683   5.778   5.976   9.174  0.6840 -0.8672  0.6708
   57CHL1  H23A 6684   5.813   6.046   9.252 -0.2951 -2.1105  2.3037
   57CHL1  H23B 6685   5.806   5.874   9.210  4.5068 -0.5300 -0.8805
   57CHL1   C24 6686   5.859   5.989   9.043  0.2975  0.2239 -0.0271
   57CHL1  H24A 6687   5.827   5.902   8.981 -1.5010  0.3390  0.6740
   57CHL1  H24B 6688   5.814   6.080   8.999  1.6824 -0.0844 -2.2458
   57CHL1   C25 6689   6.006   5.990   9.051 -0.6989  0.0589 -0.3768
   57CHL1   H25 6690   6.036   5.894   9.099  1.1169  1.2330  0.9943
   57CHL1   C26 6691   6.065   6.002   8.905 -0.6017  0.4184 -0.3201
   57CHL1  H26A 6692   6.173   6.026   8.915 -1.0093  1.8929  1.0778
   57CHL1  H26B 6693   6.040   5.919   8.836  0.2823 -1.1615  1.1624
   57CHL1  H26C 6694   6.033   6.094   8.852  1.5238  1.8947  0.7973
   57CHL1   C27 6695   6.060   6.091   9.152 -0.0308 -0.1084 -0.5775
   57CHL1  H27A 6696   6.155   6.038   9.173 -0.4324 -0.2954  0.8282
   57CHL1  H27B 6697   6.085   6.184   9.097  0.1134 -0.4274 -1.0583
   57CHL1  H27C 6698   5.996   6.103   9.242 -2.8407  1.8029 -2.6268
   58CHL1    C3 6699   6.119   4.184  10.162  0.3652  0.2962 -0.0758
   58CHL1    H3 6700   6.229   4.174  10.172  0.1677 -1.8694  0.6824
   58CHL1    O3 6701   6.052   4.194  10.296 -0.4392  0.4929 -0.0633
   58CHL1   H3' 6702   6.058   4.103  10.325 -2.2461 -0.8394 -3.2808
   58CHL1    C4 6703   6.094   4.311  10.078  0.5426 -0.4182 -0.3730
   58CHL1   H4A 6704   5.986   4.335  10.067  0.2416 -1.4998  0.1400
   58CHL1   H4B 6705   6.150   4.395  10.124  0.2966  0.8022 -2.1953
   58CHL1    C5 6706   6.143   4.290   9.935 -0.5796 -0.0650  0.1249
   58CHL1    C6 6707   6.239   4.372   9.881  0.4448 -0.3363 -0.2349
   58CHL1    H6 6708   6.270   4.459   9.941 -1.0536 -0.7326  1.1732
   58CHL1    C7 6709   6.305   4.356   9.748 -0.5900 -0.1045  0.0138
   58CHL1   H7A 6710   6.332   4.454   9.704  1.4713 -0.4057  0.5335
   58CHL1   H7B 6711   6.400   4.310   9.781 -0.7534  0.6220  1.6073
   58CHL1    C8 6712   6.226   4.264   9.665  0.2333  0.2522 -0.7919
   58CHL1    H8 6713   6.130   4.307   9.629  0.7018  0.0629 -2.3587
   58CHL1   C14 6714   6.306   4.222   9.538  0.3290  0.3334 -0.4129
   58CHL1   H14 6715   6.392   4.161   9.572  0.3974 -0.6626 -2.2563
   58CHL1   C15 6716   6.373   4.338   9.459  0.5815  0.0856  0.4840
   58CHL1  H15A 6717   6.304   4.425   9.461 -1.7910 -1.4927 -2.8599
   58CHL1  H15B 6718   6.473   4.359   9.504  0.8671 -2.1550  1.0067
   58CHL1   C16 6719   6.405   4.272   9.328 -0.6811 -0.3955  0.4675
   58CHL1  H16A 6720   6.347   4.325   9.250 -0.8199 -0.8577  0.2469
   58CHL1  H16B 6721   6.512   4.278   9.296 -0.8367 -2.3470 -0.5876
   58CHL1   C17 6722   6.350   4.121   9.325 -0.4868  0.1246  0.1564
   58CHL1   H17 6723   6.421   4.044   9.363 -0.5736 -0.3895 -0.6928
   58CHL1   C13 6724   6.244   4.126   9.438 -0.0251 -0.0604 -0.3199
   58CHL1   C18 6725   6.120   4.201   9.392  0.0694 -0.4976 -0.3200
   58CHL1  H18A 6726   6.053   4.143   9.325 -1.6563 -1.2631  1.9415
   58CHL1  H18B 6727   6.050   4.241   9.469 -1.3374 -2.1886 -0.6755
   58CHL1  H18C 6728   6.145   4.294   9.336  0.6696 -0.5371 -0.1214
   58CHL1   C12 6729   6.219   3.993   9.518 -0.2332 -0.0445  0.2172
   58CHL1  H12A 6730   6.183   3.920   9.442 -1.1865  2.7149 -2.1638
   58CHL1  H12B 6731   6.316   3.955   9.555  0.9831  0.7574 -1.9701
   58CHL1   C11 6732   6.130   4.024   9.636 -0.2526  0.0103 -0.5212
   58CHL1  H11A 6733   6.031   4.065   9.606 -1.0817 -2.8552 -2.0080
   58CHL1  H11B 6734   6.118   3.925   9.685 -1.9876 -0.3625 -1.6284
   58CHL1    C9 6735   6.181   4.134   9.738 -0.0494  0.7135  0.1595
   58CHL1    H9 6736   6.279   4.099   9.776 -0.3607  0.6266  0.8907
   58CHL1   C10 6737   6.097   4.154   9.866 -0.1453  0.0640  0.4143
   58CHL1   C19 6738   5.944   4.177   9.840  0.4075  0.2195  0.3817
   58CHL1  H19A 6739   5.885   4.182   9.934 -0.1045  0.5647  0.0474
   58CHL1  H19B 6740   5.938   4.269   9.778 -3.3506  0.8561  1.4206
   58CHL1  H19C 6741   5.902   4.095   9.778 -0.4279  2.8095 -2.7620
   58CHL1    C1 6742   6.134   4.042   9.959  0.3971 -0.3720  0.1218
   58CHL1   H1A 6743   6.119   3.946   9.905  0.8767  0.9972 -2.6422
   58CHL1   H1B 6744   6.243   4.042   9.982  1.1045 -3.0522 -2.6909
   58CHL1    C2 6745   6.067   4.058  10.097 -0.4260 -0.2156 -0.0780
   58CHL1   H2A 6746   6.093   3.973  10.164 -1.0766  0.0239  0.4891
   58CHL1   H2B 6747   5.956   4.065  10.089 -0.6041 -2.1094  0.1769
   58CHL1   C20 6748   6.312   4.068   9.180 -0.7779 -0.0495  0.2729
   58CHL1   H20 6749   6.232   4.129   9.132 -1.5168  0.1096  1.6565
   58CHL1   C21 6750   6.253   3.922   9.181  0.2002 -0.1625  0.8075
   58CHL1  H21A 6751   6.255   3.879   9.078  0.5278  2.3223 -0.2951
   58CHL1  H21B 6752   6.149   3.919   9.219 -0.0211 -3.6242  0.2683
   58CHL1  H21C 6753   6.317   3.854   9.242  2.5320  0.2162 -1.0511
   58CHL1   C22 6754   6.439   4.069   9.093 -0.0332  0.3693 -0.5547
   58CHL1  H22A 6755   6.525   4.132   9.124 -0.5919  1.4617 -1.1574
   58CHL1  H22B 6756   6.487   3.969   9.096 -0.2350  0.2262 -1.6531
   58CHL1   C23 6757   6.427   4.109   8.945 -0.4765 -0.6726 -0.9616
   58CHL1  H23A 6758   6.333   4.075   8.896 -0.8468  1.5639 -1.9167
   58CHL1  H23B 6759   6.422   4.219   8.928 -0.7710 -0.3932  0.7381
   58CHL1   C24 6760   6.528   4.046   8.852  0.1722 -0.5601  0.0039
   58CHL1  H24A 6761   6.632   4.067   8.884 -0.4579 -0.7291  2.3283
   58CHL1  H24B 6762   6.517   3.936   8.865  1.7472 -0.8711 -1.0363
   58CHL1   C25 6763   6.505   4.085   8.709 -0.5858  0.2352  0.0463
   58CHL1   H25 6764   6.396   4.081   8.691 -0.6201  0.1794  0.2518
   58CHL1   C26 6765   6.559   4.235   8.689  0.6371  0.3596 -0.3432
   58CHL1  H26A 6766   6.514   4.270   8.594  0.3442 -0.9258 -0.6989
   58CHL1  H26B 6767   6.507   4.296   8.766 -1.3774 -1.1418 -0.4678
   58CHL1  H26C 6768   6.668   4.254   8.703  0.6075 -0.4119  1.0620
   58CHL1   C27 6769   6.584   3.986   8.621 -0.3219  0.0962  0.6584
   58CHL1  H27A 6770   6.690   3.992   8.655 -0.0041 -0.4655 -0.1822
   58CHL1  H27B 6771   6.539   3.885   8.626  1.2354 -0.7157 -0.7950
   58CHL1  H27C 6772   6.579   4.008   8.512  3.1894 -0.0682  0.3349
   59CHL1    C3 6773   4.986   3.887  10.349 -0.7629  0.2302  0.0579
   59CHL1    H3 6774   5.049   3.795  10.355  0.7514  1.0336 -2.2655
   59CHL1    O3 6775   4.937   3.914  10.478 -0.2399 -0.5881  0.0630
   59CHL1   H3' 6776   4.918   4.008  10.469  2.6059  0.1839  0.9925
   59CHL1    C4 6777   5.070   4.009  10.302 -0.7899  0.8746 -0.5828
   59CHL1   H4A 6778   5.015   4.106  10.311  1.1022  1.9058  0.4683
   59CHL1   H4B 6779   5.150   4.018  10.378 -0.6187  0.6462 -0.7379
   59CHL1    C5 6780   5.121   3.991  10.165  0.1618  0.2493 -0.2908
   59CHL1    C6 6781   5.252   4.002  10.137  0.7529 -0.4643 -0.1515
   59CHL1    H6 6782   5.321   4.026  10.218  0.0991  1.3585 -0.0897
   59CHL1    C7 6783   5.311   3.978  10.001 -0.3438 -0.5396 -0.3635
   59CHL1   H7A 6784   5.382   4.062   9.982  0.4141 -0.8037  1.1671
   59CHL1   H7B 6785   5.369   3.884   9.992  1.7165  0.5390  0.7666
   59CHL1    C8 6786   5.198   3.981   9.891  1.0942 -0.8795  0.4253
   59CHL1    H8 6787   5.174   4.089   9.880 -1.5923 -1.3315  1.0890
   59CHL1   C14 6788   5.248   3.929   9.759  0.2776  0.7199  0.0757
   59CHL1   H14 6789   5.284   3.826   9.776 -0.3422  0.8825  2.7662
   59CHL1   C15 6790   5.368   4.010   9.709 -0.4726 -0.0322  0.5607
   59CHL1  H15A 6791   5.330   4.115   9.709 -3.1634 -0.9128 -0.1937
   59CHL1  H15B 6792   5.461   4.005   9.768 -0.0703  0.1948 -0.0460
   59CHL1   C16 6793   5.379   3.967   9.564  0.1989  0.1420 -0.6352
   59CHL1  H16A 6794   5.396   4.057   9.500  0.7220 -0.7078 -1.7180
   59CHL1  H16B 6795   5.461   3.893   9.572 -0.8401 -0.9626  0.0909
   59CHL1   C17 6796   5.241   3.897   9.524 -0.5594  0.1378 -0.2095
   59CHL1   H17 6797   5.268   3.789   9.531  2.1165  0.7734  0.5516
   59CHL1   C13 6798   5.151   3.923   9.647 -0.0381  0.3329  0.7155
   59CHL1   C18 6799   5.077   4.059   9.612 -0.5528  0.4202  0.5051
   59CHL1  H18A 6800   5.055   4.110   9.708  0.3390 -0.9328  1.4502
   59CHL1  H18B 6801   5.141   4.121   9.545 -0.4373 -1.1514 -0.8908
   59CHL1  H18C 6802   4.985   4.030   9.557  0.1032 -1.5618  0.3659
   59CHL1   C12 6803   5.054   3.816   9.685 -0.0641  0.6614 -0.2849
   59CHL1  H12A 6804   4.976   3.806   9.606 -0.9656  0.7496  0.5653
   59CHL1  H12B 6805   5.105   3.719   9.703 -1.5576 -0.2510 -0.8235
   59CHL1   C11 6806   4.980   3.861   9.814 -0.0376 -0.9480 -0.6846
   59CHL1  H11A 6807   4.925   3.956   9.794 -0.3539 -1.3427 -1.7156
   59CHL1  H11B 6808   4.894   3.794   9.840 -1.4918  1.2031  0.4154
   59CHL1    C9 6809   5.080   3.897   9.929  0.1044  0.1639 -1.2860
   59CHL1    H9 6810   5.124   3.798   9.954 -1.1875  0.3311  2.2649
   59CHL1   C10 6811   5.015   3.946  10.061  0.1515 -0.2212  1.2858
   59CHL1   C19 6812   4.934   4.068  10.021  0.1628  0.1532 -0.0700
   59CHL1  H19A 6813   4.876   4.107  10.108 -1.8392 -1.9773 -0.3579
   59CHL1  H19B 6814   5.001   4.141   9.971  1.8652 -1.3064 -0.0156
   59CHL1  H19C 6815   4.848   4.037   9.958  0.8386 -2.6214  0.2426
   59CHL1    C1 6816   4.910   3.848  10.114 -0.4175  0.2494  0.2689
   59CHL1   H1A 6817   4.828   3.856  10.039 -1.5903 -1.1174  1.3365
   59CHL1   H1B 6818   4.947   3.744  10.102 -0.6163  0.3554 -1.4196
   59CHL1    C2 6819   4.863   3.877  10.256 -0.2569  0.4590 -0.7080
   59CHL1   H2A 6820   4.800   3.788  10.280  1.5936 -1.7529 -3.3921
   59CHL1   H2B 6821   4.807   3.973  10.266  2.7343  2.0751  2.4167
   59CHL1   C20 6822   5.198   3.918   9.373 -0.1134 -0.4743  0.1069
   59CHL1   H20 6823   5.197   4.028   9.353 -0.5254 -0.7334 -1.3964
   59CHL1   C21 6824   5.060   3.855   9.340  0.3373 -0.2112 -0.8411
   59CHL1  H21A 6825   5.025   3.855   9.235  0.1346  0.4775 -0.7835
   59CHL1  H21B 6826   4.987   3.916   9.399 -0.8054 -2.3920  0.0994
   59CHL1  H21C 6827   5.052   3.752   9.381 -0.4878 -0.0826 -0.6533
   59CHL1   C22 6828   5.305   3.854   9.276 -0.4773  0.3296  1.0493
   59CHL1  H22A 6829   5.410   3.879   9.301 -0.7336  0.0797  2.4554
   59CHL1  H22B 6830   5.309   3.743   9.287 -1.0080  0.2972  0.9355
   59CHL1   C23 6831   5.282   3.893   9.132 -0.1675 -0.5734  0.7433
   59CHL1  H23A 6832   5.182   3.868   9.090 -0.8642  4.8490 -1.7042
   59CHL1  H23B 6833   5.289   4.003   9.119  1.2513 -0.6492  0.7101
   59CHL1   C24 6834   5.371   3.809   9.039 -0.4132 -0.9347 -0.4434
   59CHL1  H24A 6835   5.476   3.805   9.074 -1.0383 -1.4115  1.5167
   59CHL1  H24B 6836   5.319   3.711   9.032 -0.7416 -0.8497  0.5943
   59CHL1   C25 6837   5.374   3.861   8.892 -0.0846  0.6014 -0.8438
   59CHL1   H25 6838   5.391   3.970   8.882  0.1764  0.5357 -1.1510
   59CHL1   C26 6839   5.470   3.778   8.796 -0.0172  0.0549  0.7323
   59CHL1  H26A 6840   5.432   3.775   8.692  0.5733 -1.2035  0.5447
   59CHL1  H26B 6841   5.562   3.840   8.796 -1.0278  1.8031 -2.6984
   59CHL1  H26C 6842   5.492   3.677   8.835  2.5677  1.1763  2.4960
   59CHL1   C27 6843   5.235   3.843   8.819  0.1532 -0.6483 -0.1091
   59CHL1  H27A 6844   5.149   3.899   8.863  0.8139 -0.7233  1.3291
   59CHL1  H27B 6845   5.246   3.876   8.713  1.6801  3.5775  1.1980
   59CHL1  H27C 6846   5.210   3.734   8.823  1.3452 -0.9139  0.5506
   60CHL1    C3 6847   5.660   2.381  10.239 -0.0244 -0.0088 -0.2054
   60CHL1    H3 6848   5.758   2.370  10.189 -0.0467 -0.0380 -0.2421
   60CHL1    O3 6849   5.679   2.443  10.364 -0.2996  0.0393 -0.8977
   60CHL1   H3' 6850   5.715   2.370  10.415 -0.6730 -0.6229 -1.5639
   60CHL1    C4 6851   5.577   2.470  10.148 -0.2680  0.1092  0.1497
   60CHL1   H4A 6852   5.479   2.483  10.200  0.4894  1.6486  1.2558
   60CHL1   H4B 6853   5.635   2.565  10.147  1.1259 -0.6930  1.2156
   60CHL1    C5 6854   5.546   2.411  10.011 -0.0145 -0.0997  0.0269
   60CHL1    C6 6855   5.590   2.467   9.899  0.9855 -0.8661 -0.4816
   60CHL1    H6 6856   5.646   2.562   9.902  0.1020 -0.3552  0.1329
   60CHL1    C7 6857   5.561   2.414   9.769  0.4048  0.6114  0.0040
   60CHL1   H7A 6858   5.521   2.500   9.711 -0.5855  1.2305  1.5707
   60CHL1   H7B 6859   5.660   2.385   9.727  0.2616  1.8942 -1.3308
   60CHL1    C8 6860   5.450   2.300   9.761  0.4019 -0.1556  0.6978
   60CHL1    H8 6861   5.351   2.352   9.764 -0.0497 -0.9615  0.1438
   60CHL1   C14 6862   5.470   2.230   9.629 -0.4608  0.4037  0.2556
   60CHL1   H14 6863   5.569   2.179   9.636  0.7226  1.8682 -3.4860
   60CHL1   C15 6864   5.486   2.302   9.497 -0.4527  0.1200  0.3245
   60CHL1  H15A 6865   5.411   2.384   9.487  0.6643  0.9531 -1.8294
   60CHL1  H15B 6866   5.589   2.341   9.482 -0.6633  1.0966  1.2646
   60CHL1   C16 6867   5.458   2.192   9.386 -0.4679 -0.2662  0.0383
   60CHL1  H16A 6868   5.381   2.220   9.311  1.6651 -1.1015 -2.6355
   60CHL1  H16B 6869   5.546   2.169   9.324 -0.4772 -0.9396  0.2656
   60CHL1   C17 6870   5.417   2.063   9.463 -0.2910 -0.5580  0.3760
   60CHL1   H17 6871   5.513   2.008   9.470  0.1615  0.3611  1.9796
   60CHL1   C13 6872   5.376   2.114   9.605 -0.5659  0.0160 -0.1534
   60CHL1   C18 6873   5.229   2.162   9.605  0.1039  0.0665 -0.1154
   60CHL1  H18A 6874   5.207   2.197   9.708 -3.0141 -3.1370  0.5186
   60CHL1  H18B 6875   5.220   2.242   9.529 -0.2840  0.5109  0.3920
   60CHL1  H18C 6876   5.156   2.079   9.595  1.1017 -1.0114  1.2283
   60CHL1   C12 6877   5.396   2.003   9.717 -0.8285  0.1849  0.3856
   60CHL1  H12A 6878   5.325   1.919   9.708 -0.2776 -0.3557  1.0127
   60CHL1  H12B 6879   5.501   1.968   9.708 -0.7931  0.4326 -0.2675
   60CHL1   C11 6880   5.383   2.068   9.863  0.1652 -0.3863  0.4926
   60CHL1  H11A 6881   5.273   2.082   9.869  0.1063 -1.0923  1.2582
   60CHL1  H11B 6882   5.409   1.995   9.943 -0.3833  0.0683  1.1049
   60CHL1    C9 6883   5.466   2.200   9.880 -0.3616  0.1870  0.6624
   60CHL1    H9 6884   5.568   2.160   9.862  0.0891  1.9252 -0.9731
   60CHL1   C10 6885   5.476   2.274  10.019 -0.4691 -0.3034 -0.5282
   60CHL1   C19 6886   5.322   2.293  10.054  0.2304 -0.0820 -0.0137
   60CHL1  H19A 6887   5.270   2.196  10.039  0.6126 -0.4238  0.7825
   60CHL1  H19B 6888   5.302   2.335  10.155  0.3809 -3.0150  1.3242
   60CHL1  H19C 6889   5.277   2.365   9.982 -2.8928 -1.7341  0.1080
   60CHL1    C1 6890   5.549   2.180  10.125 -0.7954 -0.0794 -0.2097
   60CHL1   H1A 6891   5.478   2.098  10.146  0.3604 -1.1142 -0.2378
   60CHL1   H1B 6892   5.641   2.136  10.081 -0.6539 -0.2968  0.3092
   60CHL1    C2 6893   5.589   2.245  10.257  0.2864 -0.3573  1.1057
   60CHL1   H2A 6894   5.655   2.179  10.316 -0.0739 -1.0688  0.7239
   60CHL1   H2B 6895   5.497   2.262  10.318 -0.4112 -1.7581  0.4848
   60CHL1   C20 6896   5.316   1.988   9.375 -0.4805  0.2172  0.9600
   60CHL1   H20 6897   5.232   2.052   9.339  0.9178  1.4707 -0.1867
   60CHL1   C21 6898   5.251   1.862   9.446  0.2354 -1.1644  0.2948
   60CHL1  H21A 6899   5.173   1.882   9.522  0.4109  0.6703  0.0314
   60CHL1  H21B 6900   5.336   1.805   9.488 -1.6154 -4.6579 -0.3118
   60CHL1  H21C 6901   5.209   1.790   9.372  1.0964 -0.2469 -1.1453
   60CHL1   C22 6902   5.386   1.943   9.247  0.2575 -0.6259 -0.2388
   60CHL1  H22A 6903   5.421   2.041   9.208 -0.7477 -0.0875  0.1814
   60CHL1  H22B 6904   5.476   1.879   9.262 -0.2812 -1.5291 -0.8241
   60CHL1   C23 6905   5.304   1.891   9.129 -0.5079  0.7797  0.0175
   60CHL1  H23A 6906   5.261   1.792   9.156  0.1447  0.0578 -1.4932
   60CHL1  H23B 6907   5.218   1.959   9.114  0.4899  1.6270 -2.3743
   60CHL1   C24 6908   5.393   1.879   8.999  0.4938  0.8617 -0.3658
   60CHL1  H24A 6909   5.409   1.974   8.944 -1.7817  2.5244  1.6510
   60CHL1  H24B 6910   5.495   1.846   9.029 -1.1216 -3.2276  1.3718
   60CHL1   C25 6911   5.343   1.776   8.901  0.0013 -0.3771  0.4446
   60CHL1   H25 6912   5.330   1.675   8.945 -1.6021 -0.2580  0.3074
   60CHL1   C26 6913   5.210   1.827   8.836  0.1757 -0.0637  0.7736
   60CHL1  H26A 6914   5.131   1.830   8.914  0.3340  1.3538  0.8917
   60CHL1  H26B 6915   5.234   1.927   8.794  1.1929 -0.9506 -0.8471
   60CHL1  H26C 6916   5.190   1.758   8.751  1.6344 -0.8714  1.0648
   60CHL1   C27 6917   5.448   1.770   8.785  0.4474 -0.3265 -0.6930
   60CHL1  H27A 6918   5.401   1.711   8.704  1.1320 -0.2097 -1.1782
   60CHL1  H27B 6919   5.468   1.874   8.752 -0.9557  0.1571 -0.1216
   60CHL1  H27C 6920   5.535   1.711   8.822  0.0028 -0.0102  0.9426
   61CHL1    C3 6921   2.562   2.660  10.417  1.2880  0.1915  0.2038
   61CHL1    H3 6922   2.480   2.588  10.398  1.5047 -0.4601  1.5952
   61CHL1    O3 6923   2.581   2.674  10.558 -0.0710  0.4522 -0.0659
   61CHL1   H3' 6924   2.577   2.768  10.572  0.7600  0.2366  1.9967
   61CHL1    C4 6925   2.692   2.598  10.366  0.2258  0.5066 -0.4067
   61CHL1   H4A 6926   2.784   2.651  10.396  0.1840 -0.1548  0.9694
   61CHL1   H4B 6927   2.703   2.503  10.423  0.5607  1.8842  1.9475
   61CHL1    C5 6928   2.696   2.588  10.213 -0.4875  0.7264  0.3431
   61CHL1    C6 6929   2.719   2.475  10.151  0.3390  0.0656  1.0985
   61CHL1    H6 6930   2.741   2.390  10.218  2.2021 -0.0478  0.3842
   61CHL1    C7 6931   2.729   2.458   9.999  0.8852  0.1231 -0.5824
   61CHL1   H7A 6932   2.822   2.405   9.967 -0.7013 -2.4033 -1.3137
   61CHL1   H7B 6933   2.638   2.403   9.968  0.6538  0.6499 -0.8359
   61CHL1    C8 6934   2.745   2.595   9.934  0.0609  0.1475 -0.4186
   61CHL1    H8 6935   2.844   2.636   9.964  0.1834  2.9506 -3.9548
   61CHL1   C14 6936   2.739   2.581   9.788 -0.2518  0.1321  0.5279
   61CHL1   H14 6937   2.636   2.544   9.766 -0.8871  2.3611 -0.6988
   61CHL1   C15 6938   2.834   2.483   9.716  0.3261  0.1105  0.7852
   61CHL1  H15A 6939   2.941   2.497   9.745  0.2918 -0.1409  1.0252
   61CHL1  H15B 6940   2.800   2.378   9.726 -1.5554  0.7237  1.1997
   61CHL1   C16 6941   2.842   2.531   9.570 -0.0288  0.4157 -0.3145
   61CHL1  H16A 6942   2.940   2.573   9.539  0.8084 -1.5642 -0.4961
   61CHL1  H16B 6943   2.806   2.456   9.496 -3.6171  2.7320 -1.2145
   61CHL1   C17 6944   2.750   2.659   9.565 -1.1346 -0.1343  0.4193
   61CHL1   H17 6945   2.649   2.618   9.543 -0.0936 -2.1749 -0.9097
   61CHL1   C13 6946   2.746   2.717   9.707  0.3891 -0.2902 -0.5334
   61CHL1   C18 6947   2.890   2.791   9.729  0.0219  0.5701 -0.9192
   61CHL1  H18A 6948   2.902   2.813   9.837  0.9395  1.2845 -1.1587
   61CHL1  H18B 6949   2.975   2.722   9.708 -1.2818 -1.1693 -0.7885
   61CHL1  H18C 6950   2.901   2.885   9.672  0.1897  0.8503 -0.4274
   61CHL1   C12 6951   2.624   2.806   9.748 -0.0430 -0.0574  0.3793
   61CHL1  H12A 6952   2.633   2.905   9.699 -2.0607  0.7890  1.5777
   61CHL1  H12B 6953   2.530   2.768   9.703  0.5915  0.4845 -1.4894
   61CHL1   C11 6954   2.621   2.823   9.902 -0.1581  0.9489 -0.0193
   61CHL1  H11A 6955   2.705   2.894   9.914 -1.7260  3.0330 -0.9109
   61CHL1  H11B 6956   2.542   2.893   9.936  1.1672  2.3794  0.2551
   61CHL1    C9 6957   2.637   2.687   9.985 -0.3854  0.0380 -0.2579
   61CHL1    H9 6958   2.545   2.624   9.982  1.4754 -2.9251  0.3281
   61CHL1   C10 6959   2.654   2.723  10.142  0.2945  0.1656  0.0385
   61CHL1   C19 6960   2.765   2.834  10.164  0.5275  0.3463  0.1499
   61CHL1  H19A 6961   2.727   2.934  10.133  1.3649  0.6268 -0.0015
   61CHL1  H19B 6962   2.802   2.840  10.269  1.4198 -1.2995 -0.0341
   61CHL1  H19C 6963   2.850   2.822  10.094 -0.2147  1.2984 -0.9399
   61CHL1    C1 6964   2.525   2.784  10.201 -0.2981  0.7113  0.2342
   61CHL1   H1A 6965   2.495   2.882  10.156 -2.0850 -0.3785 -1.0888
   61CHL1   H1B 6966   2.441   2.721  10.164 -1.1815  0.6815  2.1766
   61CHL1    C2 6967   2.531   2.793  10.351  0.1009  0.4557 -0.6523
   61CHL1   H2A 6968   2.429   2.816  10.390 -0.2049 -0.6936 -0.7376
   61CHL1   H2B 6969   2.597   2.877  10.382 -0.9254  0.9418  0.3061
   61CHL1   C20 6970   2.783   2.760   9.456  0.1101 -0.7296  0.9978
   61CHL1   H20 6971   2.878   2.817   9.467 -0.6400  0.7731  0.0412
   61CHL1   C21 6972   2.659   2.855   9.427  0.5606 -0.5042 -0.1738
   61CHL1  H21A 6973   2.565   2.796   9.422  0.4839 -0.3410 -0.6805
   61CHL1  H21B 6974   2.662   2.907   9.329  1.9120 -1.9037 -0.9315
   61CHL1  H21C 6975   2.651   2.937   9.501  2.7609  0.3665 -0.8109
   61CHL1   C22 6976   2.800   2.679   9.323  0.5775  0.0374 -0.6883
   61CHL1  H22A 6977   2.877   2.602   9.341  0.7240  0.2660 -0.3118
   61CHL1  H22B 6978   2.702   2.632   9.300 -0.7559  1.9268  0.7677
   61CHL1   C23 6979   2.864   2.760   9.210  0.0159 -0.5376 -0.2241
   61CHL1  H23A 6980   2.784   2.836   9.193 -0.0410 -0.7268 -0.8380
   61CHL1  H23B 6981   2.954   2.805   9.256 -1.5771 -0.1007  2.7122
   61CHL1   C24 6982   2.890   2.682   9.087 -0.0759  0.2038  0.0084
   61CHL1  H24A 6983   2.968   2.606   9.107  0.1162 -0.6646 -3.4168
   61CHL1  H24B 6984   2.801   2.625   9.054  1.4121 -1.5422 -1.1715
   61CHL1   C25 6985   2.939   2.751   8.960 -0.5721 -0.0188 -0.9136
   61CHL1   H25 6986   3.042   2.785   8.984 -0.8396  0.4120 -0.3501
   61CHL1   C26 6987   2.942   2.653   8.847 -0.3122  0.1059  0.7336
   61CHL1  H26A 6988   2.974   2.700   8.752  0.0478 -1.1284  0.2294
   61CHL1  H26B 6989   3.016   2.574   8.870  2.0812  1.5952 -1.2818
   61CHL1  H26C 6990   2.842   2.606   8.839 -0.4202  0.4132  0.2075
   61CHL1   C27 6991   2.849   2.875   8.922  0.0925 -0.4344  0.9316
   61CHL1  H27A 6992   2.740   2.852   8.919  0.3114 -1.5771  1.2344
   61CHL1  H27B 6993   2.866   2.944   9.007 -4.3401  0.1757  1.5481
   61CHL1  H27C 6994   2.879   2.923   8.826 -1.0690  1.2985  1.3991
   62CHL1    C3 6995   3.818   4.970  10.165  0.9369 -0.5252  0.2683
   62CHL1    H3 6996   3.895   4.898  10.131 -0.0512 -2.0716  1.1470
   62CHL1    O3 6997   3.819   4.988  10.307 -0.2633  0.3372 -0.5319
   62CHL1   H3' 6998   3.779   5.071  10.334 -0.8060  0.3881 -1.4757
   62CHL1    C4 6999   3.840   5.102  10.088  0.6326 -0.2983 -0.2963
   62CHL1   H4A 7000   3.755   5.170  10.114  0.1531 -0.3622 -1.6458
   62CHL1   H4B 7001   3.931   5.148  10.133 -1.4483  1.2273  2.7565
   62CHL1    C5 7002   3.828   5.085   9.939  0.5628 -0.1119  0.0614
   62CHL1    C6 7003   3.936   5.112   9.868  0.2566 -0.4485 -0.0212
   62CHL1    H6 7004   4.015   5.159   9.927 -1.2078  1.3029  0.6371
   62CHL1    C7 7005   3.944   5.103   9.717  0.2529 -0.4963 -0.5276
   62CHL1   H7A 7006   3.986   5.195   9.669  1.1202 -0.3003  0.5828
   62CHL1   H7B 7007   4.021   5.027   9.696  1.1947  0.6833 -1.5307
   62CHL1    C8 7008   3.805   5.072   9.656 -0.2988  0.0583  0.4314
   62CHL1    H8 7009   3.742   5.163   9.648  1.3054  1.4571  2.4618
   62CHL1   C14 7010   3.825   5.007   9.516  0.2616 -0.0730  0.6275
   62CHL1   H14 7011   3.886   4.915   9.532  0.1469 -0.0234  1.4044
   62CHL1   C15 7012   3.903   5.088   9.417 -0.7782  0.9314  0.1959
   62CHL1  H15A 7013   3.876   5.195   9.432  1.3492  1.6989 -0.9060
   62CHL1  H15B 7014   4.011   5.062   9.426 -0.8489  0.8684  0.9539
   62CHL1   C16 7015   3.852   5.048   9.275 -0.2979 -0.4649 -0.3228
   62CHL1  H16A 7016   3.814   5.121   9.200 -1.4508 -0.5584  0.1412
   62CHL1  H16B 7017   3.946   5.011   9.230  0.4605  2.5730 -1.4683
   62CHL1   C17 7018   3.744   4.933   9.294  0.0149  0.3601  0.2306
   62CHL1   H17 7019   3.805   4.841   9.298 -0.2271  0.1629 -0.5143
   62CHL1   C13 7020   3.699   4.965   9.434 -0.0944  0.2250  0.5086
   62CHL1   C18 7021   3.590   5.069   9.429 -0.3186 -0.2982 -0.1675
   62CHL1  H18A 7022   3.600   5.149   9.352 -0.8664  1.4759  1.5274
   62CHL1  H18B 7023   3.495   5.021   9.399  0.3701 -3.4826  2.2828
   62CHL1  H18C 7024   3.565   5.114   9.527 -1.8966  0.1698 -0.7424
   62CHL1   C12 7025   3.655   4.840   9.513  0.0419  0.4624  0.4500
   62CHL1  H12A 7026   3.557   4.797   9.484  0.5393 -0.2923 -0.1573
   62CHL1  H12B 7027   3.736   4.764   9.514 -1.7998 -1.6492 -0.9529
   62CHL1   C11 7028   3.634   4.876   9.663  0.2746  0.0671  0.2598
   62CHL1  H11A 7029   3.540   4.936   9.668 -0.3197 -0.7456 -0.8551
   62CHL1  H11B 7030   3.607   4.776   9.702 -0.3112 -0.0227 -0.3667
   62CHL1    C9 7031   3.746   4.952   9.737 -0.3263  0.0380  0.2496
   62CHL1    H9 7032   3.827   4.879   9.755  0.4707  0.6845 -0.6096
   62CHL1   C10 7033   3.708   5.006   9.875 -0.8148 -0.6027 -0.1949
   62CHL1   C19 7034   3.589   5.102   9.878 -0.1690  0.3613 -0.0078
   62CHL1  H19A 7035   3.569   5.145   9.979  1.2165  2.0920 -0.4150
   62CHL1  H19B 7036   3.617   5.185   9.809  3.4816 -0.2334  0.5444
   62CHL1  H19C 7037   3.500   5.050   9.838  0.7690 -1.1864 -0.1519
   62CHL1    C1 7038   3.684   4.884   9.971  0.1523  0.5515 -0.0615
   62CHL1   H1A 7039   3.589   4.835   9.942 -0.2662  1.5337 -0.4287
   62CHL1   H1B 7040   3.771   4.819   9.947 -0.5601 -0.4502  0.0309
   62CHL1    C2 7041   3.691   4.915  10.123 -0.1258 -0.8903  0.1990
   62CHL1   H2A 7042   3.667   4.827  10.188  0.6622 -0.7217  0.7443
   62CHL1   H2B 7043   3.607   4.986  10.137  0.6996  0.1756 -0.1227
   62CHL1   C20 7044   3.646   4.924   9.177 -0.4991 -0.6711 -0.3000
   62CHL1   H20 7045   3.593   5.020   9.160 -1.7707 -1.7741 -3.2707
   62CHL1   C21 7046   3.542   4.818   9.203 -0.2197  0.1368 -0.1873
   62CHL1  H21A 7047   3.467   4.852   9.278  0.1713  1.2110 -0.2689
   62CHL1  H21B 7048   3.596   4.735   9.252  0.7298  0.5342 -0.5411
   62CHL1  H21C 7049   3.493   4.787   9.108  1.0787 -0.4824 -0.6695
   62CHL1   C22 7050   3.724   4.887   9.047 -0.6530  0.1223  0.6376
   62CHL1  H22A 7051   3.822   4.937   9.037 -0.3844 -0.8666 -3.8709
   62CHL1  H22B 7052   3.734   4.776   9.046 -1.2521  0.0635  0.3679
   62CHL1   C23 7053   3.642   4.929   8.922  0.4519 -0.0583 -0.1474
   62CHL1  H23A 7054   3.552   4.863   8.923  0.2392  0.2027  2.2070
   62CHL1  H23B 7055   3.604   5.033   8.921 -3.1902 -1.2429 -0.4403
   62CHL1   C24 7056   3.712   4.905   8.787 -0.1239  0.1809  0.4269
   62CHL1  H24A 7057   3.799   4.837   8.798  0.1744  0.1125 -2.0185
   62CHL1  H24B 7058   3.633   4.860   8.723 -0.1395 -0.3333  0.7955
   62CHL1   C25 7059   3.766   5.032   8.714 -0.3922  0.0014 -0.3789
   62CHL1   H25 7060   3.683   5.107   8.711  0.1954  0.6166 -2.1857
   62CHL1   C26 7061   3.881   5.097   8.800  0.1179  0.4223  0.4284
   62CHL1  H26A 7062   3.838   5.146   8.890 -1.3074 -1.4503  0.8312
   62CHL1  H26B 7063   3.960   5.024   8.827  2.1186  1.9149 -1.1033
   62CHL1  H26C 7064   3.935   5.177   8.744  0.1696  1.3735  1.7685
   62CHL1   C27 7065   3.822   5.000   8.581  0.0918 -0.1685 -0.2246
   62CHL1  H27A 7066   3.864   5.090   8.532  3.3054 -0.3336  1.9482
   62CHL1  H27B 7067   3.910   4.934   8.600  0.6219 -0.0776 -2.1374
   62CHL1  H27C 7068   3.740   4.950   8.525 -0.0232 -1.4248  1.0125
   63CHL1    C3 7069   5.073   1.129  10.433 -0.3114 -0.1028 -0.0440
   63CHL1    H3 7070   4.964   1.116  10.449 -0.6909  1.8618 -0.7205
   63CHL1    O3 7071   5.142   1.111  10.555 -0.6039 -0.4110  0.2010
   63CHL1   H3' 7072   5.232   1.126  10.527  0.0460 -1.9588  1.2749
   63CHL1    C4 7073   5.124   1.016  10.333  0.1564 -0.4916 -0.0030
   63CHL1   H4A 7074   5.234   1.010  10.348 -0.1810 -0.1166  3.3990
   63CHL1   H4B 7075   5.087   0.920  10.376 -0.9915 -0.2662 -0.4419
   63CHL1    C5 7076   5.073   1.033  10.193  0.9233 -0.8197 -0.7555
   63CHL1    C6 7077   5.001   0.932  10.143 -0.2640  0.0772 -0.4278
   63CHL1    H6 7078   4.967   0.846  10.203  1.0967 -1.3358 -1.6035
   63CHL1    C7 7079   4.946   0.933  10.003  0.6712 -0.2127 -0.7019
   63CHL1   H7A 7080   4.979   0.843   9.946 -0.4773 -1.6069  0.7636
   63CHL1   H7B 7081   4.835   0.924  10.007  0.7156 -1.6461 -1.9419
   63CHL1    C8 7082   4.988   1.056   9.919 -0.4352 -0.2324 -0.2431
   63CHL1    H8 7083   5.083   1.022   9.873 -1.0408 -1.0131 -0.9740
   63CHL1   C14 7084   4.889   1.089   9.809 -0.1750 -0.1410  0.1946
   63CHL1   H14 7085   4.804   1.144   9.856 -0.7350 -0.8734  0.0570
   63CHL1   C15 7086   4.832   0.971   9.723 -0.8026  0.5418 -0.2984
   63CHL1  H15A 7087   4.914   0.902   9.693  1.4764  2.1587  1.7464
   63CHL1  H15B 7088   4.755   0.916   9.781 -1.2852  0.8845 -0.6133
   63CHL1   C16 7089   4.768   1.040   9.609 -0.1107  0.6480  0.8561
   63CHL1  H16A 7090   4.796   0.996   9.511  0.7639 -0.2616  1.4980
   63CHL1  H16B 7091   4.658   1.039   9.625 -0.6507  0.2840 -2.2401
   63CHL1   C17 7092   4.814   1.182   9.602 -0.3161 -0.0584  0.3384
   63CHL1   H17 7093   4.737   1.247   9.650  1.0374  2.0333 -0.1750
   63CHL1   C13 7094   4.932   1.193   9.703 -0.0261  0.4788 -0.6649
   63CHL1   C18 7095   5.066   1.150   9.626  0.4995  0.2198 -0.1462
   63CHL1  H18A 7096   5.079   1.215   9.536 -2.3451 -1.8966 -2.2876
   63CHL1  H18B 7097   5.151   1.161   9.697 -0.8138 -2.3175  1.9942
   63CHL1  H18C 7098   5.050   1.043   9.603  1.7220  0.1064 -0.5226
   63CHL1   C12 7099   4.948   1.322   9.775 -0.7115  0.1227  0.1738
   63CHL1  H12A 7100   4.990   1.405   9.715  1.0038 -0.9874 -0.2252
   63CHL1  H12B 7101   4.847   1.356   9.805 -0.4763  1.0536 -0.0584
   63CHL1   C11 7102   5.038   1.302   9.897 -0.1617 -0.0810 -0.8411
   63CHL1  H11A 7103   5.140   1.287   9.857  0.9376  1.0069  1.4112
   63CHL1  H11B 7104   5.052   1.392   9.960  0.6063 -1.1383  0.5576
   63CHL1    C9 7105   5.003   1.183   9.992  0.2851 -0.6797  0.1426
   63CHL1    H9 7106   4.905   1.216  10.033 -0.4422 -0.3990 -1.6959
   63CHL1   C10 7107   5.089   1.172  10.123  0.1212 -0.3695  0.0755
   63CHL1   C19 7108   5.235   1.202  10.077 -0.2254 -0.1594 -0.6622
   63CHL1  H19A 7109   5.270   1.130   9.999  0.5469  1.5535 -1.9585
   63CHL1  H19B 7110   5.240   1.309  10.049 -0.3695  0.2312  0.7357
   63CHL1  H19C 7111   5.296   1.199  10.169 -2.1072  3.0367  0.8551
   63CHL1    C1 7112   5.030   1.273  10.227  0.0394 -0.6401  0.7022
   63CHL1   H1A 7113   5.056   1.368  10.176  0.9691 -0.8131  0.8216
   63CHL1   H1B 7114   4.920   1.259  10.235 -0.5324  2.1610 -1.0164
   63CHL1    C2 7115   5.095   1.272  10.370  0.0451 -0.4765  0.4923
   63CHL1   H2A 7116   5.045   1.358  10.419 -0.2509  0.4790 -1.4068
   63CHL1   H2B 7117   5.206   1.287  10.371  0.0911 -0.7438  1.5637
   63CHL1   C20 7118   4.815   1.241   9.459 -0.7294  0.0046  0.1978
   63CHL1   H20 7119   4.898   1.192   9.403 -1.7848 -1.2510 -0.3224
   63CHL1   C21 7120   4.836   1.396   9.464  0.4972 -0.2180 -0.1583
   63CHL1  H21A 7121   4.762   1.445   9.531 -0.7625 -2.0338 -0.1310
   63CHL1  H21B 7122   4.829   1.432   9.359  0.3935  1.7807  0.4941
   63CHL1  H21C 7123   4.935   1.429   9.502  0.2872  2.4811 -1.7632
   63CHL1   C22 7124   4.690   1.197   9.380 -0.6097 -0.0691 -0.4544
   63CHL1  H22A 7125   4.690   1.087   9.366  2.7035 -0.5526  2.1049
   63CHL1  H22B 7126   4.606   1.222   9.449  2.1844 -1.5035  3.8270
   63CHL1   C23 7127   4.657   1.265   9.243 -0.1526  0.0962  0.0778
   63CHL1  H23A 7128   4.629   1.372   9.253 -0.2215  0.5146 -3.3049
   63CHL1  H23B 7129   4.749   1.266   9.182  0.6434  0.0016  1.2439
   63CHL1   C24 7130   4.544   1.191   9.167  0.9099  0.3507  0.7270
   63CHL1  H24A 7131   4.585   1.110   9.103 -1.1621  0.8351 -1.3546
   63CHL1  H24B 7132   4.462   1.156   9.233 -1.6395  3.4747 -0.4900
   63CHL1   C25 7133   4.470   1.287   9.064 -0.0128  0.8732 -0.1123
   63CHL1   H25 7134   4.416   1.361   9.126  0.4511  0.5513  0.6963
   63CHL1   C26 7135   4.563   1.349   8.961  0.3651 -0.4004  0.1363
   63CHL1  H26A 7136   4.508   1.410   8.887  3.3768 -1.0758 -2.8825
   63CHL1  H26B 7137   4.633   1.411   9.022  0.1197 -0.2215  0.2405
   63CHL1  H26C 7138   4.623   1.267   8.918 -1.2957 -1.4150 -0.3259
   63CHL1   C27 7139   4.357   1.209   8.986  0.0336 -0.3309 -0.5680
   63CHL1  H27A 7140   4.301   1.276   8.919  1.9258  3.0895  0.9706
   63CHL1  H27B 7141   4.385   1.120   8.926 -1.4754  1.0481 -3.4549
   63CHL1  H27C 7142   4.281   1.171   9.058  0.4169  1.4959  0.8776
   64CHL1    C3 7143   5.002   0.005   9.917  0.1442 -0.0711 -0.1691
   64CHL1    H3 7144   4.905  -0.033   9.879 -0.5632  2.0614 -0.6495
   64CHL1    O3 7145   5.014  -0.047  10.051  0.2272  0.2995 -0.1826
   64CHL1   H3' 7146   5.039   0.027  10.106  0.1600 -0.7505  1.3178
   64CHL1    C4 7147   5.117  -0.045   9.829 -0.0572 -0.2542 -0.2564
   64CHL1   H4A 7148   5.211  -0.007   9.872  0.0415 -0.2916 -0.4377
   64CHL1   H4B 7149   5.120  -0.156   9.833  1.2709 -0.1903  0.9932
   64CHL1    C5 7150   5.093   0.009   9.679 -0.0540  0.3007  0.0731
   64CHL1    C6 7151   5.066  -0.070   9.576  0.1349 -0.3626 -0.2685
   64CHL1    H6 7152   5.078  -0.178   9.593  2.0341 -0.3093 -1.0097
   64CHL1    C7 7153   5.036  -0.013   9.441 -0.1947  0.8043  0.4231
   64CHL1   H7A 7154   5.077  -0.084   9.366  0.7197  0.4944  1.1992
   64CHL1   H7B 7155   4.926   0.000   9.427 -0.3718 -1.2585 -0.4242
   64CHL1    C8 7156   5.088   0.128   9.428  0.3309 -0.0791 -0.4723
   64CHL1    H8 7157   5.199   0.121   9.429  0.7464  3.6182 -2.0721
   64CHL1   C14 7158   5.058   0.182   9.290 -0.5895 -0.6129 -0.3339
   64CHL1   H14 7159   4.948   0.181   9.284 -0.5897 -0.0395 -0.4972
   64CHL1   C15 7160   5.086   0.109   9.160 -0.2591  0.2656 -0.3199
   64CHL1  H15A 7161   5.186   0.064   9.179 -0.0428  1.3169  1.1649
   64CHL1  H15B 7162   5.012   0.032   9.130 -1.0099  1.5407 -1.9089
   64CHL1   C16 7163   5.092   0.227   9.052  0.1233  0.1165 -0.0076
   64CHL1  H16A 7164   5.194   0.230   9.009  1.5365  1.3799  3.1370
   64CHL1  H16B 7165   5.012   0.221   8.974  0.5896  0.4380 -0.5171
   64CHL1   C17 7166   5.053   0.352   9.133  0.7574  0.5777 -0.0799
   64CHL1   H17 7167   4.942   0.342   9.131  0.6583  1.0815  1.4590
   64CHL1   C13 7168   5.094   0.329   9.279  0.3339 -0.4377 -0.1053
   64CHL1   C18 7169   5.242   0.341   9.287 -0.5286  0.3155  0.3540
   64CHL1  H18A 7170   5.300   0.275   9.218 -1.1197 -0.2102  0.3525
   64CHL1  H18B 7171   5.277   0.443   9.259  1.9650 -0.9244 -1.4572
   64CHL1  H18C 7172   5.281   0.316   9.388 -1.4163 -0.3579  0.5385
   64CHL1   C12 7173   5.016   0.416   9.382  0.6470 -0.2143  0.3148
   64CHL1  H12A 7174   5.044   0.522   9.366  1.1838 -0.2696  0.8149
   64CHL1  H12B 7175   4.910   0.403   9.352  1.0291 -0.6195 -0.8906
   64CHL1   C11 7176   5.033   0.377   9.525 -0.1061  0.1892  0.3568
   64CHL1  H11A 7177   5.136   0.408   9.555 -0.3581  0.0243  1.4164
   64CHL1  H11B 7178   4.972   0.428   9.602  0.5568  1.3722  0.1223
   64CHL1    C9 7179   5.027   0.217   9.540  0.0493  0.3696  0.2576
   64CHL1    H9 7180   4.919   0.194   9.531  0.1711 -1.3211  2.1649
   64CHL1   C10 7181   5.081   0.165   9.683  0.6379  0.1357  0.3400
   64CHL1   C19 7182   5.222   0.220   9.700  0.0541  0.1582  0.2796
   64CHL1  H19A 7183   5.271   0.166   9.783  1.6712 -0.7076 -1.1616
   64CHL1  H19B 7184   5.292   0.197   9.616  2.1911  2.9301  1.1566
   64CHL1  H19C 7185   5.227   0.327   9.728 -0.3558  0.0155  0.9083
   64CHL1    C1 7186   4.982   0.217   9.786 -0.5729  0.3720  0.7644
   64CHL1   H1A 7187   4.976   0.328   9.789 -1.8281  0.6475 -4.0962
   64CHL1   H1B 7188   4.882   0.181   9.753 -1.0523  2.3642 -0.0456
   64CHL1    C2 7189   5.011   0.161   9.922 -0.6891  0.6033 -0.3021
   64CHL1   H2A 7190   4.937   0.216   9.985  0.7123  0.7394  1.2820
   64CHL1   H2B 7191   5.109   0.191   9.965 -1.0084  1.0613  0.1227
   64CHL1   C20 7192   5.094   0.482   9.066  0.2205 -0.4891  0.0502
   64CHL1   H20 7193   5.145   0.550   9.137 -0.7087  0.7718 -0.4698
   64CHL1   C21 7194   4.967   0.560   9.024  0.3806 -1.3682  0.2891
   64CHL1  H21A 7195   4.912   0.601   9.111  0.4529 -2.6341  0.9644
   64CHL1  H21B 7196   4.898   0.503   8.958 -0.8651  0.1308  0.2461
   64CHL1  H21C 7197   5.000   0.641   8.955 -0.4775 -1.3678 -0.1317
   64CHL1   C22 7198   5.213   0.485   8.964 -0.4590 -0.5789  0.0184
   64CHL1  H22A 7199   5.305   0.442   9.008  0.4668  0.5673 -0.7541
   64CHL1  H22B 7200   5.182   0.437   8.869 -0.8676 -1.5421  0.6123
   64CHL1   C23 7201   5.263   0.624   8.928 -0.7994 -0.3595  0.6658
   64CHL1  H23A 7202   5.195   0.679   8.859  0.5238  0.6085  0.0823
   64CHL1  H23B 7203   5.270   0.679   9.024 -2.3039  3.4588 -1.1857
   64CHL1   C24 7204   5.396   0.609   8.859  0.0592  0.4417 -0.5538
   64CHL1  H24A 7205   5.459   0.541   8.921 -1.0152  0.9032  1.0967
   64CHL1  H24B 7206   5.378   0.555   8.763  1.4964 -0.2694 -0.4648
   64CHL1   C25 7207   5.476   0.736   8.849 -0.6931 -0.5122  0.7986
   64CHL1   H25 7208   5.494   0.772   8.952 -0.7354 -0.7398  0.8863
   64CHL1   C26 7209   5.603   0.711   8.763 -0.3570 -0.1237 -0.5244
   64CHL1  H26A 7210   5.658   0.623   8.802 -0.6767  0.0228  0.2838
   64CHL1  H26B 7211   5.578   0.686   8.658 -2.2005 -1.8912  0.2684
   64CHL1  H26C 7212   5.657   0.808   8.756 -1.3014  0.5842  1.1418
   64CHL1   C27 7213   5.394   0.840   8.768 -0.1993 -0.1000 -0.8615
   64CHL1  H27A 7214   5.308   0.882   8.825 -0.5025  0.7558 -1.8915
   64CHL1  H27B 7215   5.459   0.923   8.733  0.6526 -0.2225  0.3822
   64CHL1  H27C 7216   5.344   0.781   8.688 -1.5293  0.7235 -0.6763
   65CHL1    C3 7217   4.839   3.296  10.235  0.5649  0.4177  0.7022
   65CHL1    H3 7218   4.829   3.186  10.236  4.2339 -0.1329 -2.2941
   65CHL1    O3 7219   4.826   3.334  10.371  0.5690 -0.7546 -0.0442
   65CHL1   H3' 7220   4.733   3.325  10.393  1.0336 -0.1618  2.4351
   65CHL1    C4 7221   4.984   3.312  10.189 -0.7925 -0.3555  0.1857
   65CHL1   H4A 7222   5.011   3.418  10.207 -0.4285 -0.8040  2.6027
   65CHL1   H4B 7223   5.044   3.250  10.259  1.2840  2.3428  0.9890
   65CHL1    C5 7224   4.991   3.274  10.037  0.3253 -0.1318  0.1325
   65CHL1    C6 7225   5.064   3.178   9.985  0.0379 -0.1539 -0.0704
   65CHL1    H6 7226   5.133   3.130  10.057  2.2733  2.2529 -0.4342
   65CHL1    C7 7227   5.064   3.141   9.837 -0.4229 -0.1970  0.0743
   65CHL1   H7A 7228   5.163   3.112   9.794 -1.1397 -0.3892 -1.5400
   65CHL1   H7B 7229   4.993   3.057   9.821  1.4393 -1.6607 -0.9713
   65CHL1    C8 7230   5.014   3.254   9.737  0.1383  0.0005 -0.3239
   65CHL1    H8 7231   5.094   3.331   9.729  0.1923 -0.1798 -1.9017
   65CHL1   C14 7232   4.994   3.198   9.600  0.0671  0.4998  0.4929
   65CHL1   H14 7233   4.902   3.134   9.600 -0.8311  1.7467 -0.5683
   65CHL1   C15 7234   5.100   3.117   9.532 -0.2503 -0.1842 -0.0493
   65CHL1  H15A 7235   5.194   3.173   9.550 -1.0248  1.5777 -1.2129
   65CHL1  H15B 7236   5.110   3.014   9.573 -1.5250 -0.9865 -1.6149
   65CHL1   C16 7237   5.056   3.113   9.383 -0.0990 -0.5853  0.1328
   65CHL1  H16A 7238   5.146   3.131   9.321 -1.0804  2.5136 -0.5838
   65CHL1  H16B 7239   5.024   3.010   9.356  0.5602 -0.4310 -1.3134
   65CHL1   C17 7240   4.942   3.221   9.366 -0.1657  0.5323 -0.5322
   65CHL1   H17 7241   4.848   3.162   9.372 -0.1544  0.4588 -1.0193
   65CHL1   C13 7242   4.956   3.309   9.497 -0.0034  0.1710 -0.3638
   65CHL1   C18 7243   5.059   3.413   9.471  0.1178  0.2864 -0.0987
   65CHL1  H18A 7244   5.015   3.503   9.423 -1.4280 -0.4632 -0.1432
   65CHL1  H18B 7245   5.094   3.447   9.571  2.6166  1.0759 -1.1384
   65CHL1  H18C 7246   5.134   3.376   9.397 -0.6488 -0.4748 -0.5104
   65CHL1   C12 7247   4.830   3.380   9.549  0.8794  0.4814 -0.2741
   65CHL1  H12A 7248   4.805   3.459   9.476  1.7450  2.9022  1.8994
   65CHL1  H12B 7249   4.749   3.304   9.550 -2.0255  3.3657  0.5427
   65CHL1   C11 7250   4.838   3.431   9.694 -0.8151  0.1527 -0.1869
   65CHL1  H11A 7251   4.917   3.509   9.691 -1.2721  0.7761  2.2347
   65CHL1  H11B 7252   4.742   3.477   9.725 -0.0609  0.6622  1.4962
   65CHL1    C9 7253   4.893   3.325   9.789  0.4826  0.3019 -0.5508
   65CHL1    H9 7254   4.812   3.248   9.783  1.0987 -0.5662  1.3061
   65CHL1   C10 7255   4.901   3.357   9.944  0.3072  0.4323 -0.0591
   65CHL1   C19 7256   4.946   3.509   9.952 -0.3986 -0.1090 -0.3052
   65CHL1  H19A 7257   5.042   3.517   9.897  0.6510 -2.2770  1.0782
   65CHL1  H19B 7258   4.871   3.570   9.898 -0.2379  0.6735  0.3411
   65CHL1  H19C 7259   4.965   3.541  10.057 -0.8283 -0.7818 -0.0165
   65CHL1    C1 7260   4.760   3.348   9.994 -0.2817 -0.4653 -0.3886
   65CHL1   H1A 7261   4.687   3.407   9.935 -1.0372 -1.3194 -0.3398
   65CHL1   H1B 7262   4.731   3.241   9.986  0.0212 -0.4442 -2.0080
   65CHL1    C2 7263   4.741   3.377  10.144  0.6585  0.1498 -0.2190
   65CHL1   H2A 7264   4.634   3.368  10.172  0.6306 -2.3978 -0.8604
   65CHL1   H2B 7265   4.757   3.486  10.153 -0.7912  0.3501  0.1985
   65CHL1   C20 7266   4.948   3.288   9.228 -0.1032  0.4800  0.1731
   65CHL1   H20 7267   5.042   3.344   9.208 -0.1596  0.4388 -0.2121
   65CHL1   C21 7268   4.840   3.392   9.219  0.1931  0.3045 -0.2608
   65CHL1  H21A 7269   4.827   3.426   9.115  0.1366  0.1709 -0.2960
   65CHL1  H21B 7270   4.873   3.481   9.277  1.5446  0.4150 -1.1511
   65CHL1  H21C 7271   4.739   3.358   9.251  0.9168  0.0577  1.9559
   65CHL1   C22 7272   4.937   3.188   9.111 -0.0446 -0.3509  0.2276
   65CHL1  H22A 7273   5.005   3.101   9.124  0.8816  0.6209  2.3734
   65CHL1  H22B 7274   4.832   3.150   9.111  0.3993 -1.6049  0.4097
   65CHL1   C23 7275   4.975   3.252   8.970  0.1691 -0.3209 -0.6398
   65CHL1  H23A 7276   4.960   3.362   8.973  0.1117 -0.3436  1.8654
   65CHL1  H23B 7277   5.083   3.236   8.947  0.2678  0.1363 -0.5032
   65CHL1   C24 7278   4.896   3.193   8.850 -0.8161 -0.2385 -0.4903
   65CHL1  H24A 7279   4.912   3.084   8.842  0.1157 -0.3255  1.8286
   65CHL1  H24B 7280   4.789   3.218   8.859 -0.8974 -1.2467  1.9792
   65CHL1   C25 7281   4.961   3.248   8.717 -0.0736  0.5224  0.9901
   65CHL1   H25 7282   5.068   3.223   8.728  0.1225  1.9808  2.6662
   65CHL1   C26 7283   4.907   3.182   8.583  0.0765  0.3389 -0.2537
   65CHL1  H26A 7284   4.904   3.072   8.592  2.7489  0.1759 -0.3337
   65CHL1  H26B 7285   4.811   3.227   8.551  0.6275  1.3449 -0.5753
   65CHL1  H26C 7286   4.986   3.207   8.508 -1.3498 -1.1222 -2.3414
   65CHL1   C27 7287   4.952   3.400   8.694  0.2292  0.1667  0.6747
   65CHL1  H27A 7288   5.003   3.460   8.773 -0.7276 -1.8028  2.8799
   65CHL1  H27B 7289   4.989   3.414   8.590 -1.1584  0.1619  0.1527
   65CHL1  H27C 7290   4.845   3.429   8.690 -0.7259 -3.1034 -1.3194
   66CHL1    C3 7291   4.234   0.677  10.445 -1.0288 -0.5513 -0.3460
   66CHL1    H3 7292   4.271   0.761  10.383  1.9937 -0.6076  1.1730
   66CHL1    O3 7293   4.248   0.703  10.584  0.0876 -0.2382  0.0622
   66CHL1   H3' 7294   4.230   0.619  10.628  0.3253 -0.3397 -0.0309
   66CHL1    C4 7295   4.087   0.662  10.418  0.0721  0.3838 -0.3422
   66CHL1   H4A 7296   4.051   0.584  10.488 -1.2952 -0.5903 -2.0169
   66CHL1   H4B 7297   4.034   0.751  10.457 -0.3874  0.2929 -0.7363
   66CHL1    C5 7298   4.055   0.616  10.277 -0.4228  0.5632  0.3438
   66CHL1    C6 7299   3.971   0.695  10.207  0.0290 -0.1694 -0.4101
   66CHL1    H6 7300   3.929   0.778  10.267  0.6194 -1.2798  1.6342
   66CHL1    C7 7301   3.925   0.678  10.065  0.3408  1.3506 -0.3261
   66CHL1   H7A 7302   3.815   0.675  10.050  0.6637  1.4346 -3.1882
   66CHL1   H7B 7303   3.967   0.761  10.004  3.1954  0.8936  0.8526
   66CHL1    C8 7304   3.984   0.537  10.015 -0.6101  0.7440 -0.3408
   66CHL1    H8 7305   3.927   0.451  10.055  0.9781 -0.2110 -0.0359
   66CHL1   C14 7306   3.993   0.551   9.862 -0.0650 -0.2436  0.1348
   66CHL1   H14 7307   4.062   0.636   9.843  0.5291 -0.3867  1.5584
   66CHL1   C15 7308   3.867   0.594   9.791  0.9428  0.0407 -0.0375
   66CHL1  H15A 7309   3.778   0.546   9.837  0.7499  1.0075  0.6325
   66CHL1  H15B 7310   3.855   0.704   9.800  1.2071  0.0965 -0.3431
   66CHL1   C16 7311   3.890   0.554   9.645  0.2777  0.0491  0.3346
   66CHL1  H16A 7312   3.804   0.492   9.612 -1.7571  2.1396  1.4158
   66CHL1  H16B 7313   3.885   0.646   9.583 -1.8694 -0.6865 -0.6635
   66CHL1   C17 7314   4.018   0.482   9.639 -0.9647  0.4682  0.8934
   66CHL1   H17 7315   4.093   0.561   9.614 -1.2629  0.6268  0.4941
   66CHL1   C13 7316   4.053   0.434   9.787  0.1188  1.4061  0.0411
   66CHL1   C18 7317   3.969   0.301   9.808 -0.2311  0.1047  0.2811
   66CHL1  H18A 7318   3.977   0.264   9.912  1.2544  1.4941  0.7028
   66CHL1  H18B 7319   3.865   0.318   9.772 -0.4848  0.2436  1.0670
   66CHL1  H18C 7320   4.014   0.225   9.741 -1.1261 -1.6377  1.6009
   66CHL1   C12 7321   4.199   0.411   9.833 -0.4859 -0.2621 -0.5753
   66CHL1  H12A 7322   4.245   0.319   9.791 -0.1750 -0.1015 -0.5925
   66CHL1  H12B 7323   4.255   0.497   9.792  0.0708 -0.8595 -1.0991
   66CHL1   C11 7324   4.213   0.412   9.987 -0.2981  0.1472 -0.2132
   66CHL1  H11A 7325   4.164   0.316  10.014  0.5703 -0.0319  0.8013
   66CHL1  H11B 7326   4.319   0.399  10.017 -0.0516 -1.9849 -1.7918
   66CHL1    C9 7327   4.133   0.518  10.061 -0.2523 -0.3553  0.3156
   66CHL1    H9 7328   4.179   0.615  10.032 -0.5153  0.1963  1.6791
   66CHL1   C10 7329   4.145   0.503  10.215 -0.2223  0.1570  0.2983
   66CHL1   C19 7330   4.091   0.370  10.268  0.2860  0.2598 -0.4281
   66CHL1  H19A 7331   4.174   0.298  10.256  0.6289  0.4626  0.6314
   66CHL1  H19B 7332   4.078   0.365  10.378  1.1340 -0.3819 -0.3471
   66CHL1  H19C 7333   3.999   0.340  10.214 -0.0811  0.8154 -0.1213
   66CHL1    C1 7334   4.289   0.532  10.252  0.1198 -1.0178 -0.3471
   66CHL1   H1A 7335   4.352   0.447  10.218  2.8225  1.6126 -2.4794
   66CHL1   H1B 7336   4.330   0.614  10.190 -1.4461 -0.9976 -1.4007
   66CHL1    C2 7337   4.309   0.546  10.404 -0.6103 -0.4782 -0.8345
   66CHL1   H2A 7338   4.411   0.568  10.442 -0.2458  0.7878 -2.4558
   66CHL1   H2B 7339   4.258   0.468  10.465  0.7139  0.2712  1.3094
   66CHL1   C20 7340   4.032   0.382   9.525 -0.7338  0.0880  0.8666
   66CHL1   H20 7341   3.972   0.293   9.555 -1.7286  0.2769 -0.4650
   66CHL1   C21 7342   4.185   0.351   9.502  0.5378 -0.1441 -0.5954
   66CHL1  H21A 7343   4.246   0.443   9.496  0.1240  0.1545 -0.2351
   66CHL1  H21B 7344   4.198   0.291   9.409 -1.3692 -0.0004 -0.9859
   66CHL1  H21C 7345   4.236   0.290   9.580  1.1546 -0.7550 -1.4563
   66CHL1   C22 7346   3.973   0.427   9.395  0.1522 -0.3799 -0.2108
   66CHL1  H22A 7347   3.979   0.345   9.320 -1.5173 -0.3848 -0.3855
   66CHL1  H22B 7348   3.865   0.449   9.407 -0.0260 -0.5234 -1.3777
   66CHL1   C23 7349   4.043   0.549   9.329  0.7271 -0.1254 -0.0393
   66CHL1  H23A 7350   4.035   0.640   9.392 -0.6144  1.3296 -2.1970
   66CHL1  H23B 7351   4.152   0.534   9.314  0.9901 -2.3786  2.9533
   66CHL1   C24 7352   3.972   0.606   9.205  0.0055 -0.1308 -0.6534
   66CHL1  H24A 7353   3.871   0.639   9.236  1.4696  2.7589  1.6222
   66CHL1  H24B 7354   4.018   0.702   9.174  1.8896 -1.1515 -1.1980
   66CHL1   C25 7355   3.965   0.513   9.083  0.5192  0.6418 -0.6014
   66CHL1   H25 7356   3.901   0.426   9.108  1.9123  0.2409  1.8756
   66CHL1   C26 7357   3.901   0.595   8.974  0.0740  0.1658 -0.2398
   66CHL1  H26A 7358   3.966   0.683   8.952  1.6459 -0.7325  0.5981
   66CHL1  H26B 7359   3.889   0.526   8.888  0.5409 -1.7844  1.1882
   66CHL1  H26C 7360   3.799   0.625   9.005 -0.0048  0.1127 -0.4485
   66CHL1   C27 7361   4.105   0.455   9.034  0.9043  0.5684 -0.1978
   66CHL1  H27A 7362   4.169   0.546   9.027 -0.2637  1.3648 -1.0326
   66CHL1  H27B 7363   4.137   0.380   9.109 -2.7357 -0.8815  0.0861
   66CHL1  H27C 7364   4.102   0.402   8.936  0.5513  5.3708 -3.1011
   67CHL1    C3 7365   1.799   2.237  10.391 -0.1193  0.6875  0.2898
   67CHL1    H3 7366   1.707   2.298  10.389 -1.0789 -0.7211 -1.4360
   67CHL1    O3 7367   1.874   2.262  10.504 -0.4877 -0.1340 -0.1645
   67CHL1   H3' 7368   1.965   2.236  10.486 -0.3586 -0.8828  1.4068
   67CHL1    C4 7369   1.778   2.085  10.381  0.2198  0.2958 -0.4952
   67CHL1   H4A 7370   1.881   2.045  10.395  0.6770  1.5369 -0.2216
   67CHL1   H4B 7371   1.720   2.050  10.469  0.6272  2.4145  0.6743
   67CHL1    C5 7372   1.732   2.027  10.254 -0.3414  0.0917  0.5376
   67CHL1    C6 7373   1.628   1.947  10.255 -0.5398  0.0566  0.2298
   67CHL1    H6 7374   1.572   1.940  10.350  0.0650 -0.3173  0.5657
   67CHL1    C7 7375   1.565   1.893  10.129 -0.6651  0.1482  0.1847
   67CHL1   H7A 7376   1.534   1.787  10.143 -1.4512  0.3123 -0.2845
   67CHL1   H7B 7377   1.466   1.942  10.118 -0.4767  0.7605  1.0805
   67CHL1    C8 7378   1.654   1.910  10.002  0.4609 -0.1217 -0.3967
   67CHL1    H8 7379   1.725   1.827   9.986  0.6054  0.0061 -0.4178
   67CHL1   C14 7380   1.562   1.905   9.879 -0.0267  1.0630 -0.8328
   67CHL1   H14 7381   1.496   1.994   9.881 -2.7796 -0.8437  1.7240
   67CHL1   C15 7382   1.463   1.784   9.874  0.8623  0.4277 -0.4302
   67CHL1  H15A 7383   1.516   1.689   9.895 -0.4135  0.2271  2.3615
   67CHL1  H15B 7384   1.372   1.810   9.931  0.4858  2.4771 -1.8545
   67CHL1   C16 7385   1.418   1.783   9.725  0.2480  0.4627 -0.0774
   67CHL1  H16A 7386   1.452   1.690   9.675  2.3753  1.7120 -1.1212
   67CHL1  H16B 7387   1.311   1.811   9.715 -0.0619 -0.5514  0.2584
   67CHL1   C17 7388   1.501   1.898   9.653 -0.2641 -0.7060  0.3288
   67CHL1   H17 7389   1.436   1.988   9.660  0.2199 -0.1903 -1.3548
   67CHL1   C13 7390   1.620   1.914   9.746 -0.3525  0.0739 -0.1003
   67CHL1   C18 7391   1.722   1.804   9.714  0.0325  0.0719 -0.3604
   67CHL1  H18A 7392   1.761   1.829   9.613 -2.3001  3.9997 -0.5084
   67CHL1  H18B 7393   1.806   1.784   9.784 -1.6933 -1.7691  1.3130
   67CHL1  H18C 7394   1.666   1.708   9.714 -1.3624  0.8570 -0.0486
   67CHL1   C12 7395   1.699   2.053   9.737 -0.5623 -0.1107 -0.2249
   67CHL1  H12A 7396   1.766   2.055   9.649  3.0673 -0.6209  2.3318
   67CHL1  H12B 7397   1.623   2.135   9.730 -0.6758 -0.2777 -0.9832
   67CHL1   C11 7398   1.794   2.066   9.858  0.6477 -0.8562 -0.0478
   67CHL1  H11A 7399   1.882   2.000   9.849  1.3078  0.2336 -1.9590
   67CHL1  H11B 7400   1.844   2.166   9.856 -0.2070 -0.4179 -2.5537
   67CHL1    C9 7401   1.720   2.048   9.994  0.1812 -0.0829  0.3666
   67CHL1    H9 7402   1.641   2.126   9.991 -1.3694 -1.5506  1.2237
   67CHL1   C10 7403   1.802   2.086  10.122  0.1451 -0.0909 -0.4615
   67CHL1   C19 7404   1.945   2.022  10.124  0.2892  0.0928  0.1553
   67CHL1  H19A 7405   2.000   2.014  10.220  0.7099  0.0986 -0.0805
   67CHL1  H19B 7406   1.930   1.914  10.099 -2.5559  0.7140 -1.2328
   67CHL1  H19C 7407   2.018   2.069  10.055  2.1198  0.8791  2.5115
   67CHL1    C1 7408   1.820   2.242  10.138  0.2312 -0.9191 -0.1345
   67CHL1   H1A 7409   1.868   2.277  10.044 -0.9930 -1.7659 -1.1201
   67CHL1   H1B 7410   1.721   2.293  10.135 -0.8167 -2.8117  0.5582
   67CHL1    C2 7411   1.881   2.287  10.269  0.1015 -0.0886  0.1146
   67CHL1   H2A 7412   1.903   2.396  10.273 -2.2182  0.4006  1.1280
   67CHL1   H2B 7413   1.984   2.244  10.272 -0.5195 -1.5974  0.6401
   67CHL1   C20 7414   1.524   1.872   9.499  0.4748 -0.4048  0.6662
   67CHL1   H20 7415   1.567   1.770   9.487  0.7656 -0.3727  1.4000
   67CHL1   C21 7416   1.623   1.979   9.430  0.4052  0.0277 -0.4362
   67CHL1  H21A 7417   1.601   1.961   9.322 -1.3906 -0.5435 -0.0192
   67CHL1  H21B 7418   1.722   1.946   9.468  0.4330  2.2717  1.6403
   67CHL1  H21C 7419   1.589   2.079   9.464  2.6639  0.9250 -0.6058
   67CHL1   C22 7420   1.389   1.857   9.426 -0.5448  0.3442 -0.1848
   67CHL1  H22A 7421   1.408   1.816   9.325 -0.7809 -0.2288 -0.0004
   67CHL1  H22B 7422   1.330   1.774   9.470  1.7756  0.4649  3.6053
   67CHL1   C23 7423   1.294   1.979   9.406 -0.0904  0.1653 -0.9684
   67CHL1  H23A 7424   1.310   2.034   9.501  2.8683 -1.3450 -0.4489
   67CHL1  H23B 7425   1.332   2.052   9.332 -0.8617  1.5237 -0.0608
   67CHL1   C24 7426   1.148   1.943   9.374  0.3214 -0.7569  0.1427
   67CHL1  H24A 7427   1.099   2.038   9.344  0.4315 -0.4877  0.7902
   67CHL1  H24B 7428   1.137   1.865   9.296 -0.2434 -1.0374  0.4959
   67CHL1   C25 7429   1.066   1.900   9.498 -0.0984 -0.2722  0.2094
   67CHL1   H25 7430   1.128   1.824   9.550  2.7531  1.2562 -0.7737
   67CHL1   C26 7431   1.037   2.017   9.598 -0.1957 -0.2599  0.2301
   67CHL1  H26A 7432   0.963   2.085   9.550  1.9993  1.1468 -1.3772
   67CHL1  H26B 7433   0.987   1.971   9.686  0.3242 -0.6607  0.3235
   67CHL1  H26C 7434   1.131   2.063   9.635 -0.4999 -0.0136  0.7071
   67CHL1   C27 7435   0.938   1.827   9.453  0.2275 -0.2886 -0.2681
   67CHL1  H27A 7436   0.878   1.791   9.539  0.4582  2.2582  1.0503
   67CHL1  H27B 7437   0.873   1.900   9.400  0.3472  1.1055  1.4516
   67CHL1  H27C 7438   0.967   1.744   9.384  0.9395 -0.5673  0.3600
   68CHL1    C3 7439   6.157   2.818  10.453 -0.9377 -0.5333  0.3473
   68CHL1    H3 7440   6.088   2.905  10.441 -1.3179 -0.8871 -0.0599
   68CHL1    O3 7441   6.186   2.807  10.583  0.2677 -0.0789 -0.4791
   68CHL1   H3' 7442   6.243   2.882  10.604 -0.5451  0.1067  1.1869
   68CHL1    C4 7443   6.085   2.697  10.388  0.2642  0.5069 -0.0655
   68CHL1   H4A 7444   6.140   2.601  10.402 -2.0716 -0.9824 -0.6620
   68CHL1   H4B 7445   5.993   2.674  10.445  0.1306  0.2928 -0.3682
   68CHL1    C5 7446   6.058   2.697  10.244 -0.6506 -0.6091 -0.2158
   68CHL1    C6 7447   5.938   2.699  10.191  0.2648 -0.5844  0.2547
   68CHL1    H6 7448   5.852   2.699  10.260  0.6747 -1.0230  0.7703
   68CHL1    C7 7449   5.908   2.709  10.041  0.4129 -0.4541 -0.2081
   68CHL1   H7A 7450   5.819   2.648  10.015 -1.8462  2.1827  0.8625
   68CHL1   H7B 7451   5.883   2.816  10.024  0.5411 -0.3197  0.4280
   68CHL1    C8 7452   6.032   2.680   9.959  0.0397  0.4509  0.9694
   68CHL1    H8 7453   6.059   2.574   9.975 -0.3801  0.3180  0.8008
   68CHL1   C14 7454   6.002   2.699   9.814  0.5179 -0.4531  0.6299
   68CHL1   H14 7455   5.968   2.805   9.811  1.8847 -0.0126 -1.1655
   68CHL1   C15 7456   5.887   2.614   9.741 -0.9453 -0.0758 -0.1729
   68CHL1  H15A 7457   5.904   2.515   9.787 -0.7298  0.6502  1.3653
   68CHL1  H15B 7458   5.783   2.649   9.757 -2.1242 -0.1556 -5.6947
   68CHL1   C16 7459   5.938   2.610   9.598  0.7317 -0.1760 -0.0692
   68CHL1  H16A 7460   5.938   2.507   9.558  1.0632  0.3333 -1.4355
   68CHL1  H16B 7461   5.862   2.652   9.528 -1.0538 -0.8367  1.3901
   68CHL1   C17 7462   6.073   2.693   9.582  0.1375  0.0897  0.3921
   68CHL1   H17 7463   6.039   2.799   9.579 -1.0357 -0.2880 -1.5769
   68CHL1   C13 7464   6.122   2.683   9.730  0.2105  0.0372  0.1735
   68CHL1   C18 7465   6.189   2.545   9.744 -0.8367  0.2397  0.3880
   68CHL1  H18A 7466   6.232   2.539   9.847  0.5976  1.1055 -0.1448
   68CHL1  H18B 7467   6.120   2.460   9.727 -2.3065  1.2442  1.1197
   68CHL1  H18C 7468   6.269   2.520   9.671  0.7875 -2.5894  2.8552
   68CHL1   C12 7469   6.220   2.798   9.769  0.1279  0.0582  0.5344
   68CHL1  H12A 7470   6.313   2.805   9.710  0.4149  0.6263  1.0481
   68CHL1  H12B 7471   6.164   2.890   9.742  0.1315  0.0937  0.6467
   68CHL1   C11 7472   6.260   2.802   9.916  0.1114  0.2491 -0.5901
   68CHL1  H11A 7473   6.337   2.723   9.929 -1.6700 -1.2246  1.7706
   68CHL1  H11B 7474   6.311   2.901   9.929 -2.5946  1.5003  1.5020
   68CHL1    C9 7475   6.147   2.770  10.016  0.9209  0.3100  0.2228
   68CHL1    H9 7476   6.097   2.869  10.024 -1.7737 -1.0387  1.5957
   68CHL1   C10 7477   6.185   2.725  10.163  0.1808  0.3727 -0.3450
   68CHL1   C19 7478   6.276   2.606  10.164 -0.1298 -0.2263  0.2133
   68CHL1  H19A 7479   6.377   2.639  10.133  0.1269 -0.8261  0.4141
   68CHL1  H19B 7480   6.280   2.536  10.250  0.1772 -0.4030  0.0551
   68CHL1  H19C 7481   6.239   2.545  10.079 -4.0090 -0.6233  1.9423
   68CHL1    C1 7482   6.261   2.851  10.223  0.0277  0.1444 -0.1054
   68CHL1   H1A 7483   6.357   2.861  10.167  0.3249 -0.7386  0.2184
   68CHL1   H1B 7484   6.195   2.938  10.206 -0.5297 -0.2969 -0.2032
   68CHL1    C2 7485   6.281   2.845  10.377 -0.6180 -0.0374 -0.1583
   68CHL1   H2A 7486   6.328   2.937  10.418  0.6996 -0.7629  0.0095
   68CHL1   H2B 7487   6.352   2.766  10.411 -0.7943 -0.0639  0.1573
   68CHL1   C20 7488   6.160   2.655   9.464  0.3333 -0.0920  0.2089
   68CHL1   H20 7489   6.178   2.546   9.475  0.4886 -0.1413 -0.4892
   68CHL1   C21 7490   6.298   2.727   9.469 -1.1157 -0.0005  0.2957
   68CHL1  H21A 7491   6.273   2.823   9.518 -2.1821 -0.6220  1.0080
   68CHL1  H21B 7492   6.353   2.741   9.374  0.0489  1.6984  1.1892
   68CHL1  H21C 7493   6.366   2.672   9.538  1.3647 -0.0082 -1.9931
   68CHL1   C22 7494   6.086   2.675   9.328 -0.2798  0.7707 -0.4549
   68CHL1  H22A 7495   5.981   2.641   9.342 -0.2267  0.9710  0.4730
   68CHL1  H22B 7496   6.095   2.785   9.317  1.3539  0.6104 -0.9412
   68CHL1   C23 7497   6.159   2.614   9.207 -0.4132  0.1975  0.1368
   68CHL1  H23A 7498   6.251   2.675   9.200 -0.5197  0.2352 -1.1873
   68CHL1  H23B 7499   6.192   2.512   9.234 -0.1326  0.4962  0.9369
   68CHL1   C24 7500   6.088   2.632   9.068 -0.3927  0.4879  0.6991
   68CHL1  H24A 7501   5.987   2.587   9.068  0.2087 -0.9181  0.3703
   68CHL1  H24B 7502   6.084   2.743   9.058  0.7426  0.6189  1.4840
   68CHL1   C25 7503   6.173   2.576   8.952 -0.5715 -0.3551 -0.1299
   68CHL1   H25 7504   6.268   2.633   8.958 -0.4449 -0.5297 -0.4579
   68CHL1   C26 7505   6.204   2.426   8.973  0.0643 -0.3850 -0.8276
   68CHL1  H26A 7506   6.114   2.365   8.993 -0.7902  0.9227 -0.5605
   68CHL1  H26B 7507   6.261   2.389   8.884 -0.3130 -1.5854 -0.5928
   68CHL1  H26C 7508   6.281   2.416   9.053  1.0259 -1.6417 -1.8574
   68CHL1   C27 7509   6.122   2.585   8.815  0.4375 -0.6057  0.8757
   68CHL1  H27A 7510   6.113   2.694   8.793 -0.2888 -1.1442 -1.9118
   68CHL1  H27B 7511   6.175   2.543   8.727  1.0756 -0.7316  1.3179
   68CHL1  H27C 7512   6.022   2.538   8.826 -0.4938  0.7463 -1.0827
   69CHL1    C3 7513   5.379   5.539   6.853 -0.0697  0.2705  0.0634
   69CHL1    H3 7514   5.475   5.573   6.897 -1.3080  3.5728  0.5087
   69CHL1    O3 7515   5.377   5.526   6.711 -0.1963  0.1730  0.2748
   69CHL1   H3' 7516   5.287   5.499   6.689 -0.2027  0.9633 -0.7127
   69CHL1    C4 7517   5.370   5.390   6.899 -0.0694  0.0119 -0.9037
   69CHL1   H4A 7518   5.298   5.328   6.842  1.5721 -3.2577  0.3323
   69CHL1   H4B 7519   5.465   5.343   6.866  1.6499  2.7859 -0.3143
   69CHL1    C5 7520   5.349   5.358   7.047 -0.5283 -0.4590  0.4497
   69CHL1    C6 7521   5.429   5.278   7.112 -0.1923 -0.4749  0.2499
   69CHL1    H6 7522   5.516   5.242   7.057  0.6554  2.0795 -0.2286
   69CHL1    C7 7523   5.413   5.240   7.259  0.5471  0.4423  0.2567
   69CHL1   H7A 7524   5.439   5.135   7.285 -0.4277  0.4729  1.3965
   69CHL1   H7B 7525   5.472   5.307   7.325 -0.1773  0.8453  0.5005
   69CHL1    C8 7526   5.265   5.272   7.303 -0.2748  0.0494  0.3881
   69CHL1    H8 7527   5.204   5.192   7.257 -0.2042 -0.4593  1.1511
   69CHL1   C14 7528   5.255   5.284   7.458  0.5532 -0.2389 -0.2681
   69CHL1   H14 7529   5.318   5.372   7.481  2.9466 -1.8029 -0.5741
   69CHL1   C15 7530   5.307   5.161   7.538 -0.7279  0.5134  0.5234
   69CHL1  H15A 7531   5.257   5.068   7.504  1.4598 -0.1725 -1.0212
   69CHL1  H15B 7532   5.417   5.152   7.539 -0.8197 -0.8343  1.8478
   69CHL1   C16 7533   5.258   5.201   7.674 -0.7613 -0.6741  0.2260
   69CHL1  H16A 7534   5.224   5.117   7.738  0.0058 -0.0941  1.4412
   69CHL1  H16B 7535   5.345   5.242   7.730  0.4061 -2.7919  0.0462
   69CHL1   C17 7536   5.147   5.317   7.676  0.0722 -0.1045  0.1696
   69CHL1   H17 7537   5.191   5.413   7.710  4.0593 -1.7758  0.2257
   69CHL1   C13 7538   5.116   5.327   7.519  0.0841  0.0010 -0.0889
   69CHL1   C18 7539   5.025   5.206   7.466  0.0407 -0.9563  0.4738
   69CHL1  H18A 7540   4.919   5.215   7.499  0.9182 -1.5566  3.8128
   69CHL1  H18B 7541   5.017   5.200   7.355  2.6797 -2.0609  0.2776
   69CHL1  H18C 7542   5.053   5.109   7.513  0.3412 -0.4079  1.4516
   69CHL1   C12 7543   5.079   5.464   7.467 -0.2051 -0.2704 -0.7052
   69CHL1  H12A 7544   4.979   5.495   7.505  0.2871  1.5772 -0.8148
   69CHL1  H12B 7545   5.150   5.536   7.512  0.1302  0.1655 -1.8897
   69CHL1   C11 7546   5.091   5.477   7.316  0.8326  0.0188 -0.8042
   69CHL1  H11A 7547   4.999   5.429   7.278  1.8762 -4.4878  1.6569
   69CHL1  H11B 7548   5.081   5.585   7.289 -1.7260  0.0340 -0.0264
   69CHL1    C9 7549   5.217   5.413   7.259 -0.3590  0.3571 -0.5916
   69CHL1    H9 7550   5.299   5.481   7.290  1.4110 -0.0646 -3.8130
   69CHL1   C10 7551   5.225   5.428   7.103 -0.6820 -0.1783  0.5227
   69CHL1   C19 7552   5.101   5.371   7.043 -0.0124  0.7677 -0.0656
   69CHL1  H19A 7553   5.077   5.272   7.086  1.3675  0.5185  0.1640
   69CHL1  H19B 7554   5.011   5.435   7.049  0.5523  1.7030 -1.1169
   69CHL1  H19C 7555   5.111   5.351   6.934  0.0436 -0.6424  0.1777
   69CHL1    C1 7556   5.243   5.581   7.059 -0.6141  0.4442 -0.2126
   69CHL1   H1A 7557   5.156   5.636   7.099  0.4453  1.8323  0.2670
   69CHL1   H1B 7558   5.336   5.624   7.104  1.0869 -4.7288  1.9856
   69CHL1    C2 7559   5.259   5.614   6.909  0.0500 -0.0893  0.3095
   69CHL1   H2A 7560   5.258   5.724   6.894 -0.0303 -0.3244 -1.6421
   69CHL1   H2B 7561   5.173   5.565   6.858  0.4847 -1.1079  0.5357
   69CHL1   C20 7562   5.031   5.280   7.773  0.6087  0.4519 -0.1427
   69CHL1   H20 7563   4.992   5.187   7.727  1.3373  0.0670  0.0127
   69CHL1   C21 7564   4.921   5.391   7.771  0.7778 -0.1089 -0.2821
   69CHL1  H21A 7565   4.960   5.495   7.779  1.5935 -0.1333 -2.9335
   69CHL1  H21B 7566   4.848   5.360   7.849  1.9061 -0.6781  0.5714
   69CHL1  H21C 7567   4.874   5.392   7.670 -1.0233 -2.6828  0.4349
   69CHL1   C22 7568   5.079   5.267   7.921 -0.8033 -1.0252 -0.2725
   69CHL1  H22A 7569   4.990   5.247   7.983 -1.5387  3.3394  0.3673
   69CHL1  H22B 7570   5.148   5.181   7.937 -0.5008 -1.2052 -2.2542
   69CHL1   C23 7571   5.163   5.389   7.972  0.1531 -0.4037 -0.8206
   69CHL1  H23A 7572   5.261   5.386   7.921  1.6666 -1.2310  1.9256
   69CHL1  H23B 7573   5.118   5.486   7.940 -0.0318  0.2153  1.1694
   69CHL1   C24 7574   5.173   5.397   8.123  0.4610 -0.8238  0.3009
   69CHL1  H24A 7575   5.217   5.303   8.163  0.9502 -1.2829 -1.2382
   69CHL1  H24B 7576   5.233   5.487   8.149 -1.5678  0.9223 -0.8021
   69CHL1   C25 7577   5.040   5.426   8.193 -0.0935 -0.0214  0.6733
   69CHL1   H25 7578   4.987   5.328   8.194  0.4916 -0.3457  0.4313
   69CHL1   C26 7579   5.060   5.469   8.335 -0.0257  0.1376  0.3370
   69CHL1  H26A 7580   5.122   5.397   8.393  0.8474  1.5527  1.2582
   69CHL1  H26B 7581   5.126   5.559   8.341 -0.5314  0.6331 -1.1711
   69CHL1  H26C 7582   4.968   5.492   8.393 -0.2210  1.0437 -0.3133
   69CHL1   C27 7583   4.958   5.534   8.124 -0.2582  0.0699  0.1189
   69CHL1  H27A 7584   5.026   5.619   8.105 -0.0865 -0.6267 -3.0312
   69CHL1  H27B 7585   4.921   5.498   8.025  3.8645  0.6811 -1.8565
   69CHL1  H27C 7586   4.866   5.560   8.181 -1.1006 -2.1127 -0.1375
   70CHL1    C3 7587   3.619   2.797   7.228 -1.0708  0.4299  0.0295
   70CHL1    H3 7588   3.593   2.904   7.243 -2.8757 -0.0766  0.8048
   70CHL1    O3 7589   3.631   2.776   7.089  0.2548 -0.8988 -0.3575
   70CHL1   H3' 7590   3.550   2.820   7.065  0.2894  0.5158  1.7675
   70CHL1    C4 7591   3.764   2.774   7.271  0.3497  0.3486  0.7515
   70CHL1   H4A 7592   3.795   2.673   7.239 -2.0388  0.1518 -1.2553
   70CHL1   H4B 7593   3.822   2.843   7.205 -2.5682  0.1914 -2.2271
   70CHL1    C5 7594   3.776   2.801   7.419  0.8071  0.0428 -0.2597
   70CHL1    C6 7595   3.867   2.888   7.466 -0.2730  0.2503  0.0977
   70CHL1    H6 7596   3.935   2.939   7.396 -2.2992  1.9269 -0.7374
   70CHL1    C7 7597   3.890   2.910   7.605 -1.4055  0.9608  0.0038
   70CHL1   H7A 7598   4.000   2.908   7.624 -1.4559 -2.3851  0.4998
   70CHL1   H7B 7599   3.869   3.015   7.633  0.8410  1.3726  0.3536
   70CHL1    C8 7600   3.828   2.806   7.697  0.9391  0.0285  0.0821
   70CHL1    H8 7601   3.889   2.714   7.685  0.6225 -0.3467  1.2583
   70CHL1   C14 7602   3.804   2.859   7.836 -0.2579  0.1666 -0.6989
   70CHL1   H14 7603   3.722   2.933   7.824 -0.5521  0.0154  0.3235
   70CHL1   C15 7604   3.924   2.944   7.892  0.2740  0.0607 -0.0981
   70CHL1  H15A 7605   4.019   2.888   7.881  0.2306  0.0803 -0.5956
   70CHL1  H15B 7606   3.941   3.043   7.845  0.2084  0.7399  1.2611
   70CHL1   C16 7607   3.897   2.936   8.045  0.1348  0.3391 -0.2921
   70CHL1  H16A 7608   3.991   2.911   8.099 -0.3861 -0.3199  0.3276
   70CHL1  H16B 7609   3.861   3.039   8.069  0.9706  0.2177  1.6237
   70CHL1   C17 7610   3.781   2.837   8.068  0.1090  0.4431  0.1745
   70CHL1   H17 7611   3.687   2.895   8.075  0.7780  1.6524 -0.6117
   70CHL1   C13 7612   3.767   2.753   7.938 -0.1508  0.4915  0.5621
   70CHL1   C18 7613   3.877   2.638   7.926 -0.3674  0.1637  0.7892
   70CHL1  H18A 7614   3.976   2.686   7.910 -1.7162  2.1066 -3.2376
   70CHL1  H18B 7615   3.876   2.574   8.017  1.6289  0.2983  0.9493
   70CHL1  H18C 7616   3.865   2.563   7.845  1.4985 -1.0311  1.5572
   70CHL1   C12 7617   3.631   2.692   7.902  0.1654 -0.4390 -0.4299
   70CHL1  H12A 7618   3.612   2.602   7.964  1.8580 -0.3091  0.3438
   70CHL1  H12B 7619   3.554   2.767   7.932  0.8979  0.0486  0.3073
   70CHL1   C11 7620   3.614   2.663   7.751  0.1759 -0.3853 -0.1357
   70CHL1  H11A 7621   3.670   2.567   7.743 -0.2818 -0.5690 -1.3262
   70CHL1  H11B 7622   3.507   2.644   7.727 -0.5978  1.2186  1.7778
   70CHL1    C9 7623   3.684   2.761   7.649 -0.0315  0.2460  0.0461
   70CHL1    H9 7624   3.619   2.851   7.649 -0.0649  0.2220 -0.2099
   70CHL1   C10 7625   3.686   2.711   7.503  0.4774  0.4535 -0.0305
   70CHL1   C19 7626   3.738   2.565   7.498  0.4931 -0.2719 -0.2997
   70CHL1  H19A 7627   3.834   2.550   7.550  0.9077 -0.3694 -1.0758
   70CHL1  H19B 7628   3.669   2.490   7.542  0.5583  0.7045  1.5380
   70CHL1  H19C 7629   3.757   2.536   7.392  2.5799  1.7577 -0.5676
   70CHL1    C1 7630   3.538   2.720   7.450  0.1749 -0.1015  0.7008
   70CHL1   H1A 7631   3.484   2.649   7.515 -1.2517 -0.2693 -0.6111
   70CHL1   H1B 7632   3.495   2.820   7.475 -2.4312 -0.9189 -0.2569
   70CHL1    C2 7633   3.524   2.700   7.298  0.4261  0.0211 -0.3637
   70CHL1   H2A 7634   3.417   2.715   7.271  0.7688  0.9838 -1.2070
   70CHL1   H2B 7635   3.554   2.598   7.266 -0.0046  0.3285 -1.8093
   70CHL1   C20 7636   3.800   2.759   8.198  0.0101 -0.2344  0.5031
   70CHL1   H20 7637   3.899   2.710   8.198 -0.1456 -0.5647  1.1830
   70CHL1   C21 7638   3.684   2.657   8.227 -0.0152 -0.2756  0.1791
   70CHL1  H21A 7639   3.680   2.642   8.337 -0.9379 -0.3468  0.1395
   70CHL1  H21B 7640   3.713   2.560   8.182 -2.8930 -0.0514 -2.5563
   70CHL1  H21C 7641   3.587   2.699   8.192  0.8567  2.5232  0.7909
   70CHL1   C22 7642   3.819   2.853   8.319 -0.2204 -0.2651  0.0261
   70CHL1  H22A 7643   3.839   2.796   8.412  0.0907  1.2489  0.9329
   70CHL1  H22B 7644   3.913   2.908   8.298 -0.6270  0.8883  1.0510
   70CHL1   C23 7645   3.696   2.942   8.345 -0.7550  0.1689  0.6018
   70CHL1  H23A 7646   3.702   3.026   8.272  1.6759  0.2584  0.8117
   70CHL1  H23B 7647   3.598   2.891   8.338 -0.1697 -0.9081  0.1067
   70CHL1   C24 7648   3.695   3.022   8.485  0.2961  0.3997  0.1600
   70CHL1  H24A 7649   3.789   3.080   8.484 -0.6005  1.9522 -1.7098
   70CHL1  H24B 7650   3.610   3.094   8.482  0.8523  1.0445 -0.4531
   70CHL1   C25 7651   3.681   2.931   8.609  0.2729 -0.2970  1.0683
   70CHL1   H25 7652   3.777   2.877   8.625 -0.5918 -2.1675  0.1556
   70CHL1   C26 7653   3.674   3.014   8.739  0.1274  0.1824  0.2601
   70CHL1  H26A 7654   3.663   2.944   8.824 -1.2238 -1.6899 -1.3805
   70CHL1  H26B 7655   3.763   3.081   8.732  0.4645 -0.4695 -2.9806
   70CHL1  H26C 7656   3.587   3.084   8.746 -0.9155 -0.9156 -1.0557
   70CHL1   C27 7657   3.567   2.830   8.594 -0.0959  0.1575  0.1209
   70CHL1  H27A 7658   3.467   2.870   8.565 -0.3919 -1.5661 -1.3825
   70CHL1  H27B 7659   3.588   2.751   8.518 -0.8560 -0.0813  0.1502
   70CHL1  H27C 7660   3.556   2.766   8.684 -1.5883  1.1640  0.6842
   71CHL1    C3 7661   3.151   5.012   6.689  0.2577  0.0148  0.1423
   71CHL1    H3 7662   3.248   5.066   6.679  0.3597  0.4303  2.6732
   71CHL1    O3 7663   3.111   4.950   6.567 -0.5789  0.1799 -0.1883
   71CHL1   H3' 7664   3.030   4.903   6.586 -0.8933  1.1976  1.1615
   71CHL1    C4 7665   3.171   4.921   6.811 -0.3487 -0.5645 -0.1896
   71CHL1   H4A 7666   3.082   4.856   6.820  1.2282 -2.5456  2.6275
   71CHL1   H4B 7667   3.255   4.856   6.779  1.7237  1.3867  1.0233
   71CHL1    C5 7668   3.200   4.989   6.941 -0.9105  0.3144 -0.0817
   71CHL1    C6 7669   3.312   4.955   7.014 -0.7612 -1.0752  0.0838
   71CHL1    H6 7670   3.383   4.877   6.986 -0.2303 -0.2708 -0.8523
   71CHL1    C7 7671   3.347   5.022   7.142  0.1982 -0.1769 -0.0422
   71CHL1   H7A 7672   3.403   4.956   7.212 -2.2254 -1.1170  1.1270
   71CHL1   H7B 7673   3.409   5.111   7.114  2.0529 -1.1556  0.7443
   71CHL1    C8 7674   3.222   5.079   7.199  0.4711  0.2590 -0.2007
   71CHL1    H8 7675   3.154   4.997   7.231 -0.5430  0.5809 -1.4309
   71CHL1   C14 7676   3.265   5.163   7.315  0.7491 -0.1149  0.0665
   71CHL1   H14 7677   3.324   5.252   7.287 -1.6450  2.0955  1.5950
   71CHL1   C15 7678   3.348   5.097   7.428  0.0980  0.1514  0.6100
   71CHL1  H15A 7679   3.303   4.996   7.441  3.0929 -1.6520 -1.5967
   71CHL1  H15B 7680   3.454   5.082   7.399 -0.5511 -0.9724 -1.3970
   71CHL1   C16 7681   3.341   5.188   7.549  0.3212 -0.1696 -0.0583
   71CHL1  H16A 7682   3.320   5.124   7.637  0.1507  1.9464  1.5176
   71CHL1  H16B 7683   3.438   5.242   7.554  0.8614 -0.9735 -1.2463
   71CHL1   C17 7684   3.224   5.291   7.529  0.7395 -1.0032  0.5825
   71CHL1   H17 7685   3.281   5.379   7.491 -0.9818 -1.5564 -3.9014
   71CHL1   C13 7686   3.156   5.239   7.400  0.0570 -0.5803  0.2816
   71CHL1   C18 7687   3.054   5.137   7.461 -0.4973 -0.1344 -0.6260
   71CHL1  H18A 7688   3.002   5.090   7.375 -1.8114  0.3411 -0.1158
   71CHL1  H18B 7689   3.097   5.070   7.538 -0.9327  0.2382 -0.0497
   71CHL1  H18C 7690   2.968   5.193   7.502  0.6091  1.3106 -0.2037
   71CHL1   C12 7691   3.093   5.341   7.307  0.1803 -0.3122 -0.1213
   71CHL1  H12A 7692   2.996   5.379   7.345 -0.3909 -0.7512 -1.1033
   71CHL1  H12B 7693   3.156   5.430   7.281 -2.1814  1.3438 -0.4753
   71CHL1   C11 7694   3.051   5.266   7.175  0.2936  0.0152  0.1037
   71CHL1  H11A 7695   2.962   5.210   7.210  1.2038  0.3098  3.1585
   71CHL1  H11B 7696   3.015   5.348   7.109 -0.9082 -0.8485 -0.3665
   71CHL1    C9 7697   3.151   5.171   7.104  0.2588  0.2952  0.2372
   71CHL1    H9 7698   3.233   5.239   7.073  0.5079  0.7583  1.7884
   71CHL1   C10 7699   3.097   5.094   6.986  0.4344 -0.4086  0.0307
   71CHL1   C19 7700   2.962   5.027   7.033 -0.1944 -0.0882  0.3778
   71CHL1  H19A 7701   2.937   4.938   6.972  2.4643 -0.5814 -0.1006
   71CHL1  H19B 7702   2.965   5.001   7.141  2.0838  0.3964  0.4884
   71CHL1  H19C 7703   2.875   5.096   7.023 -1.7461 -2.0078  0.1735
   71CHL1    C1 7704   3.085   5.186   6.859 -0.0536  0.4000  0.0044
   71CHL1   H1A 7705   3.006   5.262   6.879 -0.1000  0.4086 -0.2064
   71CHL1   H1B 7706   3.178   5.243   6.839  0.9525 -0.8631  0.9178
   71CHL1    C2 7707   3.053   5.119   6.723  0.2088  0.6005  0.5102
   71CHL1   H2A 7708   3.043   5.204   6.652 -0.0283  0.2714  0.1493
   71CHL1   H2B 7709   2.956   5.067   6.733  0.9935 -0.9793  0.1235
   71CHL1   C20 7710   3.145   5.325   7.660 -0.1098  0.4211  0.3574
   71CHL1   H20 7711   3.087   5.235   7.692  1.7967 -1.6237 -1.5625
   71CHL1   C21 7712   3.049   5.448   7.624 -0.0677 -0.2767  0.3943
   71CHL1  H21A 7713   3.019   5.496   7.719  0.6434 -1.7724  1.4205
   71CHL1  H21B 7714   2.963   5.429   7.556 -0.4185  0.1434  0.7148
   71CHL1  H21C 7715   3.113   5.523   7.572 -0.6285  2.5213  3.4202
   71CHL1   C22 7716   3.232   5.357   7.785  0.5593  0.4516 -0.3861
   71CHL1  H22A 7717   3.163   5.377   7.870  1.2847 -0.5331  0.4659
   71CHL1  H22B 7718   3.292   5.271   7.823  1.3806  0.0615 -2.4300
   71CHL1   C23 7719   3.328   5.469   7.773 -0.4582 -0.0872 -0.3030
   71CHL1  H23A 7720   3.385   5.456   7.678  2.2027  1.7975  0.9014
   71CHL1  H23B 7721   3.281   5.566   7.747 -0.2649 -0.2232 -1.1981
   71CHL1   C24 7722   3.425   5.486   7.890  0.0199  0.4588  0.5233
   71CHL1  H24A 7723   3.368   5.500   7.984 -0.3432 -1.6064  0.6708
   71CHL1  H24B 7724   3.485   5.393   7.903 -1.0233 -0.2670  0.2029
   71CHL1   C25 7725   3.522   5.603   7.873 -0.0874  0.0393 -0.0596
   71CHL1   H25 7726   3.559   5.616   7.769 -2.0010 -1.6031 -0.9997
   71CHL1   C26 7727   3.450   5.734   7.913  0.2994 -0.1509  0.1957
   71CHL1  H26A 7728   3.513   5.825   7.902  2.3584 -1.5969 -0.3823
   71CHL1  H26B 7729   3.363   5.752   7.845  0.0248  0.7091  0.7607
   71CHL1  H26C 7730   3.409   5.720   8.015 -1.3926 -1.1496 -0.5819
   71CHL1   C27 7731   3.648   5.569   7.951  0.1880 -0.5150 -0.1549
   71CHL1  H27A 7732   3.620   5.555   8.057 -2.2750  2.6515 -0.2294
   71CHL1  H27B 7733   3.685   5.472   7.912 -0.7095 -0.1129 -2.1047
   71CHL1  H27C 7734   3.718   5.656   7.947  0.5334 -0.7863 -0.0319
   72CHL1    C3 7735   4.013   1.301   7.094  0.6445 -0.5660 -0.9500
   72CHL1    H3 7736   4.081   1.377   7.050  0.6714 -1.2883 -2.2179
   72CHL1    O3 7737   3.959   1.222   6.992  0.1996 -0.4803 -0.4338
   72CHL1   H3' 7738   3.887   1.280   6.964 -1.2275 -1.1416  1.6510
   72CHL1    C4 7739   4.096   1.212   7.186 -0.0121  0.4077 -0.2174
   72CHL1   H4A 7740   4.026   1.134   7.223 -0.3312  0.6768 -0.2465
   72CHL1   H4B 7741   4.172   1.149   7.135  1.0033  0.8195  0.7483
   72CHL1    C5 7742   4.154   1.291   7.304  0.1637 -0.7594  0.3138
   72CHL1    C6 7743   4.285   1.294   7.332  0.1787 -0.5744 -0.7757
   72CHL1    H6 7744   4.354   1.241   7.266  1.4218  1.4805 -1.2109
   72CHL1    C7 7745   4.348   1.372   7.446 -0.4712  0.8118 -0.0158
   72CHL1   H7A 7746   4.420   1.299   7.489 -2.1660 -1.2717 -0.5185
   72CHL1   H7B 7747   4.402   1.457   7.399  0.1283 -1.1811 -3.2860
   72CHL1    C8 7748   4.246   1.426   7.551  0.1888  0.7421  1.3360
   72CHL1    H8 7749   4.228   1.340   7.619 -0.9383  1.5105  2.0470
   72CHL1   C14 7750   4.296   1.538   7.641  0.0341  0.1656 -0.3230
   72CHL1   H14 7751   4.320   1.629   7.581 -2.6404  2.8400  2.3468
   72CHL1   C15 7752   4.430   1.507   7.704  0.6440 -0.6505  0.3699
   72CHL1  H15A 7753   4.415   1.408   7.751  1.5344 -1.7517 -1.5443
   72CHL1  H15B 7754   4.517   1.505   7.635  1.0924 -2.6121  0.9224
   72CHL1   C16 7755   4.440   1.615   7.819  0.1237 -0.1800 -0.6261
   72CHL1  H16A 7756   4.452   1.549   7.907 -1.5918 -0.2154 -0.3862
   72CHL1  H16B 7757   4.525   1.687   7.818  0.7893 -0.9430 -0.3947
   72CHL1   C17 7758   4.303   1.690   7.824 -0.6311  0.2259  0.3405
   72CHL1   H17 7759   4.308   1.779   7.758  2.6056 -1.1334 -1.5014
   72CHL1   C13 7760   4.207   1.593   7.753  0.0564  0.0536 -0.4623
   72CHL1   C18 7761   4.163   1.482   7.848 -0.2181  0.5072  0.0424
   72CHL1  H18A 7762   4.252   1.420   7.869 -0.1869 -0.8040 -3.2438
   72CHL1  H18B 7763   4.101   1.520   7.932 -1.9213  0.0973 -0.9610
   72CHL1  H18C 7764   4.094   1.407   7.803  1.5632 -0.6626 -0.8580
   72CHL1   C12 7765   4.083   1.646   7.681 -0.3243  0.3738  0.7878
   72CHL1  H12A 7766   4.010   1.698   7.747  0.2420  0.4499  1.3641
   72CHL1  H12B 7767   4.116   1.731   7.617  1.2951 -2.3094 -2.2019
   72CHL1   C11 7768   4.019   1.535   7.595  0.3037 -0.0336 -0.8690
   72CHL1  H11A 7769   3.979   1.458   7.663  0.1026  2.1106  1.6050
   72CHL1  H11B 7770   3.928   1.582   7.551  0.1345  1.0018  0.5062
   72CHL1    C9 7771   4.112   1.470   7.490  0.0017 -0.1534  0.4885
   72CHL1    H9 7772   4.139   1.553   7.421 -0.1397 -0.3679  0.1721
   72CHL1   C10 7773   4.049   1.365   7.391  0.0428 -0.3150  0.6043
   72CHL1   C19 7774   3.971   1.260   7.470  0.2665 -0.1962 -0.5080
   72CHL1  H19A 7775   3.898   1.304   7.541 -1.3945 -0.4302 -2.0028
   72CHL1  H19B 7776   3.909   1.191   7.409  0.6997 -3.1164  2.0746
   72CHL1  H19C 7777   4.037   1.190   7.525  2.7920  0.4448 -2.5009
   72CHL1    C1 7778   3.953   1.441   7.295 -0.0732  0.0022 -0.8157
   72CHL1   H1A 7779   3.869   1.479   7.357  0.0164 -0.2290 -0.5509
   72CHL1   H1B 7780   4.011   1.529   7.262 -1.1373  2.0500  2.2913
   72CHL1    C2 7781   3.898   1.360   7.170  0.6744 -0.1072  0.3893
   72CHL1   H2A 7782   3.836   1.435   7.117  3.0145  0.7933 -1.2424
   72CHL1   H2B 7783   3.834   1.276   7.204 -1.1434 -0.3399 -3.1268
   72CHL1   C20 7784   4.270   1.742   7.964 -0.3847 -0.0162 -0.0832
   72CHL1   H20 7785   4.254   1.657   8.034  1.6076  0.9057  1.5981
   72CHL1   C21 7786   4.136   1.822   7.965  0.4035 -0.0885 -0.3635
   72CHL1  H21A 7787   4.153   1.904   8.038  0.5374  0.4401 -0.9860
   72CHL1  H21B 7788   4.060   1.752   8.008 -0.4847  1.4398  0.6518
   72CHL1  H21C 7789   4.100   1.856   7.866  1.3140  3.1478  0.3075
   72CHL1   C22 7790   4.381   1.833   8.023  0.8755  0.4671  0.1999
   72CHL1  H22A 7791   4.483   1.819   7.979  2.5389  3.2525  2.7666
   72CHL1  H22B 7792   4.353   1.937   7.996  0.1602  0.1005 -0.5267
   72CHL1   C23 7793   4.395   1.825   8.169 -0.7955  0.4881 -0.2789
   72CHL1  H23A 7794   4.303   1.869   8.213 -0.9656 -0.9303  0.8327
   72CHL1  H23B 7795   4.385   1.722   8.209 -1.6123  0.6076 -0.1496
   72CHL1   C24 7796   4.515   1.893   8.233  0.3222 -0.2570 -0.3985
   72CHL1  H24A 7797   4.608   1.854   8.186  1.3162  0.5296  0.8568
   72CHL1  H24B 7798   4.503   2.001   8.210 -1.5415 -0.2584  0.3806
   72CHL1   C25 7799   4.532   1.876   8.388  0.4970 -0.4952  0.7109
   72CHL1   H25 7800   4.558   1.770   8.408 -2.5386 -0.6807  5.3431
   72CHL1   C26 7801   4.641   1.966   8.447  0.1198 -0.8331 -0.5098
   72CHL1  H26A 7802   4.665   1.930   8.549 -0.4720  3.4378  1.3519
   72CHL1  H26B 7803   4.736   1.965   8.389  1.1349 -1.4296  1.1081
   72CHL1  H26C 7804   4.601   2.070   8.451  0.0949 -0.8644  2.5355
   72CHL1   C27 7805   4.398   1.894   8.461  0.1224  0.4588  0.5736
   72CHL1  H27A 7806   4.420   1.891   8.570  1.3271 -1.2557  0.3189
   72CHL1  H27B 7807   4.355   1.989   8.421  0.9862 -0.3188 -2.4371
   72CHL1  H27C 7808   4.313   1.827   8.436 -1.0147  1.7705  0.7781
   73CHL1    C3 7809   4.343   4.476   7.115 -0.0323 -0.2027  0.4777
   73CHL1    H3 7810   4.341   4.372   7.155 -1.6032  0.3629  2.0132
   73CHL1    O3 7811   4.351   4.483   6.970 -0.1874 -0.0608 -0.1416
   73CHL1   H3' 7812   4.409   4.557   6.948  0.4095 -0.5320 -0.1785
   73CHL1    C4 7813   4.214   4.548   7.166 -0.5426  0.0242  0.4191
   73CHL1   H4A 7814   4.224   4.652   7.128  0.7055 -0.2145  0.0552
   73CHL1   H4B 7815   4.118   4.504   7.131 -0.0487 -2.2928  1.7391
   73CHL1    C5 7816   4.197   4.548   7.317 -0.1895 -0.2689  0.5238
   73CHL1    C6 7817   4.087   4.498   7.377  0.4706 -0.3967  1.2115
   73CHL1    H6 7818   4.000   4.454   7.326 -0.7145  0.3590  2.4996
   73CHL1    C7 7819   4.063   4.500   7.523  0.5425 -0.0546  0.2009
   73CHL1   H7A 7820   3.968   4.556   7.539 -1.1381 -2.4949 -0.6147
   73CHL1   H7B 7821   4.055   4.395   7.561 -1.6487 -0.5074 -1.3163
   73CHL1    C8 7822   4.167   4.584   7.601 -0.7091 -0.4683  0.1831
   73CHL1    H8 7823   4.141   4.691   7.588  0.2913 -0.3029 -0.5572
   73CHL1   C14 7824   4.155   4.547   7.747 -0.7354  0.3313 -0.0274
   73CHL1   H14 7825   4.176   4.438   7.740  1.1664  0.6267  0.6352
   73CHL1   C15 7826   4.021   4.549   7.831 -0.2250 -0.1571  0.3298
   73CHL1  H15A 7827   3.973   4.648   7.811 -1.3836 -1.0718 -1.7821
   73CHL1  H15B 7828   3.964   4.460   7.796  2.6578 -2.7111  1.6406
   73CHL1   C16 7829   4.071   4.536   7.976  0.3428  0.2521  0.4205
   73CHL1  H16A 7830   4.028   4.616   8.040  0.2581 -0.0798  0.7818
   73CHL1  H16B 7831   4.041   4.439   8.021 -0.2332  0.0022 -0.4711
   73CHL1   C17 7832   4.228   4.546   7.974  0.3853  0.2587  1.1029
   73CHL1   H17 7833   4.261   4.441   7.967 -0.6546 -0.0395  0.3586
   73CHL1   C13 7834   4.258   4.615   7.839  0.2414 -0.5511 -0.3784
   73CHL1   C18 7835   4.226   4.769   7.851 -0.3387  0.2101 -0.8485
   73CHL1  H18A 7836   4.133   4.788   7.909 -3.7737 -2.4580 -4.9194
   73CHL1  H18B 7837   4.315   4.803   7.909  1.0260 -5.0415  0.7216
   73CHL1  H18C 7838   4.225   4.822   7.754 -0.2281 -0.9501 -1.4997
   73CHL1   C12 7839   4.401   4.593   7.792  0.2133  0.1941 -0.8240
   73CHL1  H12A 7840   4.472   4.655   7.850 -0.9278  1.5330 -0.8172
   73CHL1  H12B 7841   4.416   4.483   7.804  1.0889  0.5026  1.2181
   73CHL1   C11 7842   4.410   4.635   7.637 -0.2176 -0.2871 -0.3777
   73CHL1  H11A 7843   4.402   4.746   7.640  2.5180 -0.0333  1.8761
   73CHL1  H11B 7844   4.511   4.604   7.605 -0.4407 -2.5266  0.8631
   73CHL1    C9 7845   4.308   4.565   7.547 -0.3828  0.5352 -0.5327
   73CHL1    H9 7846   4.323   4.455   7.549 -2.6032  0.2021  0.1717
   73CHL1   C10 7847   4.324   4.603   7.396 -0.0331 -0.3049  0.0086
   73CHL1   C19 7848   4.327   4.758   7.374  0.3779 -0.0810 -0.3290
   73CHL1  H19A 7849   4.423   4.801   7.409  1.0627 -0.0959 -2.0944
   73CHL1  H19B 7850   4.331   4.786   7.266  0.8742  1.8237  0.1616
   73CHL1  H19C 7851   4.247   4.818   7.421  0.7719  2.0516 -2.2384
   73CHL1    C1 7852   4.451   4.532   7.340 -0.4786  0.4612 -0.0456
   73CHL1   H1A 7853   4.542   4.584   7.377  0.4129  1.4993 -3.3510
   73CHL1   H1B 7854   4.462   4.424   7.364  1.1478  0.6070  0.0173
   73CHL1    C2 7855   4.464   4.541   7.182 -0.1863  0.4229  0.7199
   73CHL1   H2A 7856   4.559   4.512   7.133 -1.7322 -0.3911 -1.9864
   73CHL1   H2B 7857   4.459   4.649   7.155  2.6052  0.3660 -0.2767
   73CHL1   C20 7858   4.307   4.592   8.092 -0.6264  0.0719 -0.2593
   73CHL1   H20 7859   4.412   4.603   8.059 -0.6182  1.7933  0.2398
   73CHL1   C21 7860   4.305   4.470   8.189 -0.7389  0.5633 -0.3615
   73CHL1  H21A 7861   4.357   4.378   8.157  0.3089  0.1393  2.2981
   73CHL1  H21B 7862   4.203   4.436   8.219 -0.0673 -0.0518  1.3908
   73CHL1  H21C 7863   4.352   4.506   8.284  3.0667 -1.7269 -1.1717
   73CHL1   C22 7864   4.256   4.718   8.179  0.0729 -0.9463 -0.2833
   73CHL1  H22A 7865   4.220   4.798   8.110 -1.5785 -2.0297 -0.7278
   73CHL1  H22B 7866   4.165   4.696   8.238 -0.1849  2.9414  1.0553
   73CHL1   C23 7867   4.364   4.775   8.273 -0.2360 -0.6022  0.2437
   73CHL1  H23A 7868   4.384   4.701   8.353 -0.8877 -0.0637  0.9185
   73CHL1  H23B 7869   4.459   4.789   8.218 -0.0436 -0.7106  0.5460
   73CHL1   C24 7870   4.312   4.899   8.354  0.1341  0.0022 -0.5598
   73CHL1  H24A 7871   4.279   4.975   8.281 -0.4642  0.8977  0.6172
   73CHL1  H24B 7872   4.231   4.872   8.425  1.4115 -2.0081  0.2263
   73CHL1   C25 7873   4.429   4.971   8.426  0.3852  0.4057  0.3953
   73CHL1   H25 7874   4.497   5.005   8.346  0.7835 -0.4809  0.3399
   73CHL1   C26 7875   4.373   5.104   8.487 -0.0929 -0.0964 -0.1286
   73CHL1  H26A 7876   4.455   5.177   8.508 -2.7963  3.4960 -1.0879
   73CHL1  H26B 7877   4.307   5.161   8.419 -1.0212 -1.7779 -0.7005
   73CHL1  H26C 7878   4.304   5.089   8.573  1.2285  0.2675  1.0377
   73CHL1   C27 7879   4.496   4.887   8.526  0.8080  0.0681  0.6482
   73CHL1  H27A 7880   4.411   4.872   8.597 -1.2726 -0.4248 -1.7893
   73CHL1  H27B 7881   4.531   4.793   8.478 -2.5676 -1.1094  0.1703
   73CHL1  H27C 7882   4.585   4.930   8.576  1.8138 -2.2577  1.0096
   74CHL1    C3 7883   2.201   3.350   6.865  0.7479 -0.3811 -0.5466
   74CHL1    H3 7884   2.272   3.427   6.903 -0.1610 -0.5905  1.7368
   74CHL1    O3 7885   2.210   3.359   6.725 -0.0598 -0.1785 -0.2731
   74CHL1   H3' 7886   2.299   3.392   6.710  0.6474 -1.7884  0.1917
   74CHL1    C4 7887   2.232   3.207   6.917 -0.2683 -0.2445  0.5299
   74CHL1   H4A 7888   2.154   3.138   6.879 -1.2654  0.9234  0.3614
   74CHL1   H4B 7889   2.332   3.173   6.883 -0.5516 -1.0624  0.4902
   74CHL1    C5 7890   2.228   3.212   7.066 -0.0190  0.0082 -0.6079
   74CHL1    C6 7891   2.337   3.181   7.139 -0.3832  0.2123 -0.0615
   74CHL1    H6 7892   2.429   3.156   7.084 -0.1603 -1.7198  1.0956
   74CHL1    C7 7893   2.342   3.173   7.286 -0.3712  0.1895 -0.1712
   74CHL1   H7A 7894   2.405   3.091   7.327 -0.6105 -0.5724 -1.3086
   74CHL1   H7B 7895   2.394   3.266   7.320 -0.2262 -0.2032  0.7097
   74CHL1    C8 7896   2.195   3.166   7.347 -0.1779  0.1482  0.8712
   74CHL1    H8 7897   2.161   3.063   7.324  0.4393  0.2412 -0.5682
   74CHL1   C14 7898   2.208   3.185   7.500 -0.8485  0.5762  0.3378
   74CHL1   H14 7899   2.230   3.294   7.501  1.3725  0.1839  1.6582
   74CHL1   C15 7900   2.306   3.093   7.574 -0.2111 -0.4494  0.0651
   74CHL1  H15A 7901   2.297   2.990   7.533  3.6932 -0.9635  0.0692
   74CHL1  H15B 7902   2.411   3.128   7.557  0.2296 -1.4998  0.5490
   74CHL1   C16 7903   2.261   3.104   7.721  0.1016 -0.5129  0.3658
   74CHL1  H16A 7904   2.245   3.005   7.769 -0.1553 -0.1914  0.9482
   74CHL1  H16B 7905   2.338   3.164   7.775  1.3553  0.1236 -1.9997
   74CHL1   C17 7906   2.127   3.181   7.714  0.4305  0.3986 -0.0369
   74CHL1   H17 7907   2.142   3.291   7.716  0.2306  0.6354 -4.0018
   74CHL1   C13 7908   2.075   3.173   7.573 -0.0758 -0.4595  0.5871
   74CHL1   C18 7909   2.011   3.034   7.557  0.0824  0.4004  0.4459
   74CHL1  H18A 7910   2.078   2.964   7.610 -0.7841 -0.4501  0.4417
   74CHL1  H18B 7911   1.908   3.023   7.596 -0.5537 -0.3367 -1.3397
   74CHL1  H18C 7912   1.997   3.013   7.448  0.9129  0.2056  0.3639
   74CHL1   C12 7913   1.975   3.275   7.513 -0.4346  0.1201  0.2569
   74CHL1  H12A 7914   1.881   3.253   7.569 -0.7748 -1.7918 -0.9893
   74CHL1  H12B 7915   2.021   3.371   7.546 -0.3071 -0.1050  0.7388
   74CHL1   C11 7916   1.963   3.280   7.357 -0.4407  0.3284 -0.2144
   74CHL1  H11A 7917   1.890   3.203   7.326 -2.2114  2.0819 -0.6265
   74CHL1  H11B 7918   1.904   3.369   7.327 -1.6205 -1.0337 -2.1081
   74CHL1    C9 7919   2.100   3.262   7.280 -0.2974 -0.5020 -0.5608
   74CHL1    H9 7920   2.144   3.362   7.299 -0.8959  0.3362 -3.1660
   74CHL1   C10 7921   2.088   3.249   7.124  0.4777  0.2478 -0.2884
   74CHL1   C19 7922   1.996   3.127   7.094 -0.8927 -0.9749  0.0860
   74CHL1  H19A 7923   1.892   3.156   7.123 -0.5832  1.0474 -0.6561
   74CHL1  H19B 7924   1.987   3.110   6.985  0.5672 -0.3729 -0.1473
   74CHL1  H19C 7925   2.030   3.040   7.154 -0.8816 -0.7075  0.4778
   74CHL1    C1 7926   2.029   3.377   7.059  0.1748  0.3732 -0.1939
   74CHL1   H1A 7927   1.922   3.379   7.090 -0.0767  0.4542 -1.0533
   74CHL1   H1B 7928   2.073   3.464   7.113 -1.2739 -0.0718  1.8306
   74CHL1    C2 7929   2.061   3.389   6.910  0.9120 -0.8735 -0.5846
   74CHL1   H2A 7930   2.047   3.494   6.877  0.1666 -0.6425  0.4106
   74CHL1   H2B 7931   1.981   3.346   6.846 -2.6650  0.5401  2.5576
   74CHL1   C20 7932   2.038   3.133   7.836 -0.2186 -0.0792  0.6360
   74CHL1   H20 7933   2.020   3.024   7.831  4.9767 -1.1061 -1.9989
   74CHL1   C21 7934   1.902   3.205   7.834 -0.0933  1.1404  0.0307
   74CHL1  H21A 7935   1.848   3.199   7.931  0.6987  2.5557  0.5944
   74CHL1  H21B 7936   1.819   3.163   7.773  1.4186 -2.3627  0.1714
   74CHL1  H21C 7937   1.920   3.307   7.794 -0.6301  0.5487 -1.8100
   74CHL1   C22 7938   2.108   3.157   7.968  0.2327  0.4581  0.2268
   74CHL1  H22A 7939   2.214   3.125   7.971  0.0543 -0.0747  1.3216
   74CHL1  H22B 7940   2.113   3.268   7.966  1.7785  0.4076  0.1078
   74CHL1   C23 7941   2.048   3.108   8.098 -0.2082  0.3578  0.3330
   74CHL1  H23A 7942   1.960   3.172   8.120 -0.3318  1.0709 -1.9436
   74CHL1  H23B 7943   2.012   3.004   8.084  1.0349  0.0284 -0.6807
   74CHL1   C24 7944   2.133   3.120   8.227  0.5455  0.7618  0.6665
   74CHL1  H24A 7945   2.201   3.033   8.231  1.2916  1.2089 -1.1807
   74CHL1  H24B 7946   2.206   3.204   8.227  0.1752  1.1006 -0.0756
   74CHL1   C25 7947   2.036   3.124   8.346 -0.1414 -0.2586 -0.3097
   74CHL1   H25 7948   1.945   3.185   8.328 -0.5374 -0.3976  1.0952
   74CHL1   C26 7949   1.983   2.987   8.386  0.5244  0.5568  0.3882
   74CHL1  H26A 7950   1.928   2.945   8.299  1.1915 -2.1105  1.1507
   74CHL1  H26B 7951   2.071   2.928   8.418  1.8311  1.9045 -0.5968
   74CHL1  H26C 7952   1.911   2.984   8.470  0.1489  1.7000  0.1217
   74CHL1   C27 7953   2.097   3.203   8.465  0.2012 -0.0013 -0.0287
   74CHL1  H27A 7954   2.123   3.307   8.436  1.5006  0.4101  2.3396
   74CHL1  H27B 7955   2.037   3.183   8.556  1.3554 -2.1620  0.3526
   74CHL1  H27C 7956   2.194   3.150   8.481  0.2977  0.1496 -0.1212
   75CHL1    C3 7957   0.896   6.734   6.804 -0.1676 -0.3284  0.1845
   75CHL1    H3 7958   0.836   6.828   6.807  0.1325 -0.0880 -0.9570
   75CHL1    O3 7959   0.930   6.697   6.675 -0.6874 -0.2754 -0.1611
   75CHL1   H3' 7960   1.007   6.750   6.653 -0.5718 -0.4713 -0.2271
   75CHL1    C4 7961   1.025   6.740   6.881  0.2338 -0.2230  0.0967
   75CHL1   H4A 7962   1.077   6.641   6.878 -0.6960 -0.7664 -3.9374
   75CHL1   H4B 7963   1.090   6.821   6.842  0.7277 -0.6843 -0.0524
   75CHL1    C5 7964   0.992   6.768   7.031  0.1171 -0.0620  0.2116
   75CHL1    C6 7965   1.029   6.889   7.085  0.2105  0.3518  0.0645
   75CHL1    H6 7966   1.089   6.960   7.025  0.4309  0.5118  0.4736
   75CHL1    C7 7967   1.010   6.924   7.227  0.2399  0.1901  0.8395
   75CHL1   H7A 7968   1.105   6.964   7.268  0.3948  0.0432  0.6239
   75CHL1   H7B 7969   0.935   7.006   7.231 -1.4668 -0.9687 -2.8375
   75CHL1    C8 7970   0.956   6.812   7.310 -0.1624 -0.0016  0.3698
   75CHL1    H8 7971   1.047   6.754   7.333 -0.3142  0.3198  1.9043
   75CHL1   C14 7972   0.889   6.857   7.443 -0.5306 -0.0335 -0.0004
   75CHL1   H14 7973   0.802   6.921   7.415  0.0373  1.4860  1.5260
   75CHL1   C15 7974   0.963   6.953   7.540  0.2374 -0.7578  0.0117
   75CHL1  H15A 7975   1.066   6.915   7.551  0.4597 -0.2099 -0.1744
   75CHL1  H15B 7976   0.974   7.056   7.498  4.9213 -1.9461 -2.3189
   75CHL1   C16 7977   0.885   6.948   7.670  0.1783  0.4875  0.8744
   75CHL1  H16A 7978   0.959   6.952   7.752  1.0965  2.0270  0.0181
   75CHL1  H16B 7979   0.819   7.037   7.683  0.7714  1.2650 -1.0559
   75CHL1   C17 7980   0.798   6.819   7.663  0.5826 -0.9237  0.9178
   75CHL1   H17 7981   0.697   6.858   7.638  1.3979  1.9280  1.6944
   75CHL1   C13 7982   0.842   6.746   7.532 -1.0090  0.8761 -0.2123
   75CHL1   C18 7983   0.964   6.650   7.560  0.2458 -0.6679 -0.1169
   75CHL1  H18A 7984   1.032   6.691   7.638 -1.0904  3.3382 -0.8188
   75CHL1  H18B 7985   0.917   6.560   7.605  0.1196 -0.1391  0.8312
   75CHL1  H18C 7986   1.018   6.617   7.468  0.7492  0.9756 -0.4586
   75CHL1   C12 7987   0.727   6.675   7.459  0.7694  0.5919  0.7180
   75CHL1  H12A 7988   0.686   6.586   7.511  0.6014  0.3105  0.1175
   75CHL1  H12B 7989   0.644   6.748   7.444  1.4729  1.0159 -1.4328
   75CHL1   C11 7990   0.767   6.629   7.315  0.3507  0.1696 -0.0938
   75CHL1  H11A 7991   0.822   6.533   7.313  0.3196  0.1548 -0.3345
   75CHL1  H11B 7992   0.672   6.606   7.262  0.9150  3.7987 -3.2019
   75CHL1    C9 7993   0.854   6.733   7.234  0.0842  1.0677 -0.1185
   75CHL1    H9 7994   0.780   6.811   7.206 -0.8857  0.7563  1.4494
   75CHL1   C10 7995   0.903   6.670   7.101 -0.2171  0.1792 -1.0528
   75CHL1   C19 7996   0.980   6.529   7.111  0.2222 -0.3956 -0.3390
   75CHL1  H19A 7997   0.914   6.466   7.175  3.4416 -1.8999  1.7397
   75CHL1  H19B 7998   0.996   6.490   7.008  0.5046 -0.5147 -0.2511
   75CHL1  H19C 7999   1.077   6.546   7.162  0.0104 -1.2956  0.3943
   75CHL1    C1 8000   0.779   6.651   7.012  0.1582  0.4498  0.4385
   75CHL1   H1A 8001   0.721   6.561   7.041  1.9948 -1.4003 -1.2683
   75CHL1   H1B 8002   0.714   6.742   7.016  0.5276  0.6989  0.8603
   75CHL1    C2 8003   0.804   6.625   6.864  0.1266 -0.2909  0.0621
   75CHL1   H2A 8004   0.705   6.605   6.818  0.3522 -1.4545  0.0419
   75CHL1   H2B 8005   0.853   6.525   6.863 -0.3156 -0.5173 -1.5170
   75CHL1   C20 8006   0.768   6.748   7.796 -0.1216  0.1659  1.0358
   75CHL1   H20 8007   0.730   6.648   7.765 -0.1140  0.4253  0.1413
   75CHL1   C21 8008   0.668   6.837   7.880  0.8577  0.1315  1.0713
   75CHL1  H21A 8009   0.576   6.862   7.822 -0.3516 -2.3368  1.7778
   75CHL1  H21B 8010   0.717   6.933   7.905  0.5158  0.6332 -0.1187
   75CHL1  H21C 8011   0.614   6.793   7.967 -3.2615  1.7304 -0.4494
   75CHL1   C22 8012   0.891   6.717   7.884 -0.4137 -0.8482  0.0100
   75CHL1  H22A 8013   0.981   6.692   7.824 -1.0551  0.6317 -1.6379
   75CHL1  H22B 8014   0.928   6.804   7.942  1.5618 -1.2528 -0.5658
   75CHL1   C23 8015   0.868   6.614   7.995 -0.3639  0.2921  0.1269
   75CHL1  H23A 8016   0.781   6.657   8.049 -0.3017  1.9568 -1.0311
   75CHL1  H23B 8017   0.851   6.510   7.960  3.2373 -0.4903  0.3247
   75CHL1   C24 8018   0.983   6.614   8.086 -0.0846 -0.0062  0.7235
   75CHL1  H24A 8019   1.076   6.616   8.025 -0.1670  3.2451  0.5167
   75CHL1  H24B 8020   0.997   6.706   8.147  0.0931  0.9172 -0.6649
   75CHL1   C25 8021   0.992   6.489   8.181  0.4182 -0.0582  0.0743
   75CHL1   H25 8022   0.888   6.477   8.217  0.2240  4.1733  1.3930
   75CHL1   C26 8023   1.034   6.361   8.111  0.1811  0.4299  0.6496
   75CHL1  H26A 8024   1.061   6.293   8.195 -1.1410 -1.2087 -0.2103
   75CHL1  H26B 8025   0.951   6.313   8.055  0.2778  2.3809 -1.2822
   75CHL1  H26C 8026   1.121   6.381   8.046  2.1673 -1.6974  2.4738
   75CHL1   C27 8027   1.084   6.515   8.304 -0.1995 -0.1478  0.0137
   75CHL1  H27A 8028   1.189   6.533   8.272 -0.3021  0.8557  0.2149
   75CHL1  H27B 8029   1.055   6.607   8.358  1.3967  0.2554  0.2153
   75CHL1  H27C 8030   1.087   6.425   8.369 -1.3787  0.9485  1.6691
   76CHL1    C3 8031   2.675   0.562   7.304 -0.0917 -0.3363  0.0748
   76CHL1    H3 8032   2.596   0.631   7.268  1.0998  0.6779 -0.6545
   76CHL1    O3 8033   2.694   0.470   7.204  0.1122 -0.2302 -0.5097
   76CHL1   H3' 8034   2.649   0.389   7.231  0.9548 -0.1839  1.1606
   76CHL1    C4 8035   2.800   0.656   7.310  0.3886 -0.2675  0.6001
   76CHL1   H4A 8036   2.882   0.583   7.329 -0.0006 -1.3581 -1.5352
   76CHL1   H4B 8037   2.826   0.695   7.209  0.4242  0.8652  1.0341
   76CHL1    C5 8038   2.788   0.758   7.423 -0.1284 -0.3214  0.9501
   76CHL1    C6 8039   2.819   0.885   7.401  0.7926 -0.4865 -0.1932
   76CHL1    H6 8040   2.839   0.911   7.296 -1.6139  2.7618 -0.0138
   76CHL1    C7 8041   2.833   0.987   7.513 -0.1289  0.3407  0.8074
   76CHL1   H7A 8042   2.924   1.046   7.492 -0.3950  1.6125  2.8760
   76CHL1   H7B 8043   2.749   1.060   7.518 -1.3217 -0.9757  0.6196
   76CHL1    C8 8044   2.837   0.919   7.651 -0.2757 -0.2962 -0.8204
   76CHL1    H8 8045   2.942   0.890   7.675 -1.0805 -1.8350  1.0419
   76CHL1   C14 8046   2.795   1.021   7.753  0.0205  0.1192  0.1234
   76CHL1   H14 8047   2.685   1.024   7.738  0.0848 -1.0006 -0.7583
   76CHL1   C15 8048   2.847   1.162   7.758 -0.5040  0.1355  0.3822
   76CHL1  H15A 8049   2.950   1.176   7.718  0.0890  0.3108  1.8967
   76CHL1  H15B 8050   2.785   1.220   7.687 -1.5910 -0.4310  0.8462
   76CHL1   C16 8051   2.819   1.212   7.902  0.6889 -1.0268  0.3286
   76CHL1  H16A 8052   2.917   1.248   7.940  0.9796  1.9419 -2.7717
   76CHL1  H16B 8053   2.756   1.304   7.900  2.3427  0.2251  1.9943
   76CHL1   C17 8054   2.759   1.095   7.980 -0.0050 -0.5173 -0.4426
   76CHL1   H17 8055   2.649   1.105   7.972 -0.2401  1.9377  3.6180
   76CHL1   C13 8056   2.803   0.971   7.904 -0.3020  0.0884  1.0253
   76CHL1   C18 8057   2.955   0.951   7.927 -0.1537 -0.0034 -0.1639
   76CHL1  H18A 8058   2.999   0.868   7.869  1.6637  0.2539  0.7556
   76CHL1  H18B 8059   3.028   1.035   7.920  0.1834 -0.3369 -0.7020
   76CHL1  H18C 8060   2.966   0.915   8.032 -0.6945  0.6058  0.1174
   76CHL1   C12 8061   2.716   0.843   7.920 -0.5790  0.4055  0.5862
   76CHL1  H12A 8062   2.740   0.783   8.011 -1.1179 -1.4378 -0.4419
   76CHL1  H12B 8063   2.613   0.883   7.930 -1.0112 -0.2575 -0.9690
   76CHL1   C11 8064   2.738   0.740   7.811 -0.0199 -0.1211 -0.8357
   76CHL1  H11A 8065   2.834   0.686   7.825 -0.8009 -1.5416 -0.7659
   76CHL1  H11B 8066   2.667   0.657   7.830  2.1604 -1.5767  1.5637
   76CHL1    C9 8067   2.734   0.793   7.666 -0.6771 -0.3412 -0.5914
   76CHL1    H9 8068   2.638   0.840   7.638 -1.3082 -2.1763 -1.6458
   76CHL1   C10 8069   2.750   0.687   7.560 -0.3852 -1.0284  0.6636
   76CHL1   C19 8070   2.870   0.600   7.591 -0.2043  0.0172 -0.9223
   76CHL1  H19A 8071   2.889   0.519   7.518 -0.4177  0.3668 -1.3697
   76CHL1  H19B 8072   2.961   0.664   7.587 -1.1631  1.4735 -0.3964
   76CHL1  H19C 8073   2.854   0.544   7.685 -1.7259  0.6937 -0.7443
   76CHL1    C1 8074   2.621   0.601   7.553  0.2721  0.3091  0.0161
   76CHL1   H1A 8075   2.629   0.544   7.649  0.4020  0.8248  0.3184
   76CHL1   H1B 8076   2.531   0.667   7.552 -0.0903 -0.1866 -1.3050
   76CHL1    C2 8077   2.628   0.497   7.435 -0.4656  0.2368  0.5055
   76CHL1   H2A 8078   2.535   0.437   7.423  0.2126 -1.2041  1.9810
   76CHL1   H2B 8079   2.701   0.414   7.448 -1.0983 -0.5928 -0.9925
   76CHL1   C20 8080   2.778   1.108   8.136  0.4596  0.3578 -0.9801
   76CHL1   H20 8081   2.885   1.091   8.161  0.0181 -2.1909 -0.5855
   76CHL1   C21 8082   2.713   0.987   8.203  0.5155 -0.4977  0.0095
   76CHL1  H21A 8083   2.690   1.007   8.310 -0.0681  0.2224 -0.2393
   76CHL1  H21B 8084   2.757   0.887   8.183 -1.7343 -1.1047 -2.4561
   76CHL1  H21C 8085   2.607   0.976   8.172 -0.2651 -1.2881  2.7235
   76CHL1   C22 8086   2.733   1.246   8.200 -0.0347  0.3523  0.5718
   76CHL1  H22A 8087   2.786   1.330   8.151 -2.8683  0.6915 -2.2651
   76CHL1  H22B 8088   2.625   1.263   8.177 -0.2849 -0.7134  0.8903
   76CHL1   C23 8089   2.749   1.259   8.352 -0.9523  0.1116  0.3295
   76CHL1  H23A 8090   2.675   1.192   8.401 -1.4051 -0.7403 -1.4258
   76CHL1  H23B 8091   2.852   1.224   8.376 -0.5337  0.4159 -0.9602
   76CHL1   C24 8092   2.730   1.404   8.394 -0.1592  0.7941 -0.4273
   76CHL1  H24A 8093   2.818   1.466   8.369  0.0646  1.1259  1.0848
   76CHL1  H24B 8094   2.634   1.452   8.364 -0.4025  0.2600 -0.5321
   76CHL1   C25 8095   2.714   1.421   8.546  0.0240  0.4520 -0.1594
   76CHL1   H25 8096   2.640   1.346   8.580  1.1282 -0.4873  0.2298
   76CHL1   C26 8097   2.846   1.380   8.614  0.3524 -0.6698  0.8109
   76CHL1  H26A 8098   2.938   1.423   8.570  0.4277 -0.8174  0.8242
   76CHL1  H26B 8099   2.845   1.409   8.721  1.0545  0.0775  0.6290
   76CHL1  H26C 8100   2.863   1.271   8.607  0.8596 -0.5333 -0.2810
   76CHL1   C27 8101   2.669   1.571   8.583 -0.0825  0.3040 -0.6015
   76CHL1  H27A 8102   2.563   1.579   8.552 -0.8583 -4.2609  0.1250
   76CHL1  H27B 8103   2.666   1.587   8.693  0.5006  1.2043 -0.7049
   76CHL1  H27C 8104   2.748   1.635   8.539 -1.3394  1.2851 -1.5090
   77CHL1    C3 8105   4.516   0.005   6.804  0.1922 -0.3262  0.3271
   77CHL1    H3 8106   4.617  -0.020   6.844  0.4816  1.0899  0.5132
   77CHL1    O3 8107   4.521  -0.013   6.662  0.3365  0.3063  0.7987
   77CHL1   H3' 8108   4.609   0.014   6.637  0.2064  1.1748  1.2455
   77CHL1    C4 8109   4.399  -0.086   6.860  0.2192 -0.7054  0.9432
   77CHL1   H4A 8110   4.305  -0.066   6.804  0.1396 -0.5252  1.1430
   77CHL1   H4B 8111   4.433  -0.187   6.828  0.7845 -0.2422  0.0380
   77CHL1    C5 8112   4.395  -0.068   7.014 -0.6398 -0.6336 -0.1425
   77CHL1    C6 8113   4.421  -0.167   7.095  0.0066  0.3517 -0.2745
   77CHL1    H6 8114   4.434  -0.267   7.050  0.3648 -0.1447  0.9192
   77CHL1    C7 8115   4.415  -0.159   7.243  0.2745 -0.1616 -0.3404
   77CHL1   H7A 8116   4.335  -0.228   7.278  0.1311  1.3771  2.6806
   77CHL1   H7B 8117   4.511  -0.185   7.292 -1.2110 -1.4815  2.0646
   77CHL1    C8 8118   4.375  -0.020   7.301  0.0724  0.0756 -0.5698
   77CHL1    H8 8119   4.264  -0.018   7.297  0.1357  1.2205 -2.6093
   77CHL1   C14 8120   4.429   0.001   7.441  0.8918 -0.0119  0.1750
   77CHL1   H14 8121   4.538   0.022   7.431  1.0822 -0.2286  1.6510
   77CHL1   C15 8122   4.409  -0.120   7.534  0.1731  0.2637 -0.7117
   77CHL1  H15A 8123   4.303  -0.155   7.545 -0.2070  1.7506  0.6944
   77CHL1  H15B 8124   4.475  -0.207   7.517 -0.3208  0.1157 -1.9619
   77CHL1   C16 8125   4.441  -0.052   7.670 -0.5002  0.1223 -0.4033
   77CHL1  H16A 8126   4.361  -0.069   7.746  1.4697  0.7819  1.9481
   77CHL1  H16B 8127   4.535  -0.088   7.718 -0.4779 -0.1438 -0.6421
   77CHL1   C17 8128   4.457   0.108   7.649  0.3912 -0.0891 -0.0502
   77CHL1   H17 8129   4.564   0.133   7.634  0.7836 -0.7003  1.4481
   77CHL1   C13 8130   4.381   0.129   7.515 -0.5582  0.0104  0.4564
   77CHL1   C18 8131   4.235   0.123   7.545 -0.4978  0.2092  0.6651
   77CHL1  H18A 8132   4.173   0.130   7.453  0.7751 -0.0454 -0.2396
   77CHL1  H18B 8133   4.212   0.030   7.603  0.8304 -1.3913 -1.2522
   77CHL1  H18C 8134   4.211   0.213   7.605  0.0804  0.8555 -0.0581
   77CHL1   C12 8135   4.426   0.249   7.431 -0.0484 -0.1025  0.6657
   77CHL1  H12A 8136   4.375   0.342   7.465 -1.2929  0.6796 -2.9587
   77CHL1  H12B 8137   4.535   0.259   7.449  0.3914 -2.6691 -0.1161
   77CHL1   C11 8138   4.398   0.228   7.281 -0.1903  0.2737  0.8229
   77CHL1  H11A 8139   4.288   0.244   7.279 -0.2187  0.1098 -1.0124
   77CHL1  H11B 8140   4.458   0.305   7.228  0.8373  0.0529  1.6238
   77CHL1    C9 8141   4.433   0.085   7.216 -0.3049 -0.3416  1.3022
   77CHL1    H9 8142   4.544   0.076   7.212 -0.4868 -3.8277  1.2212
   77CHL1   C10 8143   4.393   0.077   7.063  0.4315 -0.2181 -0.6522
   77CHL1   C19 8144   4.247   0.126   7.049 -0.2087 -0.9379 -0.3336
   77CHL1  H19A 8145   4.178   0.072   7.117 -1.3370  0.0101 -0.6955
   77CHL1  H19B 8146   4.231   0.233   7.070 -0.6405 -1.0519 -0.0594
   77CHL1  H19C 8147   4.211   0.124   6.944  0.6296  2.1939 -0.7713
   77CHL1    C1 8148   4.482   0.175   6.982 -0.1677  0.4261 -0.7854
   77CHL1   H1A 8149   4.447   0.281   6.985  0.8069  0.7652  1.9849
   77CHL1   H1B 8150   4.581   0.181   7.032 -0.0254 -2.1487 -0.6523
   77CHL1    C2 8151   4.484   0.149   6.833 -1.0233  0.0585 -0.0299
   77CHL1   H2A 8152   4.574   0.196   6.788  0.6708 -2.1540  0.8835
   77CHL1   H2B 8153   4.391   0.174   6.776 -0.8082  0.6954 -0.1135
   77CHL1   C20 8154   4.424   0.187   7.776 -0.2108 -0.1890  0.1608
   77CHL1   H20 8155   4.318   0.175   7.804 -0.3425  0.5304  0.0011
   77CHL1   C21 8156   4.447   0.339   7.756  0.2961 -0.3889 -0.7384
   77CHL1  H21A 8157   4.428   0.400   7.846 -0.3849 -1.6319 -0.0113
   77CHL1  H21B 8158   4.366   0.370   7.686  0.7063 -1.3379 -1.6606
   77CHL1  H21C 8159   4.545   0.362   7.709  0.1154  0.1472 -0.8614
   77CHL1   C22 8160   4.504   0.133   7.900 -0.6641 -0.4927  0.1875
   77CHL1  H22A 8161   4.476   0.030   7.929  0.0144 -0.7403 -0.0140
   77CHL1  H22B 8162   4.610   0.129   7.866 -1.8044 -1.1192 -3.8275
   77CHL1   C23 8163   4.490   0.222   8.030  0.2400  0.3285  0.4272
   77CHL1  H23A 8164   4.559   0.307   8.009  1.1476 -0.9029 -1.9816
   77CHL1  H23B 8165   4.385   0.255   8.026 -0.2593 -1.2929 -1.0636
   77CHL1   C24 8166   4.544   0.148   8.157  0.5444  0.2008  0.0473
   77CHL1  H24A 8167   4.501   0.045   8.161  0.2389  0.3316  3.2770
   77CHL1  H24B 8168   4.653   0.128   8.153  0.4400 -0.8930  1.5870
   77CHL1   C25 8169   4.488   0.227   8.285 -0.3330  0.3431 -0.2187
   77CHL1   H25 8170   4.380   0.240   8.262 -0.6479 -1.2645  0.2434
   77CHL1   C26 8171   4.493   0.150   8.426 -0.7726 -0.0435  0.3087
   77CHL1  H26A 8172   4.446   0.214   8.503 -0.2465 -1.0270  1.4676
   77CHL1  H26B 8173   4.444   0.050   8.428  0.6572 -0.7748  3.1006
   77CHL1  H26C 8174   4.597   0.130   8.459 -0.6575  0.0345 -0.0025
   77CHL1   C27 8175   4.542   0.371   8.292  0.2934 -0.1639 -0.8383
   77CHL1  H27A 8176   4.652   0.376   8.306  0.0132  2.0058  1.2021
   77CHL1  H27B 8177   4.508   0.421   8.198 -0.4126  0.8964 -0.0491
   77CHL1  H27C 8178   4.479   0.411   8.374 -1.0607 -1.7851 -1.0294
   78CHL1    C3 8179   0.720   0.625   6.785  0.3428 -0.3769  0.3131
   78CHL1    H3 8180   0.829   0.643   6.787  0.1423  0.9191  0.1066
   78CHL1    O3 8181   0.674   0.590   6.658 -0.0567  0.1289  0.1171
   78CHL1   H3' 8182   0.745   0.552   6.605 -0.6934 -1.2726  0.2156
   78CHL1    C4 8183   0.692   0.508   6.878  0.0071  0.4846 -0.2318
   78CHL1   H4A 8184   0.589   0.468   6.872  0.0892  0.4225 -1.4009
   78CHL1   H4B 8185   0.749   0.418   6.847  1.0423  2.0388 -3.1490
   78CHL1    C5 8186   0.722   0.535   7.025  0.0538 -0.6275  0.4005
   78CHL1    C6 8187   0.805   0.453   7.097 -0.2158 -0.0809  0.2948
   78CHL1    H6 8188   0.856   0.371   7.043 -0.8399 -0.4536  0.2571
   78CHL1    C7 8189   0.839   0.468   7.245 -0.1564 -0.2699 -0.3411
   78CHL1   H7A 8190   0.829   0.373   7.301  2.0370 -2.0704 -2.7620
   78CHL1   H7B 8191   0.946   0.496   7.249 -0.5909  1.4446  0.1809
   78CHL1    C8 8192   0.760   0.580   7.308  0.0928 -0.2916 -0.4241
   78CHL1    H8 8193   0.662   0.537   7.336  0.7451 -1.2782  0.3714
   78CHL1   C14 8194   0.824   0.635   7.434 -0.1760  0.4414  0.0653
   78CHL1   H14 8195   0.916   0.685   7.398 -0.6933 -0.5924 -2.9998
   78CHL1   C15 8196   0.873   0.523   7.536 -0.2190 -0.5842  0.2209
   78CHL1  H15A 8197   0.798   0.444   7.557 -1.3736 -0.7166 -3.7147
   78CHL1  H15B 8198   0.964   0.469   7.502  0.3323  0.8184 -0.5971
   78CHL1   C16 8199   0.906   0.611   7.657 -0.0572 -1.0990 -0.2113
   78CHL1  H16A 8200   0.877   0.565   7.753  0.9034  0.8700  1.0853
   78CHL1  H16B 8201   1.016   0.623   7.674 -0.1568  0.9091 -0.6544
   78CHL1   C17 8202   0.841   0.755   7.640  0.1267 -0.1596 -0.5643
   78CHL1   H17 8203   0.923   0.817   7.599 -1.9857  3.5440  0.2731
   78CHL1   C13 8204   0.744   0.734   7.522  0.0779 -0.4591 -0.5499
   78CHL1   C18 8205   0.611   0.679   7.564 -0.5207 -0.2114  0.4218
   78CHL1  H18A 8206   0.626   0.594   7.633 -1.0197 -1.7484 -1.2942
   78CHL1  H18B 8207   0.552   0.757   7.617  0.0412  1.5573 -1.4043
   78CHL1  H18C 8208   0.547   0.635   7.484 -0.7335  0.0238  0.4574
   78CHL1   C12 8209   0.726   0.854   7.422 -0.4553  0.1999  0.2593
   78CHL1  H12A 8210   0.678   0.947   7.459 -1.0383 -0.5396  1.4034
   78CHL1  H12B 8211   0.829   0.885   7.395 -0.3662 -0.1065  0.2463
   78CHL1   C11 8212   0.650   0.822   7.292  0.1449 -0.3554  0.3701
   78CHL1  H11A 8213   0.549   0.794   7.327  0.3625  0.3967  1.6650
   78CHL1  H11B 8214   0.648   0.909   7.223 -0.3977 -0.3137  0.4353
   78CHL1    C9 8215   0.729   0.707   7.216 -0.5033 -0.1736 -1.0169
   78CHL1    H9 8216   0.827   0.756   7.198  0.0298 -0.9304 -0.2341
   78CHL1   C10 8217   0.656   0.658   7.084 -0.2675 -0.3172  0.3029
   78CHL1   C19 8218   0.508   0.640   7.113 -0.4877  0.7749  0.4117
   78CHL1  H19A 8219   0.460   0.575   7.036  0.8629 -0.5058  0.6013
   78CHL1  H19B 8220   0.502   0.586   7.210  2.3056  0.4545  0.4830
   78CHL1  H19C 8221   0.459   0.739   7.120 -0.6959  0.5917  1.8858
   78CHL1    C1 8222   0.681   0.777   6.977 -0.1140 -0.4719 -0.7655
   78CHL1   H1A 8223   0.619   0.863   7.010  1.3405  0.4577 -0.3473
   78CHL1   H1B 8224   0.784   0.815   6.992 -0.1489 -0.5360 -0.3470
   78CHL1    C2 8225   0.648   0.751   6.832 -0.1024 -0.1147  0.5781
   78CHL1   H2A 8226   0.685   0.842   6.781 -0.4508  1.5115  3.0285
   78CHL1   H2B 8227   0.538   0.738   6.832  0.0718 -2.2328  2.1723
   78CHL1   C20 8228   0.788   0.823   7.762  0.1237 -0.8242  0.6029
   78CHL1   H20 8229   0.691   0.774   7.787  2.0908 -4.5470  1.6145
   78CHL1   C21 8230   0.765   0.976   7.737 -0.1853  0.1903  0.1564
   78CHL1  H21A 8231   0.860   1.025   7.706 -0.0583  2.0387  3.0799
   78CHL1  H21B 8232   0.729   1.040   7.820 -0.3679  1.4495 -0.8607
   78CHL1  H21C 8233   0.686   0.980   7.659 -1.0843  0.7429  1.0852
   78CHL1   C22 8234   0.887   0.820   7.880 -0.7162  0.2855  0.3733
   78CHL1  H22A 8235   0.921   0.714   7.884 -2.2048 -0.2734 -0.6565
   78CHL1  H22B 8236   0.979   0.883   7.881  1.1544 -2.2245 -1.0577
   78CHL1   C23 8237   0.830   0.858   8.021 -0.0097 -0.1156 -0.2707
   78CHL1  H23A 8238   0.803   0.965   8.024 -0.6594 -0.2744 -0.2896
   78CHL1  H23B 8239   0.745   0.793   8.052  0.5998 -0.2659  1.1297
   78CHL1   C24 8240   0.934   0.842   8.130 -0.0506  0.2374 -0.3577
   78CHL1  H24A 8241   0.976   0.739   8.134  0.3777  0.4161 -0.1702
   78CHL1  H24B 8242   1.016   0.916   8.118 -1.1497  1.1823 -2.6141
   78CHL1   C25 8243   0.885   0.876   8.273 -0.3892 -0.1056 -0.2228
   78CHL1   H25 8244   0.790   0.822   8.288 -0.2907 -0.8857 -2.0645
   78CHL1   C26 8245   0.981   0.822   8.379 -0.4573 -0.0139 -0.7234
   78CHL1  H26A 8246   0.948   0.852   8.480 -0.2836 -0.4631 -0.5321
   78CHL1  H26B 8247   0.991   0.712   8.371 -1.5817 -0.1797  0.0223
   78CHL1  H26C 8248   1.090   0.843   8.375 -0.5302  0.2377 -1.6386
   78CHL1   C27 8249   0.869   1.030   8.293 -0.3002  0.3316  0.0887
   78CHL1  H27A 8250   0.836   1.063   8.394 -3.6424  1.3270 -1.1842
   78CHL1  H27B 8251   0.966   1.080   8.269  1.2922 -1.9568  1.3341
   78CHL1  H27C 8252   0.787   1.069   8.229 -2.5812 -2.6326  1.0146
   79CHL1    C3 8253   4.928   0.141   7.174  0.5163  0.3358  0.0155
   79CHL1    H3 8254   4.862   0.225   7.204  0.5153 -0.3465  2.0716
   79CHL1    O3 8255   4.953   0.140   7.033 -0.2408 -0.1985 -0.1786
   79CHL1   H3' 8256   4.973   0.048   7.015 -0.7287 -0.8191  2.1642
   79CHL1    C4 8257   5.066   0.167   7.248  0.6900 -0.4552  0.0670
   79CHL1   H4A 8258   5.122   0.075   7.217 -0.2663 -1.0544  0.0870
   79CHL1   H4B 8259   5.099   0.264   7.206 -0.6127 -0.0045  0.0648
   79CHL1    C5 8260   5.048   0.180   7.401  0.2387  0.1645  0.2426
   79CHL1    C6 8261   5.089   0.278   7.476  0.7387 -0.4225 -0.2454
   79CHL1    H6 8262   5.140   0.362   7.426 -0.4915 -0.3213 -1.3933
   79CHL1    C7 8263   5.081   0.286   7.627  0.4056  0.2369  1.4809
   79CHL1   H7A 8264   5.180   0.331   7.646 -0.1888  1.5255  1.6184
   79CHL1   H7B 8265   5.003   0.360   7.654 -1.1360 -0.7184 -0.1700
   79CHL1    C8 8266   5.071   0.147   7.689  0.1153 -0.6751 -0.3711
   79CHL1    H8 8267   5.165   0.088   7.679 -0.4907 -1.6886 -0.1882
   79CHL1   C14 8268   5.036   0.156   7.837 -0.1188  0.2802  0.2839
   79CHL1   H14 8269   4.941   0.214   7.843 -1.3736 -1.4378 -1.4486
   79CHL1   C15 8270   5.131   0.237   7.935 -0.7086 -0.6505 -0.0900
   79CHL1  H15A 8271   5.237   0.230   7.902 -0.6669  1.8406 -0.6684
   79CHL1  H15B 8272   5.102   0.345   7.934 -1.5489 -0.8587  0.5034
   79CHL1   C16 8273   5.116   0.171   8.068 -0.6123 -0.7710  0.2463
   79CHL1  H16A 8274   5.211   0.120   8.095 -0.1363 -0.3338 -0.5730
   79CHL1  H16B 8275   5.104   0.255   8.140 -0.5828  0.4551 -1.1342
   79CHL1   C17 8276   4.999   0.062   8.057  0.1399 -0.7082 -0.2765
   79CHL1   H17 8277   4.907   0.124   8.053  2.4716  2.9906 -2.2329
   79CHL1   C13 8278   5.013   0.019   7.907  0.0224  0.4788  0.6796
   79CHL1   C18 8279   5.144  -0.062   7.894 -0.5431  0.9155 -0.1948
   79CHL1  H18A 8280   5.230  -0.022   7.951  0.0462 -0.2751 -0.2164
   79CHL1  H18B 8281   5.135  -0.168   7.926  0.8011 -0.4346 -3.7937
   79CHL1  H18C 8282   5.188  -0.060   7.792 -1.2269  0.7186 -0.5032
   79CHL1   C12 8283   4.893  -0.054   7.836 -0.4968 -0.0945  0.0016
   79CHL1  H12A 8284   4.873  -0.154   7.882  3.9921 -1.0330  0.4562
   79CHL1  H12B 8285   4.804   0.011   7.847  0.1396  0.8610 -0.3704
   79CHL1   C11 8286   4.924  -0.069   7.687 -0.8618  0.1637 -0.1600
   79CHL1  H11A 8287   5.006  -0.144   7.678 -1.2132 -0.5547  2.0540
   79CHL1  H11B 8288   4.836  -0.114   7.636 -1.3007  0.0292  0.7040
   79CHL1    C9 8289   4.962   0.065   7.613 -0.5641 -0.4699  0.1914
   79CHL1    H9 8290   4.873   0.130   7.624 -0.8375 -0.5827 -1.1793
   79CHL1   C10 8291   4.984   0.053   7.459 -0.0377 -0.6220 -0.3159
   79CHL1   C19 8292   5.084  -0.069   7.438  0.7341 -1.1927 -0.9989
   79CHL1  H19A 8293   5.174  -0.047   7.499 -0.4052  2.9391 -0.5265
   79CHL1  H19B 8294   5.045  -0.163   7.484  1.1404 -0.8870  0.0026
   79CHL1  H19C 8295   5.090  -0.091   7.330  0.0324  1.5100 -1.6652
   79CHL1    C1 8296   4.853   0.012   7.384  1.1040  0.2520  0.5316
   79CHL1   H1A 8297   4.820  -0.087   7.420 -4.1145  1.5051 -0.0314
   79CHL1   H1B 8298   4.766   0.075   7.413 -0.7173 -1.7382 -0.2856
   79CHL1    C2 8299   4.867   0.014   7.228 -0.1713  1.1247  0.4527
   79CHL1   H2A 8300   4.768   0.003   7.177  0.7436  1.1388 -1.3945
   79CHL1   H2B 8301   4.936  -0.070   7.204 -1.5932  0.1210 -0.2709
   79CHL1   C20 8302   5.007  -0.038   8.170 -0.6883 -0.3096  0.2149
   79CHL1   H20 8303   5.072  -0.123   8.141 -0.8773 -0.6626  0.7925
   79CHL1   C21 8304   4.872  -0.110   8.182  0.2832 -0.2691  0.4286
   79CHL1  H21A 8305   4.799  -0.036   8.222  1.3698  0.5903  0.8654
   79CHL1  H21B 8306   4.885  -0.191   8.257  0.7885 -1.0521 -0.4842
   79CHL1  H21C 8307   4.832  -0.140   8.083 -0.1406  1.4348  0.0593
   79CHL1   C22 8308   5.060   0.016   8.302 -0.2532 -0.2252 -0.2110
   79CHL1  H22A 8309   5.077  -0.073   8.367 -1.7459 -0.4251 -0.0764
   79CHL1  H22B 8310   5.160   0.060   8.277 -0.8498  0.5010 -1.4214
   79CHL1   C23 8311   4.970   0.109   8.373 -0.2818  0.5771  0.0912
   79CHL1  H23A 8312   4.925   0.186   8.306  1.0314  1.7569  0.5086
   79CHL1  H23B 8313   4.879   0.066   8.419  0.9951  0.2603  2.4933
   79CHL1   C24 8314   5.049   0.185   8.479 -0.1551 -0.2591  0.7228
   79CHL1  H24A 8315   5.100   0.107   8.540 -0.4587 -0.8528  0.2255
   79CHL1  H24B 8316   5.122   0.254   8.432 -1.6551  2.6542  2.3633
   79CHL1   C25 8317   4.956   0.266   8.581  0.1013  0.1217 -0.5062
   79CHL1   H25 8318   4.875   0.318   8.527  0.0004  0.7185  0.1884
   79CHL1   C26 8319   4.883   0.187   8.694  0.8891  0.5014 -0.4587
   79CHL1  H26A 8320   4.833   0.269   8.750  1.7718  1.1665 -0.6405
   79CHL1  H26B 8321   4.800   0.133   8.643 -2.7095  6.0931 -1.3882
   79CHL1  H26C 8322   4.938   0.123   8.766  1.5929 -0.9205 -2.1728
   79CHL1   C27 8323   5.042   0.373   8.646  0.4048 -0.5012  0.4092
   79CHL1  H27A 8324   5.106   0.326   8.723  0.9802  2.5771  1.9733
   79CHL1  H27B 8325   5.107   0.413   8.565  0.6967  0.4358  1.0921
   79CHL1  H27C 8326   4.989   0.463   8.683 -1.0390 -0.6940 -1.0274
   80CHL1    C3 8327   2.281   3.955   7.079  0.4859  0.0075 -0.4755
   80CHL1    H3 8328   2.366   3.886   7.098 -0.1731 -1.2926 -2.0850
   80CHL1    O3 8329   2.275   3.994   6.943 -0.0280 -0.1090 -0.5420
   80CHL1   H3' 8330   2.210   4.063   6.935 -0.3431 -0.3557 -0.1624
   80CHL1    C4 8331   2.154   3.890   7.119  0.3415  0.6341 -0.1331
   80CHL1   H4A 8332   2.067   3.955   7.094 -0.6834  0.0948  1.8381
   80CHL1   H4B 8333   2.140   3.809   7.044 -2.4253  1.8553 -1.0748
   80CHL1    C5 8334   2.157   3.846   7.265 -0.5840  0.3687 -1.0437
   80CHL1    C6 8335   2.142   3.718   7.290  0.2314 -0.3274 -0.1632
   80CHL1    H6 8336   2.129   3.653   7.203 -0.2457  1.7438 -1.7227
   80CHL1    C7 8337   2.132   3.662   7.426 -0.2099  0.4978 -0.4999
   80CHL1   H7A 8338   2.059   3.580   7.444 -0.1457  0.2329 -1.4286
   80CHL1   H7B 8339   2.230   3.612   7.444 -0.9688 -1.1348 -0.6570
   80CHL1    C8 8340   2.134   3.767   7.539  0.1094 -0.1229 -0.5454
   80CHL1    H8 8341   2.027   3.787   7.562  0.8396  1.9497  1.4119
   80CHL1   C14 8342   2.191   3.701   7.666 -0.1798 -0.8591 -0.6756
   80CHL1   H14 8343   2.296   3.673   7.641  0.7854 -0.0904  2.2005
   80CHL1   C15 8344   2.134   3.568   7.713 -0.0556 -0.4484  0.3445
   80CHL1  H15A 8345   2.024   3.554   7.709 -0.2863  0.6315  1.9343
   80CHL1  H15B 8346   2.181   3.485   7.656 -0.0577  0.5994 -1.2587
   80CHL1   C16 8347   2.187   3.565   7.860 -0.5782  0.1894 -0.6951
   80CHL1  H16A 8348   2.094   3.545   7.917 -0.5178  0.7761 -0.3864
   80CHL1  H16B 8349   2.251   3.475   7.877 -3.0329 -1.9345 -1.9683
   80CHL1   C17 8350   2.256   3.699   7.900 -0.8227 -0.0904 -0.0975
   80CHL1   H17 8351   2.365   3.684   7.884 -0.3330 -0.0558  2.6298
   80CHL1   C13 8352   2.201   3.793   7.786  0.3441 -0.0301 -0.0139
   80CHL1   C18 8353   2.060   3.840   7.828 -0.2133 -0.0034  0.0224
   80CHL1  H18A 8354   2.056   3.920   7.905  1.6843 -1.0723  1.3212
   80CHL1  H18B 8355   1.993   3.871   7.745 -2.2058  0.1051  1.5914
   80CHL1  H18C 8356   2.006   3.754   7.873 -0.5341  0.8372  1.3091
   80CHL1   C12 8357   2.278   3.915   7.754 -0.3650  0.4215 -0.5389
   80CHL1  H12A 8358   2.271   3.990   7.835 -1.5796 -1.2954  1.0236
   80CHL1  H12B 8359   2.385   3.886   7.751 -0.4056  0.0912  0.8678
   80CHL1   C11 8360   2.249   3.981   7.616 -0.3698 -0.0991 -0.0144
   80CHL1  H11A 8361   2.161   4.047   7.636 -0.6098 -0.7603  1.2256
   80CHL1  H11B 8362   2.337   4.047   7.602  0.6966 -1.4033  0.4283
   80CHL1    C9 8363   2.227   3.884   7.505 -0.1208  0.0456  0.1556
   80CHL1    H9 8364   2.325   3.835   7.485 -1.2137 -1.9315 -0.7106
   80CHL1   C10 8365   2.190   3.952   7.367  0.0285 -0.1112 -0.6508
   80CHL1   C19 8366   2.064   4.031   7.383  0.4003 -0.0859 -0.3523
   80CHL1  H19A 8367   2.019   4.067   7.287 -2.3373 -0.4723  0.6899
   80CHL1  H19B 8368   1.990   3.973   7.443  0.4347  0.2926  0.0630
   80CHL1  H19C 8369   2.086   4.122   7.444 -0.6816  1.3449 -1.9888
   80CHL1    C1 8370   2.310   4.037   7.317 -0.5631 -0.2207 -0.9395
   80CHL1   H1A 8371   2.308   4.139   7.362  0.1853 -1.2177  1.4886
   80CHL1   H1B 8372   2.399   3.977   7.346 -1.3500 -1.9661 -1.9769
   80CHL1    C2 8373   2.315   4.072   7.169 -0.0552 -0.5300  0.0543
   80CHL1   H2A 8374   2.402   4.131   7.135 -0.8221 -0.3594 -1.7472
   80CHL1   H2B 8375   2.234   4.146   7.153  1.5007  1.0443 -0.8682
   80CHL1   C20 8376   2.240   3.739   8.051  0.6748  0.8264  0.4295
   80CHL1   H20 8377   2.130   3.757   8.056  0.2653 -1.0842 -0.5453
   80CHL1   C21 8378   2.308   3.870   8.099 -0.5659  0.1272  0.2445
   80CHL1  H21A 8379   2.289   3.888   8.207 -0.7986 -1.3637  0.4806
   80CHL1  H21B 8380   2.275   3.962   8.046 -1.5907  0.9288  2.1921
   80CHL1  H21C 8381   2.419   3.869   8.103 -0.3977  0.8412 -2.3718
   80CHL1   C22 8382   2.286   3.628   8.146 -0.1626 -0.0303 -0.1434
   80CHL1  H22A 8383   2.286   3.672   8.248 -3.6230 -0.1726  0.0308
   80CHL1  H22B 8384   2.207   3.551   8.138 -0.3553 -0.0463  1.5689
   80CHL1   C23 8385   2.418   3.564   8.115 -0.7859 -0.1558 -0.2033
   80CHL1  H23A 8386   2.413   3.488   8.034  1.5831 -1.3849  0.7165
   80CHL1  H23B 8387   2.494   3.639   8.084 -0.8065  1.3393  2.9624
   80CHL1   C24 8388   2.475   3.502   8.247 -0.5439 -0.7320  1.1300
   80CHL1  H24A 8389   2.488   3.582   8.323 -0.3737 -0.0372  0.3826
   80CHL1  H24B 8390   2.391   3.440   8.286 -1.5732 -1.5881 -2.1544
   80CHL1   C25 8391   2.614   3.427   8.244 -0.3068 -0.3375 -0.5980
   80CHL1   H25 8392   2.707   3.487   8.235 -0.5077  0.1891  0.6123
   80CHL1   C26 8393   2.614   3.358   8.380  0.4576 -0.2668 -0.0391
   80CHL1  H26A 8394   2.613   3.433   8.462  2.0123 -0.7775  0.4669
   80CHL1  H26B 8395   2.523   3.296   8.396  0.1454  0.0481 -0.5605
   80CHL1  H26C 8396   2.693   3.281   8.391 -0.4160 -1.5689 -2.2338
   80CHL1   C27 8397   2.616   3.320   8.137 -0.1931 -0.2977  0.1480
   80CHL1  H27A 8398   2.548   3.241   8.176  0.0899 -1.9912 -2.5659
   80CHL1  H27B 8399   2.577   3.349   8.037  0.4464 -2.3657 -0.7479
   80CHL1  H27C 8400   2.720   3.286   8.118  1.3285  3.4843  0.6762
   81CHL1    C3 8401   6.176   3.318   6.813 -0.1953 -0.2929 -0.5156
   81CHL1    H3 8402   6.280   3.354   6.800  0.0809 -0.0022  2.0837
   81CHL1    O3 8403   6.114   3.311   6.684  0.4645 -0.0596 -0.4970
   81CHL1   H3' 8404   6.113   3.403   6.657 -0.1240  1.4081  3.7539
   81CHL1    C4 8405   6.196   3.174   6.861  0.4609 -0.0981 -0.6327
   81CHL1   H4A 8406   6.092   3.134   6.868  1.0715 -1.8880 -1.3255
   81CHL1   H4B 8407   6.236   3.104   6.785 -0.8654  0.1197 -1.5631
   81CHL1    C5 8408   6.275   3.181   6.992 -0.0460  0.7117 -0.1255
   81CHL1    C6 8409   6.394   3.122   7.014 -0.2554  0.5924  0.7236
   81CHL1    H6 8410   6.447   3.075   6.930 -1.0209 -0.8282  1.0113
   81CHL1    C7 8411   6.459   3.109   7.144 -0.3561 -0.0785 -0.2070
   81CHL1   H7A 8412   6.516   3.014   7.151  0.9715  0.6455 -0.6872
   81CHL1   H7B 8413   6.546   3.179   7.150  1.1087 -1.8979  0.7115
   81CHL1    C8 8414   6.365   3.137   7.266  0.2909 -0.4756 -0.2480
   81CHL1    H8 8415   6.299   3.047   7.271  0.1886 -0.3554  0.6436
   81CHL1   C14 8416   6.443   3.169   7.396  0.5725  0.1812  0.3590
   81CHL1   H14 8417   6.506   3.259   7.374  1.0974 -0.6996 -2.0970
   81CHL1   C15 8418   6.550   3.059   7.427  0.7017  0.0422 -0.0023
   81CHL1  H15A 8419   6.499   2.961   7.409  0.9461 -0.0155 -0.4031
   81CHL1  H15B 8420   6.646   3.057   7.371  2.1131 -0.4737  2.3457
   81CHL1   C16 8421   6.579   3.073   7.586  0.0371 -0.1168  0.4971
   81CHL1  H16A 8422   6.555   2.972   7.626 -2.1804  0.3899  0.5500
   81CHL1  H16B 8423   6.689   3.089   7.589  0.1906 -0.8810 -0.5160
   81CHL1   C17 8424   6.479   3.186   7.628  0.1217  0.5787  0.8978
   81CHL1   H17 8425   6.529   3.285   7.623  1.2239  0.1436  2.4679
   81CHL1   C13 8426   6.359   3.187   7.519  0.2842 -0.0786 -0.0292
   81CHL1   C18 8427   6.270   3.068   7.537 -0.5931 -0.2388 -0.2606
   81CHL1  H18A 8428   6.214   3.089   7.630  1.4294  2.7996  0.4202
   81CHL1  H18B 8429   6.191   3.060   7.460  0.3112 -1.8492 -1.0985
   81CHL1  H18C 8430   6.319   2.968   7.539 -1.1578 -0.5132  0.0525
   81CHL1   C12 8431   6.296   3.317   7.495  0.8229  0.4077 -0.0563
   81CHL1  H12A 8432   6.225   3.340   7.577  0.1233 -2.2842  0.1771
   81CHL1  H12B 8433   6.363   3.404   7.479  0.5614  0.2170 -2.5460
   81CHL1   C11 8434   6.213   3.322   7.367  0.1993  0.3960  0.3161
   81CHL1  H11A 8435   6.122   3.258   7.376  0.4159 -0.1075 -0.8703
   81CHL1  H11B 8436   6.176   3.425   7.348  1.0646  0.6081 -0.2463
   81CHL1    C9 8437   6.286   3.262   7.240  0.8497  0.2987 -0.1007
   81CHL1    H9 8438   6.354   3.345   7.212  0.5013  1.0621  1.2496
   81CHL1   C10 8439   6.201   3.251   7.111 -0.3282 -0.1304  0.1619
   81CHL1   C19 8440   6.065   3.173   7.140 -0.1991 -0.2645  0.5409
   81CHL1  H19A 8441   5.991   3.240   7.188  0.1345  2.0786 -1.9584
   81CHL1  H19B 8442   6.009   3.156   7.046 -0.1032 -0.2225  0.4759
   81CHL1  H19C 8443   6.085   3.078   7.194 -1.2015 -1.8413 -1.7186
   81CHL1    C1 8444   6.164   3.393   7.062  0.3848  0.1459  0.1567
   81CHL1   H1A 8445   6.094   3.441   7.134 -2.2754 -1.5281 -1.1659
   81CHL1   H1B 8446   6.250   3.461   7.041  0.4959 -0.5098 -1.6535
   81CHL1    C2 8447   6.096   3.398   6.920  1.0097  0.1599  0.1238
   81CHL1   H2A 8448   6.081   3.505   6.895 -1.0803 -0.1940 -0.2363
   81CHL1   H2B 8449   6.000   3.344   6.934  1.3180  0.1595  2.8467
   81CHL1   C20 8450   6.437   3.179   7.776 -0.6943  0.1528 -0.1983
   81CHL1   H20 8451   6.403   3.076   7.800 -1.1001  0.1128 -0.9349
   81CHL1   C21 8452   6.324   3.270   7.817 -0.3985  0.2986  0.3712
   81CHL1  H21A 8453   6.230   3.244   7.763 -1.9197 -0.2043  3.0863
   81CHL1  H21B 8454   6.345   3.379   7.814 -0.9361  0.5026  2.5869
   81CHL1  H21C 8455   6.303   3.250   7.924 -0.8755  1.4542  0.4986
   81CHL1   C22 8456   6.563   3.206   7.868 -0.0081  0.0347  0.0196
   81CHL1  H22A 8457   6.648   3.146   7.830 -0.0490  0.9964 -1.7358
   81CHL1  H22B 8458   6.599   3.309   7.847 -0.6865 -0.1084 -2.1684
   81CHL1   C23 8459   6.549   3.194   8.020  0.0946  0.1669  0.0080
   81CHL1  H23A 8460   6.479   3.267   8.065 -0.1723 -0.0470 -0.0492
   81CHL1  H23B 8461   6.500   3.098   8.049  1.2438 -0.3983  0.1532
   81CHL1   C24 8462   6.687   3.209   8.095 -0.4379 -0.6627 -0.0724
   81CHL1  H24A 8463   6.739   3.112   8.077 -0.5896 -0.7605  0.0145
   81CHL1  H24B 8464   6.746   3.291   8.049  1.5504 -1.3998  1.0569
   81CHL1   C25 8465   6.683   3.239   8.245  0.1113 -0.8676  0.3400
   81CHL1   H25 8466   6.611   3.322   8.260  1.9574  0.5383  2.0588
   81CHL1   C26 8467   6.630   3.111   8.316 -0.0010  0.0628  0.2046
   81CHL1  H26A 8468   6.521   3.111   8.292 -0.1861  2.1376  0.8661
   81CHL1  H26B 8469   6.683   3.023   8.274 -0.9717 -0.5095  0.1622
   81CHL1  H26C 8470   6.610   3.119   8.425 -3.9781 -2.1047 -0.1802
   81CHL1   C27 8471   6.820   3.277   8.292  0.4347  0.3220  0.2025
   81CHL1  H27A 8472   6.821   3.301   8.401  0.9292 -2.0554  0.7735
   81CHL1  H27B 8473   6.892   3.195   8.270 -0.9832 -0.5973 -1.1300
   81CHL1  H27C 8474   6.857   3.369   8.242  1.6181  0.0502  0.5433
   82CHL1    C3 8475   6.241   5.038   6.977  0.4002  0.4674 -0.1364
   82CHL1    H3 8476   6.150   5.032   7.040 -0.9601  0.5550 -1.9958
   82CHL1    O3 8477   6.198   5.046   6.839 -0.7163 -0.2671 -0.4977
   82CHL1   H3' 8478   6.276   5.063   6.786  0.1356  1.2726  1.1240
   82CHL1    C4 8479   6.324   5.158   6.996 -0.2772 -0.4984  0.3597
   82CHL1   H4A 8480   6.416   5.146   6.933 -2.0045 -2.6702 -1.9906
   82CHL1   H4B 8481   6.277   5.247   6.950  2.8396  1.1669  0.0735
   82CHL1    C5 8482   6.361   5.167   7.143 -0.3681  0.0428 -0.1006
   82CHL1    C6 8483   6.321   5.271   7.217  0.2590  0.2225 -0.1257
   82CHL1    H6 8484   6.274   5.353   7.161 -0.5618 -0.8681 -1.0664
   82CHL1    C7 8485   6.348   5.279   7.366  0.1994  0.3281 -0.6103
   82CHL1   H7A 8486   6.355   5.385   7.398 -0.9822 -0.3463  2.2019
   82CHL1   H7B 8487   6.258   5.242   7.421  0.0413  1.3941 -0.1192
   82CHL1    C8 8488   6.471   5.204   7.405  0.1616  0.0847 -0.2381
   82CHL1    H8 8489   6.550   5.266   7.358  0.4589  1.9825  2.5818
   82CHL1   C14 8490   6.491   5.202   7.557  0.3005  0.0623 -0.2438
   82CHL1   H14 8491   6.397   5.155   7.593 -0.7857  3.4383  1.8218
   82CHL1   C15 8492   6.473   5.339   7.632 -0.3037 -0.5737 -0.5482
   82CHL1  H15A 8493   6.546   5.407   7.583  1.1352 -1.0967  0.7757
   82CHL1  H15B 8494   6.370   5.380   7.642  0.3185  1.2130 -1.0595
   82CHL1   C16 8495   6.521   5.305   7.774 -0.0649 -0.0952 -0.1092
   82CHL1  H16A 8496   6.580   5.386   7.823 -0.3526  0.4802 -0.6911
   82CHL1  H16B 8497   6.434   5.274   7.835  1.2641 -2.7863  0.5725
   82CHL1   C17 8498   6.604   5.163   7.758  0.1738 -0.4726 -0.5813
   82CHL1   H17 8499   6.539   5.078   7.788  2.8561 -2.7522 -0.9324
   82CHL1   C13 8500   6.619   5.135   7.612 -0.2984 -0.8719  0.0686
   82CHL1   C18 8501   6.749   5.201   7.547 -0.2733 -0.6053  0.3872
   82CHL1  H18A 8502   6.765   5.188   7.438 -0.7683  1.2703  0.0595
   82CHL1  H18B 8503   6.755   5.309   7.570  3.1969 -0.5828 -0.0544
   82CHL1  H18C 8504   6.833   5.157   7.604  0.2148  2.2802  2.0764
   82CHL1   C12 8505   6.597   4.985   7.574 -0.2430 -0.4601  0.2313
   82CHL1  H12A 8506   6.670   4.908   7.607 -0.8604 -0.8807  0.6324
   82CHL1  H12B 8507   6.494   4.956   7.604 -1.4997  2.7514 -0.5864
   82CHL1   C11 8508   6.586   4.969   7.417 -0.1509 -0.4733  0.0594
   82CHL1  H11A 8509   6.686   4.992   7.376 -0.6001 -0.8206 -1.2696
   82CHL1  H11B 8510   6.557   4.867   7.383  0.4554  0.5511 -4.0597
   82CHL1    C9 8511   6.464   5.060   7.356 -0.0167  0.1302  0.1153
   82CHL1    H9 8512   6.374   5.022   7.409 -0.6782  0.9269 -0.4162
   82CHL1   C10 8513   6.440   5.049   7.201  0.4832 -0.1277  0.3664
   82CHL1   C19 8514   6.585   5.065   7.140  0.1013 -0.3007  0.1899
   82CHL1  H19A 8515   6.570   5.079   7.031  0.2578 -0.2242  0.1770
   82CHL1  H19B 8516   6.640   5.158   7.167  0.6191  0.0631 -1.8953
   82CHL1  H19C 8517   6.642   4.973   7.166  0.5302  0.1289  0.7981
   82CHL1    C1 8518   6.366   4.917   7.158 -0.9495 -0.0379  0.2685
   82CHL1   H1A 8519   6.436   4.834   7.180  0.2070  0.8099 -0.1441
   82CHL1   H1B 8520   6.278   4.901   7.225 -2.5309  2.2593 -1.0959
   82CHL1    C2 8521   6.332   4.917   7.005 -0.0841  0.1374 -0.1597
   82CHL1   H2A 8522   6.274   4.829   6.970 -2.5204  1.7530 -0.4315
   82CHL1   H2B 8523   6.423   4.921   6.942  0.0940 -3.0590 -0.2351
   82CHL1   C20 8524   6.724   5.158   7.860  0.1955 -0.1981  0.6829
   82CHL1   H20 8525   6.787   5.244   7.830 -0.5252 -0.1637 -0.8074
   82CHL1   C21 8526   6.799   5.025   7.845 -0.6468 -0.1136 -0.4658
   82CHL1  H21A 8527   6.861   5.005   7.935 -1.5368  0.4953  0.3000
   82CHL1  H21B 8528   6.882   5.028   7.772  0.8582  1.6698  1.2276
   82CHL1  H21C 8529   6.722   4.944   7.851 -2.2842  1.5022  3.1582
   82CHL1   C22 8530   6.678   5.186   8.006  0.4052 -0.3318 -0.4884
   82CHL1  H22A 8531   6.601   5.265   8.015  0.8049 -0.1322  2.4784
   82CHL1  H22B 8532   6.621   5.103   8.054  1.2911 -0.9596 -0.4964
   82CHL1   C23 8533   6.795   5.220   8.107  0.2765 -0.6228 -0.0359
   82CHL1  H23A 8534   6.757   5.196   8.208  1.4288 -2.9770 -0.0933
   82CHL1  H23B 8535   6.879   5.153   8.078 -1.0894 -2.2858 -0.3101
   82CHL1   C24 8536   6.836   5.370   8.110  0.1475  0.5355  0.3231
   82CHL1  H24A 8537   6.861   5.395   8.005  1.4423  0.7909  0.6832
   82CHL1  H24B 8538   6.742   5.429   8.122 -0.4654 -0.6400  1.5206
   82CHL1   C25 8539   6.947   5.402   8.217 -0.0334 -0.2999  0.3926
   82CHL1   H25 8540   7.002   5.305   8.209 -1.2160 -0.9963  0.5384
   82CHL1   C26 8541   7.042   5.516   8.170  0.7859 -0.4506  0.0677
   82CHL1  H26A 8542   6.988   5.608   8.141 -0.3134 -0.6329  1.4560
   82CHL1  H26B 8543   7.133   5.520   8.234  0.2300 -1.0197  0.9052
   82CHL1  H26C 8544   7.074   5.473   8.072  1.4252 -0.9496  0.4875
   82CHL1   C27 8545   6.887   5.434   8.350 -0.0967 -0.0228 -0.1249
   82CHL1  H27A 8546   6.969   5.455   8.422  1.6564 -2.4950 -1.2535
   82CHL1  H27B 8547   6.828   5.528   8.343  1.0440  0.6244 -1.8258
   82CHL1  H27C 8548   6.820   5.353   8.385 -2.7971  1.2192 -2.0559
   83CHL1    C3 8549   5.677   6.310   6.901 -0.1128  0.7119 -0.0791
   83CHL1    H3 8550   5.749   6.266   6.973  2.1263 -0.0582 -2.6057
   83CHL1    O3 8551   5.727   6.298   6.773  1.3694 -0.1094 -0.4473
   83CHL1   H3' 8552   5.681   6.372   6.731  0.0163 -0.5781  0.1668
   83CHL1    C4 8553   5.542   6.242   6.916  0.0611  0.0016  0.4794
   83CHL1   H4A 8554   5.465   6.300   6.862  0.4175 -0.5990 -0.7070
   83CHL1   H4B 8555   5.550   6.138   6.878  0.8122  0.3492 -0.3693
   83CHL1    C5 8556   5.502   6.256   7.057  0.0570  0.2041 -0.9671
   83CHL1    C6 8557   5.490   6.143   7.133 -0.8936  0.0744 -0.5181
   83CHL1    H6 8558   5.508   6.044   7.089 -0.4168 -0.2615  0.4115
   83CHL1    C7 8559   5.432   6.137   7.269  0.4294  0.4489 -0.6681
   83CHL1   H7A 8560   5.348   6.065   7.274  0.4933  0.3745 -0.6700
   83CHL1   H7B 8561   5.509   6.104   7.342  3.5333  3.8783 -2.0423
   83CHL1    C8 8562   5.388   6.263   7.332  0.3347 -0.2794  0.9190
   83CHL1    H8 8563   5.283   6.282   7.299  0.8149 -0.8841 -1.1032
   83CHL1   C14 8564   5.387   6.258   7.479 -0.0858 -0.6700  0.3147
   83CHL1   H14 8565   5.494   6.257   7.511  0.0725  0.9102 -0.0726
   83CHL1   C15 8566   5.330   6.141   7.556  0.1003 -0.0119 -0.3959
   83CHL1  H15A 8567   5.232   6.112   7.512  0.3692 -0.3932 -0.7552
   83CHL1  H15B 8568   5.401   6.055   7.558  0.0704 -0.0489 -0.7525
   83CHL1   C16 8569   5.295   6.192   7.700 -0.4106  0.0876 -0.3859
   83CHL1  H16A 8570   5.185   6.186   7.717 -0.5062 -1.4594 -1.4172
   83CHL1  H16B 8571   5.363   6.134   7.767 -0.6315 -1.4100 -1.4182
   83CHL1   C17 8572   5.352   6.338   7.700 -0.6116 -0.1960  0.4415
   83CHL1   H17 8573   5.461   6.327   7.720 -0.3760  0.2598 -0.5302
   83CHL1   C13 8574   5.341   6.387   7.550  0.7216  0.3626 -0.9888
   83CHL1   C18 8575   5.197   6.426   7.520  0.7193 -0.9514 -0.3310
   83CHL1  H18A 8576   5.178   6.458   7.415 -1.0469  1.2791  0.5890
   83CHL1  H18B 8577   5.130   6.342   7.548  1.8601 -1.5735  0.6105
   83CHL1  H18C 8578   5.180   6.520   7.577 -0.4380 -1.7506  0.6797
   83CHL1   C12 8579   5.432   6.502   7.506 -0.4624 -0.6139  0.3299
   83CHL1  H12A 8580   5.390   6.601   7.533  0.8273  0.1340 -0.2952
   83CHL1  H12B 8581   5.536   6.484   7.540  0.7451 -0.1468 -2.7535
   83CHL1   C11 8582   5.449   6.512   7.356 -0.4789 -0.6947  0.1478
   83CHL1  H11A 8583   5.350   6.555   7.327  0.7937  2.4927  0.1711
   83CHL1  H11B 8584   5.528   6.583   7.323 -1.9645  2.1530  2.2488
   83CHL1    C9 8585   5.476   6.381   7.282 -0.0879 -0.3314 -0.3917
   83CHL1    H9 8586   5.580   6.349   7.305 -0.0443 -0.8497 -1.2597
   83CHL1   C10 8587   5.489   6.390   7.128 -0.4178  0.6127  0.3554
   83CHL1   C19 8588   5.363   6.456   7.078  1.1959 -0.3016  0.2489
   83CHL1  H19A 8589   5.363   6.566   7.097 -0.3396 -0.1703 -0.4076
   83CHL1  H19B 8590   5.372   6.450   6.968 -0.2551 -1.9558  0.1854
   83CHL1  H19C 8591   5.264   6.422   7.114 -0.2214  0.1135 -2.9411
   83CHL1    C1 8592   5.614   6.471   7.083  1.0960  0.2460 -0.2205
   83CHL1   H1A 8593   5.600   6.575   7.119  1.1047 -0.2076  1.1575
   83CHL1   H1B 8594   5.697   6.437   7.149 -0.4110 -0.1189  1.5509
   83CHL1    C2 8595   5.665   6.453   6.941 -0.5736 -0.3553 -0.1704
   83CHL1   H2A 8596   5.756   6.509   6.912 -1.1701 -0.2671 -2.0209
   83CHL1   H2B 8597   5.584   6.512   6.892  0.3886  1.2306  0.0626
   83CHL1   C20 8598   5.292   6.433   7.811  0.0737 -0.5609  0.0550
   83CHL1   H20 8599   5.187   6.461   7.786 -0.4630 -0.5611  2.1234
   83CHL1   C21 8600   5.381   6.562   7.832 -0.7358  0.4771 -0.2498
   83CHL1  H21A 8601   5.490   6.539   7.825 -0.4555  0.5945  2.5414
   83CHL1  H21B 8602   5.365   6.598   7.936 -1.5269  0.0351 -0.2170
   83CHL1  H21C 8603   5.354   6.636   7.753 -3.1110  0.5191  0.5283
   83CHL1   C22 8604   5.282   6.353   7.938  0.6533  0.4326 -0.4852
   83CHL1  H22A 8605   5.226   6.260   7.918  3.8282 -1.6173 -0.5529
   83CHL1  H22B 8606   5.381   6.326   7.980 -0.0303 -0.9590  0.3120
   83CHL1   C23 8607   5.209   6.402   8.064  0.0544  0.0856  0.3365
   83CHL1  H23A 8608   5.271   6.479   8.115 -0.4012  1.0294 -0.4857
   83CHL1  H23B 8609   5.108   6.445   8.047 -1.4929 -2.6790  1.8652
   83CHL1   C24 8610   5.173   6.300   8.170 -0.4129  0.4892 -0.2894
   83CHL1  H24A 8611   5.118   6.213   8.127 -0.5631  0.9228 -0.9799
   83CHL1  H24B 8612   5.264   6.257   8.218 -1.7811 -1.0175  1.1215
   83CHL1   C25 8613   5.086   6.358   8.280  0.1935  0.2421 -0.0016
   83CHL1   H25 8614   5.129   6.459   8.298 -0.4982  0.1569  2.4904
   83CHL1   C26 8615   4.935   6.380   8.245  0.3023 -0.1916  0.2784
   83CHL1  H26A 8616   4.885   6.290   8.205 -3.7886  1.7280  0.6334
   83CHL1  H26B 8617   4.884   6.402   8.340  0.7903  0.6606  0.3578
   83CHL1  H26C 8618   4.933   6.460   8.167 -0.7705 -0.1712  0.3138
   83CHL1   C27 8619   5.094   6.270   8.408 -0.1315 -0.3604  0.2461
   83CHL1  H27A 8620   5.204   6.269   8.425  0.2742  0.2058 -2.0437
   83CHL1  H27B 8621   5.044   6.325   8.491 -2.9146  0.1395 -1.6097
   83CHL1  H27C 8622   5.046   6.171   8.394 -0.5587 -0.1227  0.0197
   84CHL1    C3 8623   6.643   2.715   7.015 -0.1948 -0.5554 -0.3696
   84CHL1    H3 8624   6.688   2.816   7.019 -0.9269 -0.2441  0.8584
   84CHL1    O3 8625   6.593   2.676   6.886  0.4806  0.5236 -0.1199
   84CHL1   H3' 8626   6.531   2.747   6.866  0.8471  1.9047  3.1278
   84CHL1    C4 8627   6.743   2.608   7.072  0.1447  0.2752 -0.1572
   84CHL1   H4A 8628   6.711   2.503   7.059 -0.9087  0.5783 -0.1425
   84CHL1   H4B 8629   6.836   2.625   7.015  0.3135  1.0078  0.3105
   84CHL1    C5 8630   6.770   2.620   7.220 -0.2086 -0.1536 -0.3717
   84CHL1    C6 8631   6.893   2.635   7.266  0.2930  0.0957  0.2553
   84CHL1    H6 8632   6.977   2.620   7.196 -0.5806 -1.8640 -0.4657
   84CHL1    C7 8633   6.921   2.621   7.412 -0.2454  0.0851  0.1563
   84CHL1   H7A 8634   6.993   2.540   7.437 -0.7237  0.1584  1.8767
   84CHL1   H7B 8635   6.970   2.718   7.434  0.6767 -0.9423  3.1630
   84CHL1    C8 8636   6.803   2.589   7.511  0.5602  0.0800 -0.6079
   84CHL1    H8 8637   6.783   2.481   7.521  0.4624  0.1041 -0.5405
   84CHL1   C14 8638   6.830   2.647   7.649  0.3914  0.5079  0.5153
   84CHL1   H14 8639   6.825   2.756   7.634 -1.9617  0.2148 -1.4161
   84CHL1   C15 8640   6.963   2.618   7.708 -0.7488 -0.1362 -0.6346
   84CHL1  H15A 8641   6.986   2.509   7.702 -1.1167 -0.2306 -0.3604
   84CHL1  H15B 8642   7.045   2.672   7.657 -0.6391  1.8098  1.4344
   84CHL1   C16 8643   6.949   2.654   7.852 -0.5112 -1.0961 -0.1883
   84CHL1  H16A 8644   6.993   2.572   7.912  0.6929 -1.7838 -1.8974
   84CHL1  H16B 8645   7.006   2.746   7.878 -1.3078 -0.7234  0.2366
   84CHL1   C17 8646   6.800   2.676   7.878  1.0079  0.4618 -0.4204
   84CHL1   H17 8647   6.792   2.787   7.872  0.9363  0.3836 -2.3647
   84CHL1   C13 8648   6.724   2.617   7.757  0.2734 -0.8140 -0.0691
   84CHL1   C18 8649   6.700   2.463   7.777 -0.2553 -0.5494 -0.8460
   84CHL1  H18A 8650   6.679   2.413   7.680  1.9352  2.0296 -2.7835
   84CHL1  H18B 8651   6.787   2.416   7.827  0.9233 -0.0107 -2.3346
   84CHL1  H18C 8652   6.621   2.442   7.852 -0.2442 -2.7087 -1.3849
   84CHL1   C12 8653   6.591   2.682   7.712 -0.3031  0.0485 -0.5112
   84CHL1  H12A 8654   6.506   2.664   7.782 -1.8540  0.7222 -2.1409
   84CHL1  H12B 8655   6.619   2.790   7.716  0.9085 -0.2811  0.3912
   84CHL1   C11 8656   6.552   2.643   7.570 -0.5231  0.1135  0.5624
   84CHL1  H11A 8657   6.530   2.534   7.567 -1.3437  0.2822 -1.9485
   84CHL1  H11B 8658   6.460   2.696   7.536  0.8074  2.3283  0.2369
   84CHL1    C9 8659   6.675   2.649   7.464 -0.0740 -1.0657 -0.2090
   84CHL1    H9 8660   6.702   2.756   7.453 -1.1394 -0.7964 -0.2568
   84CHL1   C10 8661   6.643   2.612   7.316 -0.3755  0.8608 -0.0249
   84CHL1   C19 8662   6.588   2.470   7.319  0.3316  0.2847  0.6513
   84CHL1  H19A 8663   6.650   2.391   7.366  0.0036 -1.3487 -1.4718
   84CHL1  H19B 8664   6.489   2.466   7.369  0.0955 -2.0587  0.1024
   84CHL1  H19C 8665   6.577   2.435   7.214  1.6169  0.9748  0.2633
   84CHL1    C1 8666   6.549   2.723   7.262 -1.1227 -0.0572 -0.1578
   84CHL1   H1A 8667   6.456   2.731   7.321 -1.6317  1.5348 -1.1189
   84CHL1   H1B 8668   6.605   2.819   7.268  0.1263 -0.8711  3.9451
   84CHL1    C2 8669   6.523   2.714   7.109  0.3335 -0.7835  0.0353
   84CHL1   H2A 8670   6.442   2.786   7.084  1.8302  0.9297 -0.0608
   84CHL1   H2B 8671   6.487   2.610   7.093 -0.2000 -0.8495  1.5011
   84CHL1   C20 8672   6.749   2.635   8.021  0.3306 -0.5730 -0.4729
   84CHL1   H20 8673   6.773   2.527   8.028  2.2497 -0.0994  1.0728
   84CHL1   C21 8674   6.597   2.667   8.040  0.1656  0.3227  0.1089
   84CHL1  H21A 8675   6.580   2.774   8.019  1.6058  0.3623 -1.0362
   84CHL1  H21B 8676   6.559   2.645   8.142 -1.6974  0.9547 -0.4187
   84CHL1  H21C 8677   6.525   2.607   7.981 -1.4190  1.7042  0.5578
   84CHL1   C22 8678   6.832   2.711   8.129 -0.4225 -0.0421 -0.1795
   84CHL1  H22A 8679   6.941   2.713   8.110 -0.2975 -0.6652  0.3895
   84CHL1  H22B 8680   6.804   2.818   8.126  0.1190  0.1811  1.5788
   84CHL1   C23 8681   6.825   2.662   8.271 -0.7958 -0.2547 -1.1127
   84CHL1  H23A 8682   6.720   2.659   8.307  0.4995 -1.7403  3.1378
   84CHL1  H23B 8683   6.869   2.561   8.283 -1.3162 -0.5694 -1.8013
   84CHL1   C24 8684   6.925   2.739   8.365 -0.0580  0.1568 -0.2767
   84CHL1  H24A 8685   7.029   2.721   8.329  0.0028  0.4483 -0.2492
   84CHL1  H24B 8686   6.888   2.842   8.348 -2.5434 -0.2500  2.0096
   84CHL1   C25 8687   6.902   2.700   8.513 -0.0755 -0.1992  0.3545
   84CHL1   H25 8688   6.791   2.704   8.520 -0.1832 -1.4570 -0.3426
   84CHL1   C26 8689   6.958   2.559   8.550  0.7209 -0.3632  0.0961
   84CHL1  H26A 8690   7.064   2.547   8.519  0.5942  1.9029 -1.4507
   84CHL1  H26B 8691   6.933   2.548   8.658 -0.5811 -1.3276 -0.2724
   84CHL1  H26C 8692   6.893   2.484   8.499 -2.8040  2.5083 -0.0662
   84CHL1   C27 8693   6.961   2.811   8.608  0.9804  1.0789 -0.6644
   84CHL1  H27A 8694   6.913   2.909   8.587  0.4413  1.0038  0.1660
   84CHL1  H27B 8695   6.936   2.782   8.713 -1.6506  1.3804 -1.1241
   84CHL1  H27C 8696   7.071   2.814   8.598  0.9211  2.7040 -1.0129
   85CHL1    C3 8697   6.388   0.089   6.864 -0.3411  0.4963  0.2832
   85CHL1    H3 8698   6.288   0.043   6.879  0.4936 -1.1665  0.9799
   85CHL1    O3 8699   6.405   0.092   6.728 -0.2832  0.4620  0.1419
   85CHL1   H3' 8700   6.488   0.141   6.728  0.0148 -0.0454 -0.2444
   85CHL1    C4 8701   6.370   0.234   6.926  0.1479  0.1912  0.2732
   85CHL1   H4A 8702   6.464   0.291   6.913  0.3073 -0.1255  0.0152
   85CHL1   H4B 8703   6.293   0.284   6.864  1.8394  0.7415 -1.4624
   85CHL1    C5 8704   6.340   0.224   7.073 -0.4064  0.2733 -0.6887
   85CHL1    C6 8705   6.224   0.266   7.119 -0.7791 -1.1410  0.4853
   85CHL1    H6 8706   6.162   0.321   7.047  1.2628  0.9396  0.2079
   85CHL1    C7 8707   6.188   0.262   7.263  0.1080  0.0100  0.3797
   85CHL1   H7A 8708   6.154   0.363   7.293  1.9841 -0.1698  3.5051
   85CHL1   H7B 8709   6.110   0.186   7.288 -0.3396  0.2252 -0.3281
   85CHL1    C8 8710   6.304   0.214   7.353 -1.5593  0.2184  0.1253
   85CHL1    H8 8711   6.387   0.283   7.377  0.3291 -2.3825  1.5440
   85CHL1   C14 8712   6.244   0.166   7.482 -0.1295  0.3679  1.0980
   85CHL1   H14 8713   6.179   0.083   7.446 -0.8813  1.8654 -1.2881
   85CHL1   C15 8714   6.144   0.254   7.551  0.2045  0.0496 -0.0942
   85CHL1  H15A 8715   6.183   0.357   7.563  3.3963 -1.1654  1.1352
   85CHL1  H15B 8716   6.055   0.258   7.484  0.4906 -2.2604 -0.7052
   85CHL1   C16 8717   6.120   0.176   7.687  0.0198  0.2059  0.8770
   85CHL1  H16A 8718   6.146   0.239   7.775 -0.8880  1.7044  0.1031
   85CHL1  H16B 8719   6.016   0.141   7.702 -0.9862  1.4583 -2.4069
   85CHL1   C17 8720   6.230   0.070   7.696 -0.8042  0.2040 -0.1854
   85CHL1   H17 8721   6.178  -0.026   7.675 -0.8983 -0.1979  1.6413
   85CHL1   C13 8722   6.332   0.107   7.590  0.1215 -0.2354  0.8639
   85CHL1   C18 8723   6.424   0.220   7.649  0.5099  0.6627  0.3587
   85CHL1  H18A 8724   6.485   0.248   7.560  0.8366 -0.6003  0.1682
   85CHL1  H18B 8725   6.360   0.296   7.698  0.6056 -0.5610  2.4717
   85CHL1  H18C 8726   6.481   0.169   7.729  1.1225  2.9567  1.4546
   85CHL1   C12 8727   6.415  -0.006   7.530  0.4667  0.0104 -0.3920
   85CHL1  H12A 8728   6.485  -0.044   7.607 -0.4917 -0.6463  0.1886
   85CHL1  H12B 8729   6.350  -0.093   7.505  1.3919 -2.1450  3.8437
   85CHL1   C11 8730   6.482   0.036   7.399  0.0952 -0.1488  0.3382
   85CHL1  H11A 8731   6.564   0.108   7.424 -1.0607  0.9536  1.0735
   85CHL1  H11B 8732   6.529  -0.055   7.355  1.2976  0.1315  0.9889
   85CHL1    C9 8733   6.379   0.100   7.290  0.6240  0.3268  0.5826
   85CHL1    H9 8734   6.305   0.019   7.273  0.7691  0.1993  0.5550
   85CHL1   C10 8735   6.441   0.137   7.157 -0.0982  0.2058  0.3260
   85CHL1   C19 8736   6.572   0.222   7.179  0.4915  0.0728 -0.2378
   85CHL1  H19A 8737   6.646   0.173   7.246  1.6138 -1.1127 -2.2473
   85CHL1  H19B 8738   6.629   0.245   7.087  3.2040 -1.9708  0.8045
   85CHL1  H19C 8739   6.556   0.327   7.213  0.3161  0.8962 -2.6979
   85CHL1    C1 8740   6.480   0.002   7.086 -0.3955 -0.0870  0.4184
   85CHL1   H1A 8741   6.573  -0.040   7.130  0.9407  2.8841  0.7061
   85CHL1   H1B 8742   6.401  -0.073   7.107  0.1446 -0.5067  1.0024
   85CHL1    C2 8743   6.501   0.009   6.937 -0.2245  0.3991  0.7151
   85CHL1   H2A 8744   6.504  -0.093   6.893  0.5395  1.4928 -1.9699
   85CHL1   H2B 8745   6.595   0.057   6.905 -1.7869  2.2629 -1.4174
   85CHL1   C20 8746   6.271   0.041   7.849  0.3735 -0.2806  0.9333
   85CHL1   H20 8747   6.296   0.140   7.893 -0.4963  0.1912  0.4114
   85CHL1   C21 8748   6.393  -0.052   7.856  0.2230 -0.1948  0.3164
   85CHL1  H21A 8749   6.479  -0.004   7.805 -0.5928  0.2216 -0.7004
   85CHL1  H21B 8750   6.364  -0.151   7.815  1.7570 -0.6576  0.2560
   85CHL1  H21C 8751   6.421  -0.070   7.962  1.3836 -0.8587 -0.0853
   85CHL1   C22 8752   6.152  -0.032   7.923  0.8143 -0.2648 -0.0156
   85CHL1  H22A 8753   6.052   0.015   7.912  1.0520  0.3494  0.3678
   85CHL1  H22B 8754   6.130  -0.134   7.888  1.5399 -0.4429  0.0317
   85CHL1   C23 8755   6.168  -0.052   8.074  0.5269  0.2252  0.0643
   85CHL1  H23A 8756   6.255  -0.121   8.079 -1.7002 -2.9105 -1.3684
   85CHL1  H23B 8757   6.185   0.050   8.115 -1.0499  1.0547 -1.2243
   85CHL1   C24 8758   6.053  -0.128   8.144  0.0704  0.5136 -0.1862
   85CHL1  H24A 8759   5.948  -0.102   8.116 -0.2141  1.6623  1.7754
   85CHL1  H24B 8760   6.068  -0.233   8.110  1.5964  0.7676 -0.3642
   85CHL1   C25 8761   6.067  -0.125   8.307  0.1312 -0.2310  0.1713
   85CHL1   H25 8762   6.020  -0.033   8.349 -0.6081  0.3157 -1.7460
   85CHL1   C26 8763   5.993  -0.246   8.368 -0.3324  0.6172 -0.2633
   85CHL1  H26A 8764   5.886  -0.244   8.341  0.1297 -0.6657 -2.4325
   85CHL1  H26B 8765   6.046  -0.339   8.336 -0.1916 -0.1544  1.9596
   85CHL1  H26C 8766   5.990  -0.228   8.478 -1.6887 -0.5807 -0.0640
   85CHL1   C27 8767   6.218  -0.127   8.351 -0.1073 -0.5892 -0.4025
   85CHL1  H27A 8768   6.261  -0.035   8.306 -0.2013  0.0647  0.7981
   85CHL1  H27B 8769   6.232  -0.111   8.460 -2.2605  1.2606 -0.3299
   85CHL1  H27C 8770   6.263  -0.220   8.309 -0.6654 -1.0194 -0.0663
   86CHL1    C3 8771   6.697   4.863   6.851  1.3178 -0.2965  0.0253
   86CHL1    H3 8772   6.633   4.935   6.906  1.1784  1.5835 -2.4171
   86CHL1    O3 8773   6.633   4.881   6.728 -0.3777 -0.3107 -0.0850
   86CHL1   H3' 8774   6.625   4.976   6.724 -1.2222 -0.2878  1.5036
   86CHL1    C4 8775   6.844   4.899   6.857  0.4925 -0.1177  0.6543
   86CHL1   H4A 8776   6.905   4.830   6.795  1.6044  0.2702  1.2774
   86CHL1   H4B 8777   6.852   5.004   6.820  1.9669  0.4247  2.3445
   86CHL1    C5 8778   6.889   4.883   7.006 -0.3155 -0.2852  0.0812
   86CHL1    C6 8779   6.949   4.986   7.073  0.0198 -0.3328 -0.0876
   86CHL1    H6 8780   6.965   5.084   7.026 -0.8644  0.3067  0.8957
   86CHL1    C7 8781   6.987   4.989   7.220 -0.0244  0.3864  0.2166
   86CHL1   H7A 8782   7.092   5.022   7.235  1.7803 -3.3643 -2.4372
   86CHL1   H7B 8783   6.906   5.037   7.279 -1.1465 -0.1970 -0.7889
   86CHL1    C8 8784   6.982   4.847   7.276 -0.4294 -0.0287  0.3453
   86CHL1    H8 8785   7.070   4.791   7.239 -1.5579 -1.7793  0.1704
   86CHL1   C14 8786   6.978   4.853   7.426  0.3383  0.2256  0.7654
   86CHL1   H14 8787   6.894   4.916   7.462  1.9047  2.2755  0.9609
   86CHL1   C15 8788   7.099   4.929   7.489  0.1774  0.0500  0.0381
   86CHL1  H15A 8789   7.197   4.917   7.437  0.4449 -0.3457  0.6202
   86CHL1  H15B 8790   7.077   5.037   7.473  0.5435 -0.1608 -2.1436
   86CHL1   C16 8791   7.096   4.881   7.633  0.3003  0.4555 -0.1134
   86CHL1  H16A 8792   7.202   4.855   7.652 -0.0130 -0.9266 -0.1230
   86CHL1  H16B 8793   7.069   4.954   7.713 -0.8006 -0.5654  0.4895
   86CHL1   C17 8794   6.982   4.772   7.647 -0.1450 -0.7671 -0.4388
   86CHL1   H17 8795   6.893   4.832   7.675 -0.1891 -1.6573  1.4903
   86CHL1   C13 8796   6.973   4.719   7.502 -0.7139  0.1909  0.2138
   86CHL1   C18 8797   7.098   4.632   7.474  0.3024 -0.6558  0.0497
   86CHL1  H18A 8798   7.191   4.674   7.516 -0.0339  1.0671 -0.8328
   86CHL1  H18B 8799   7.077   4.529   7.510  0.2713 -0.5878  0.2255
   86CHL1  H18C 8800   7.114   4.618   7.365  1.4894 -0.1098  0.1471
   86CHL1   C12 8801   6.859   4.628   7.456  0.2153 -0.0135 -0.0750
   86CHL1  H12A 8802   6.867   4.529   7.507  1.4956  1.4925  2.8817
   86CHL1  H12B 8803   6.759   4.671   7.479  0.4382 -0.5171  2.0586
   86CHL1   C11 8804   6.857   4.621   7.305  0.2422  0.0415 -0.2810
   86CHL1  H11A 8805   6.944   4.556   7.281  1.7482  0.3667  3.6026
   86CHL1  H11B 8806   6.768   4.562   7.273  0.3747  0.1365 -0.8475
   86CHL1    C9 8807   6.864   4.762   7.233  0.5002  0.5948 -0.4342
   86CHL1    H9 8808   6.771   4.816   7.261 -1.0942 -0.9485 -2.4374
   86CHL1   C10 8809   6.849   4.750   7.075 -0.2070 -0.4050 -0.4039
   86CHL1   C19 8810   6.959   4.663   7.021 -0.4787  0.7451 -0.3461
   86CHL1  H19A 8811   6.938   4.556   7.042  0.5592  0.6309  0.1408
   86CHL1  H19B 8812   6.956   4.671   6.910  0.2124 -0.2146 -0.4466
   86CHL1  H19C 8813   7.062   4.693   7.047 -0.3601  0.4939 -0.5166
   86CHL1    C1 8814   6.704   4.699   7.038 -0.2635 -0.1290  0.3535
   86CHL1   H1A 8815   6.695   4.591   7.064 -2.3841  0.2120  1.2388
   86CHL1   H1B 8816   6.626   4.761   7.088 -0.4581  2.0593 -2.4382
   86CHL1    C2 8817   6.681   4.715   6.889  0.2603  0.5169 -0.1435
   86CHL1   H2A 8818   6.579   4.677   6.867  1.0133 -1.6960  0.0009
   86CHL1   H2B 8819   6.742   4.660   6.815  0.0823  3.2216 -2.4551
   86CHL1   C20 8820   7.002   4.675   7.762  0.8321  0.5742 -0.2294
   86CHL1   H20 8821   7.081   4.604   7.732  0.9405 -0.0079  1.3416
   86CHL1   C21 8822   6.864   4.611   7.783  0.1720  0.5554  0.2401
   86CHL1  H21A 8823   6.786   4.689   7.796 -0.1216  0.2378  0.4083
   86CHL1  H21B 8824   6.851   4.543   7.870 -2.6036  0.1497 -0.3983
   86CHL1  H21C 8825   6.837   4.553   7.692  0.4996  1.4595 -0.4510
   86CHL1   C22 8826   7.051   4.743   7.892  0.1575  0.2153 -0.0616
   86CHL1  H22A 8827   7.143   4.799   7.865 -0.3438  0.4819 -1.2636
   86CHL1  H22B 8828   6.965   4.802   7.930 -1.1285 -1.5438 -0.1232
   86CHL1   C23 8829   7.080   4.636   8.008 -0.5457 -0.4626 -0.3863
   86CHL1  H23A 8830   6.979   4.595   8.031 -1.1470  1.1181 -0.0097
   86CHL1  H23B 8831   7.154   4.559   7.978 -0.7558 -1.4303  1.4400
   86CHL1   C24 8832   7.134   4.692   8.141  0.4432 -0.3788 -0.4243
   86CHL1  H24A 8833   7.243   4.715   8.134  0.1950  0.8692 -0.4479
   86CHL1  H24B 8834   7.078   4.785   8.163  0.6843 -0.6622  1.6163
   86CHL1   C25 8835   7.119   4.594   8.260  0.3260 -0.6831 -0.2292
   86CHL1   H25 8836   7.090   4.492   8.227 -0.2199 -0.4715 -0.4076
   86CHL1   C26 8837   7.239   4.584   8.354  0.2344  0.4021 -0.2163
   86CHL1  H26A 8838   7.223   4.500   8.425  3.5066  0.1219  0.3665
   86CHL1  H26B 8839   7.339   4.561   8.311  0.6179 -2.9174  2.0973
   86CHL1  H26C 8840   7.246   4.673   8.421 -0.5759  1.4385 -1.4731
   86CHL1   C27 8841   6.990   4.637   8.337 -0.1900  0.3504 -0.0617
   86CHL1  H27A 8842   6.988   4.584   8.434 -0.3946 -1.6018 -1.0736
   86CHL1  H27B 8843   6.994   4.745   8.362 -0.9983  0.9832 -2.4022
   86CHL1  H27C 8844   6.899   4.610   8.279  0.8878 -3.3825 -0.3064
   87CHL1    C3 8845   0.001   3.996   6.937 -0.5073 -0.1123 -0.0203
   87CHL1    H3 8846   0.006   3.890   6.970 -1.3066 -0.5090 -1.1530
   87CHL1    O3 8847  -0.026   4.003   6.799 -0.4014 -0.2942 -0.7463
   87CHL1   H3' 8848   0.019   3.927   6.763 -0.4447 -0.0724 -1.2762
   87CHL1    C4 8849  -0.107   4.071   7.011  0.4837  0.1690 -0.6081
   87CHL1   H4A 8850  -0.108   4.175   6.973 -0.0590  0.0345 -0.9661
   87CHL1   H4B 8851  -0.204   4.025   6.984  0.9297 -1.2781  0.1101
   87CHL1    C5 8852  -0.079   4.070   7.162  0.9308 -0.2296  0.3210
   87CHL1    C6 8853  -0.166   4.018   7.244 -0.0039  0.3177 -0.0796
   87CHL1    H6 8854  -0.264   3.991   7.203 -0.8404  1.5045  1.0534
   87CHL1    C7 8855  -0.155   4.019   7.397  0.4528 -0.0872  0.0706
   87CHL1   H7A 8856  -0.245   4.057   7.450 -0.5727 -2.6751  0.3074
   87CHL1   H7B 8857  -0.151   3.913   7.429  1.4878  1.0224  4.2402
   87CHL1    C8 8858  -0.036   4.095   7.453 -0.5805  0.0448  1.1492
   87CHL1    H8 8859  -0.062   4.203   7.448 -0.2333  0.0884 -0.0368
   87CHL1   C14 8860   0.004   4.050   7.593 -0.3393 -0.2428  0.1647
   87CHL1   H14 8861   0.033   3.945   7.570 -0.0611 -0.3520  0.9674
   87CHL1   C15 8862  -0.100   4.036   7.702  0.3166 -0.2307  0.1190
   87CHL1  H15A 8863  -0.156   4.131   7.714 -1.4051 -1.4933  3.4917
   87CHL1  H15B 8864  -0.160   3.945   7.681  0.2148  0.1212 -1.1551
   87CHL1   C16 8865  -0.016   4.018   7.836 -0.3644 -0.0637  0.3992
   87CHL1  H16A 8866  -0.051   4.078   7.922 -2.0023 -1.6266  0.8989
   87CHL1  H16B 8867  -0.017   3.910   7.862  0.4648  0.5099  3.0724
   87CHL1   C17 8868   0.132   4.044   7.793  0.1656 -0.1785  0.3128
   87CHL1   H17 8869   0.170   3.943   7.768  0.1205 -0.1115 -0.0308
   87CHL1   C13 8870   0.129   4.118   7.658  0.7509  0.5801 -0.6313
   87CHL1   C18 8871   0.093   4.266   7.688 -0.2449  0.0374  0.3912
   87CHL1  H18A 8872   0.027   4.267   7.777  2.1756  1.2444  2.3162
   87CHL1  H18B 8873   0.179   4.335   7.706  0.5231 -0.3826 -1.4542
   87CHL1  H18C 8874   0.040   4.316   7.604 -0.9298  0.9504  1.3370
   87CHL1   C12 8875   0.248   4.103   7.566  0.8001 -0.6193  0.3366
   87CHL1  H12A 8876   0.343   4.144   7.605 -0.3149  0.3489  2.1731
   87CHL1  H12B 8877   0.262   3.992   7.563 -0.7351 -0.8772  1.5028
   87CHL1   C11 8878   0.213   4.144   7.417  0.1645  0.5092  0.2386
   87CHL1  H11A 8879   0.198   4.255   7.419 -0.3452  0.4728 -0.7416
   87CHL1  H11B 8880   0.308   4.123   7.365  0.6559  2.1597  0.4063
   87CHL1    C9 8881   0.085   4.082   7.358 -0.4428 -0.2750  0.7478
   87CHL1    H9 8882   0.103   3.973   7.362 -0.0914 -0.2076  1.1278
   87CHL1   C10 8883   0.054   4.114   7.211  0.2935 -0.0867  1.4876
   87CHL1   C19 8884   0.064   4.271   7.196 -0.7593  0.2377 -0.2013
   87CHL1  H19A 8885   0.013   4.311   7.106 -0.2651 -1.1031 -1.1134
   87CHL1  H19B 8886   0.023   4.316   7.289 -0.4184 -0.0600  0.0965
   87CHL1  H19C 8887   0.168   4.311   7.192 -0.8212  0.5114  0.7962
   87CHL1    C1 8888   0.168   4.054   7.121 -0.7305 -0.1260  0.3113
   87CHL1   H1A 8889   0.269   4.093   7.144 -1.4454  2.1232 -0.1057
   87CHL1   H1B 8890   0.157   3.949   7.157  0.5440  0.1528  1.6120
   87CHL1    C2 8891   0.138   4.054   6.965  0.5536 -0.2975  0.1612
   87CHL1   H2A 8892   0.217   3.992   6.917  0.0595 -1.1549  0.4359
   87CHL1   H2B 8893   0.148   4.159   6.928 -0.8451  0.6332  2.2561
   87CHL1   C20 8894   0.222   4.102   7.907 -0.4378  0.0267  0.0249
   87CHL1   H20 8895   0.178   4.200   7.936 -0.1968  1.2620 -3.3243
   87CHL1   C21 8896   0.367   4.148   7.864  0.1196  0.5310 -0.0923
   87CHL1  H21A 8897   0.434   4.181   7.946 -0.4298  2.3538 -0.3305
   87CHL1  H21B 8898   0.356   4.237   7.798 -1.5347 -1.3620 -2.5628
   87CHL1  H21C 8899   0.416   4.069   7.803 -1.4448  0.0595 -0.8212
   87CHL1   C22 8900   0.231   3.999   8.024 -0.6318 -0.3187 -0.2919
   87CHL1  H22A 8901   0.133   3.952   8.044 -1.5609  1.5909 -0.1319
   87CHL1  H22B 8902   0.302   3.921   7.989  0.5138 -0.5940  2.3935
   87CHL1   C23 8903   0.279   4.062   8.155 -0.3794 -0.3610  0.0272
   87CHL1  H23A 8904   0.373   4.121   8.147 -0.5349  0.3233  2.3378
   87CHL1  H23B 8905   0.205   4.122   8.211  1.3181 -0.0877  2.1275
   87CHL1   C24 8906   0.320   3.943   8.256  0.9407 -0.5820 -0.2401
   87CHL1  H24A 8907   0.249   3.858   8.249  0.1512 -0.2119  2.2004
   87CHL1  H24B 8908   0.421   3.904   8.237  0.9627 -1.2023  1.0358
   87CHL1   C25 8909   0.311   3.995   8.399  0.5946 -0.8566  0.5934
   87CHL1   H25 8910   0.212   4.046   8.407 -0.3782 -2.6696  0.6284
   87CHL1   C26 8911   0.320   3.884   8.505  0.1354 -0.1915 -0.6220
   87CHL1  H26A 8912   0.424   3.845   8.499  0.0288 -0.3552 -1.7129
   87CHL1  H26B 8913   0.302   3.933   8.603 -1.7397  1.7056 -1.8203
   87CHL1  H26C 8914   0.246   3.805   8.480 -0.4138 -0.1207  0.7304
   87CHL1   C27 8915   0.423   4.108   8.426  0.5998  0.3524  0.0789
   87CHL1  H27A 8916   0.413   4.191   8.353  0.9558  0.3260 -0.0015
   87CHL1  H27B 8917   0.408   4.153   8.527  0.1982 -1.1907  0.7280
   87CHL1  H27C 8918   0.525   4.063   8.427  0.4372 -0.1507  3.1894
   88CHL1    C3 8919   0.942   1.150   6.797 -0.5556  0.2079 -0.3236
   88CHL1    H3 8920   0.840   1.165   6.840  0.0500 -1.7718  1.9756
   88CHL1    O3 8921   0.933   1.107   6.659 -0.7669 -0.6401  0.0782
   88CHL1   H3' 8922   0.842   1.125   6.634 -1.5661 -2.5014  1.4412
   88CHL1    C4 8923   1.034   1.273   6.802 -0.1887 -0.0429 -0.3748
   88CHL1   H4A 8924   1.138   1.241   6.779 -0.1353  0.1335 -0.3806
   88CHL1   H4B 8925   0.997   1.354   6.735  1.2372  2.7351  1.9622
   88CHL1    C5 8926   1.023   1.336   6.939 -0.5615  0.5243 -0.8412
   88CHL1    C6 8927   0.979   1.462   6.963 -0.1483 -0.7607  0.5574
   88CHL1    H6 8928   0.958   1.528   6.878 -0.1435 -1.4348  0.0256
   88CHL1    C7 8929   0.958   1.526   7.099  0.3000  0.2491 -0.1985
   88CHL1   H7A 8930   0.999   1.629   7.099 -0.2107  0.4544 -0.0749
   88CHL1   H7B 8931   0.848   1.522   7.116  0.0400 -2.9073 -1.8663
   88CHL1    C8 8932   1.031   1.438   7.203 -1.1665 -0.1660  0.0833
   88CHL1    H8 8933   1.140   1.457   7.205 -1.3205  0.8434 -0.5465
   88CHL1   C14 8934   0.968   1.467   7.336  0.3837  0.1444 -0.8255
   88CHL1   H14 8935   0.860   1.441   7.333 -0.1437  1.5151  2.3128
   88CHL1   C15 8936   0.966   1.620   7.382 -0.0879  0.4233  0.0289
   88CHL1  H15A 8937   1.069   1.659   7.375 -0.1028  0.7668  1.5141
   88CHL1  H15B 8938   0.908   1.686   7.314 -1.7036 -0.1780  0.7680
   88CHL1   C16 8939   0.929   1.615   7.534 -0.2685 -0.2099  0.0275
   88CHL1  H16A 8940   1.004   1.681   7.583 -2.4022  2.5486 -0.1832
   88CHL1  H16B 8941   0.830   1.661   7.555 -0.1830  0.0083 -0.0410
   88CHL1   C17 8942   0.940   1.467   7.576 -0.0545  0.1392  0.0028
   88CHL1   H17 8943   0.839   1.423   7.566 -0.0922  0.6104 -2.0346
   88CHL1   C13 8944   1.026   1.394   7.467  0.4707 -0.1763  1.0721
   88CHL1   C18 8945   1.175   1.426   7.477  0.6032 -0.6168 -0.9000
   88CHL1  H18A 8946   1.231   1.372   7.556  1.4861  1.0003 -0.3774
   88CHL1  H18B 8947   1.230   1.394   7.387  3.3910 -1.1507  0.8946
   88CHL1  H18C 8948   1.202   1.533   7.490 -0.2248 -0.6622  1.7362
   88CHL1   C12 8949   0.995   1.249   7.449 -0.7988 -0.2341  0.0595
   88CHL1  H12A 8950   1.051   1.197   7.530  1.0428  2.4735  0.6780
   88CHL1  H12B 8951   0.888   1.220   7.453 -0.4613 -1.5135  0.1511
   88CHL1   C11 8952   1.043   1.200   7.306 -0.4489 -0.4895 -0.9742
   88CHL1  H11A 8953   1.154   1.201   7.313 -0.4706  1.1417 -0.4105
   88CHL1  H11B 8954   1.013   1.094   7.291  0.7778 -1.5291  2.7940
   88CHL1    C9 8955   1.001   1.291   7.187  0.1377  0.9138  0.3162
   88CHL1    H9 8956   0.890   1.288   7.184  0.1692  0.3323 -2.0094
   88CHL1   C10 8957   1.044   1.233   7.052  0.4999  0.1304 -0.1705
   88CHL1   C19 8958   1.196   1.205   7.059  0.2103  0.2440 -1.0048
   88CHL1  H19A 8959   1.237   1.174   6.961  2.1160 -0.0076 -0.1713
   88CHL1  H19B 8960   1.250   1.298   7.087  1.0148 -0.8834  1.5285
   88CHL1  H19C 8961   1.222   1.132   7.139  1.8740  2.1791  0.3336
   88CHL1    C1 8962   0.976   1.099   7.039  0.4971  0.1992 -0.3069
   88CHL1   H1A 8963   1.023   1.015   7.095 -1.1527 -1.0169 -0.6689
   88CHL1   H1B 8964   0.865   1.105   7.050  0.2115 -0.8952 -2.1172
   88CHL1    C2 8965   0.984   1.041   6.892 -0.0307  0.0825 -0.4183
   88CHL1   H2A 8966   0.918   0.952   6.883 -0.7553  0.5148  0.3583
   88CHL1   H2B 8967   1.087   1.007   6.869 -0.2220 -2.5644  1.9887
   88CHL1   C20 8968   0.977   1.457   7.728 -0.3124  0.1855  0.9374
   88CHL1   H20 8969   1.080   1.498   7.741  0.0227 -0.3450  0.0534
   88CHL1   C21 8970   0.971   1.307   7.769 -0.5306 -0.0926 -0.7313
   88CHL1  H21A 8971   1.056   1.265   7.711  0.6965  0.6118  0.5014
   88CHL1  H21B 8972   0.873   1.259   7.746 -0.7594  0.3670 -0.7188
   88CHL1  H21C 8973   0.999   1.301   7.877 -4.7270 -0.5850  0.5301
   88CHL1   C22 8974   0.897   1.550   7.824 -0.1786  0.1386 -0.1813
   88CHL1  H22A 8975   0.863   1.645   7.777 -2.9868 -1.2372 -1.2080
   88CHL1  H22B 8976   0.799   1.501   7.842 -0.3262  0.6329  0.3905
   88CHL1   C23 8977   0.967   1.581   7.966 -0.5625  0.4230 -1.2125
   88CHL1  H23A 8978   0.975   1.485   8.022  0.7912  0.1010 -1.9220
   88CHL1  H23B 8979   1.071   1.616   7.947 -0.8144  3.3131  1.7855
   88CHL1   C24 8980   0.889   1.679   8.043 -0.2296 -0.7944  0.3470
   88CHL1  H24A 8981   0.880   1.757   7.965  0.3498 -2.8077 -1.8511
   88CHL1  H24B 8982   0.789   1.636   8.066 -0.8699  0.7048  0.4914
   88CHL1   C25 8983   0.931   1.740   8.177  0.3659  0.4002 -0.2157
   88CHL1   H25 8984   1.014   1.801   8.136  0.9666  0.3406  0.8920
   88CHL1   C26 8985   0.820   1.831   8.229  0.6768  0.5729 -0.0445
   88CHL1  H26A 8986   0.733   1.778   8.274  1.1972  0.3484  0.7144
   88CHL1  H26B 8987   0.859   1.892   8.313 -0.8106  0.8285  0.5009
   88CHL1  H26C 8988   0.797   1.904   8.148 -0.1456  0.8511  0.4197
   88CHL1   C27 8989   0.985   1.626   8.272  0.4051 -0.0086 -0.9562
   88CHL1  H27A 8990   0.900   1.581   8.327  1.6814 -1.3878 -0.0430
   88CHL1  H27B 8991   1.012   1.532   8.219 -3.2898 -2.6626  1.4028
   88CHL1  H27C 8992   1.072   1.655   8.335  1.7521 -3.5215 -0.9939
   89CHL1    C3 8993   3.149   3.549   7.202 -0.3777 -0.0448 -0.3965
   89CHL1    H3 8994   3.065   3.498   7.253  0.1596 -0.1537  0.3911
   89CHL1    O3 8995   3.147   3.531   7.061  0.2379 -0.0622 -0.1569
   89CHL1   H3' 8996   3.217   3.586   7.026  0.0749  0.1158 -0.2000
   89CHL1    C4 8997   3.145   3.701   7.243 -0.1788  0.5967 -0.1205
   89CHL1   H4A 8998   3.220   3.753   7.180  0.0728  1.0309  0.5293
   89CHL1   H4B 8999   3.047   3.740   7.209  0.3397  2.3448  0.2843
   89CHL1    C5 9000   3.162   3.715   7.389  0.1799  0.0133  0.1616
   89CHL1    C6 9001   3.068   3.775   7.471 -0.4502  0.2536 -0.1657
   89CHL1    H6 9002   2.980   3.822   7.425 -0.0623  1.2781  0.0982
   89CHL1    C7 9003   3.102   3.803   7.615  0.1144 -0.5455 -0.0378
   89CHL1   H7A 9004   3.088   3.911   7.639 -1.7782 -0.4149 -1.5170
   89CHL1   H7B 9005   3.037   3.742   7.681 -0.1543 -1.5507 -1.2087
   89CHL1    C8 9006   3.249   3.779   7.660 -0.3763 -1.0665  0.2611
   89CHL1    H8 9007   3.298   3.865   7.611 -1.3449 -0.3931  0.4418
   89CHL1   C14 9008   3.257   3.778   7.807 -0.7738  0.0562 -0.2268
   89CHL1   H14 9009   3.188   3.699   7.845 -0.3117  0.5091  1.6571
   89CHL1   C15 9010   3.201   3.894   7.883 -0.2439 -0.1530 -0.2535
   89CHL1  H15A 9011   3.217   3.988   7.826  1.4623  0.5371  1.2776
   89CHL1  H15B 9012   3.093   3.896   7.911 -0.6506  0.5213 -1.7641
   89CHL1   C16 9013   3.280   3.909   8.014  0.2771  0.3794 -0.0969
   89CHL1  H16A 9014   3.327   4.010   8.017  3.1750 -0.8800  2.3900
   89CHL1  H16B 9015   3.214   3.903   8.103 -2.6814  0.0712 -2.1672
   89CHL1   C17 9016   3.383   3.794   8.014 -0.1387  0.3001  0.1782
   89CHL1   H17 9017   3.333   3.702   8.053  0.7934  0.2862  1.4090
   89CHL1   C13 9018   3.400   3.760   7.866 -0.4335  0.3692  0.2049
   89CHL1   C18 9019   3.506   3.859   7.809 -0.2468  0.3334  0.4114
   89CHL1  H18A 9020   3.487   3.870   7.700 -2.0463 -2.8200  0.2855
   89CHL1  H18B 9021   3.473   3.959   7.842 -1.1135  0.8641 -1.8322
   89CHL1  H18C 9022   3.610   3.838   7.843  0.7633  1.1063 -1.9428
   89CHL1   C12 9023   3.452   3.620   7.825 -0.5709  0.1886 -0.1286
   89CHL1  H12A 9024   3.558   3.616   7.860  0.1516  1.7582 -1.9101
   89CHL1  H12B 9025   3.398   3.534   7.870  2.0041 -1.2642  0.3822
   89CHL1   C11 9026   3.443   3.603   7.665  0.3454 -0.5998 -0.6689
   89CHL1  H11A 9027   3.533   3.652   7.622 -0.4179  2.5510  1.0190
   89CHL1  H11B 9028   3.456   3.493   7.650  0.5877 -0.3003 -2.9916
   89CHL1    C9 9029   3.304   3.652   7.603 -0.4308  0.8359  0.0250
   89CHL1    H9 9030   3.230   3.583   7.647 -0.4096  1.1119  0.4951
   89CHL1   C10 9031   3.296   3.652   7.448 -0.5870 -0.4221 -0.3211
   89CHL1   C19 9032   3.422   3.732   7.388 -0.6187 -0.5672 -0.7418
   89CHL1  H19A 9033   3.433   3.707   7.280  3.3842  0.0469 -0.6425
   89CHL1  H19B 9034   3.406   3.842   7.396 -0.4634 -0.6343  0.6986
   89CHL1  H19C 9035   3.522   3.715   7.433 -0.9286  0.2963  0.3247
   89CHL1    C1 9036   3.296   3.513   7.393  0.1867  0.1833 -1.1171
   89CHL1   H1A 9037   3.389   3.464   7.430 -0.5103 -0.1882  0.2166
   89CHL1   H1B 9038   3.214   3.460   7.445  2.2299 -0.7126  1.3883
   89CHL1    C2 9039   3.276   3.483   7.247 -0.3164 -0.2584 -0.6589
   89CHL1   H2A 9040   3.274   3.374   7.226 -0.9277 -0.7517  1.7182
   89CHL1   H2B 9041   3.352   3.527   7.179 -0.7536 -0.3417 -1.2105
   89CHL1   C20 9042   3.502   3.801   8.114 -1.2824 -0.1917 -1.1611
   89CHL1   H20 9043   3.568   3.879   8.071 -0.1674 -0.1013  0.5901
   89CHL1   C21 9044   3.573   3.667   8.136  0.6014 -0.1051  0.5793
   89CHL1  H21A 9045   3.634   3.654   8.228 -1.4859 -2.9637  1.7214
   89CHL1  H21B 9046   3.635   3.635   8.050  0.3564  1.4268 -0.2095
   89CHL1  H21C 9047   3.495   3.590   8.154  1.0286 -0.9562 -1.0177
   89CHL1   C22 9048   3.463   3.853   8.253  0.4228 -0.0508 -0.2056
   89CHL1  H22A 9049   3.558   3.875   8.307  0.4054  0.5402 -0.4063
   89CHL1  H22B 9050   3.407   3.949   8.252  0.9989  0.3612  1.9020
   89CHL1   C23 9051   3.387   3.762   8.351  0.0421 -0.0859 -0.2899
   89CHL1  H23A 9052   3.298   3.712   8.309 -1.6691 -0.5976  3.5342
   89CHL1  H23B 9053   3.452   3.683   8.395  0.7096  0.0391 -1.0385
   89CHL1   C24 9054   3.339   3.844   8.481 -0.3684 -0.2447 -0.6286
   89CHL1  H24A 9055   3.275   3.931   8.456 -1.0945 -0.7045 -0.3953
   89CHL1  H24B 9056   3.263   3.781   8.533 -1.3594  1.5167  0.1603
   89CHL1   C25 9057   3.451   3.893   8.573  0.5686  0.0022  0.0768
   89CHL1   H25 9058   3.522   3.952   8.512  1.5459 -0.8702  0.3496
   89CHL1   C26 9059   3.411   3.989   8.685  0.2848 -0.1668 -0.4694
   89CHL1  H26A 9060   3.364   4.079   8.641  0.8891  1.1411  1.4312
   89CHL1  H26B 9061   3.338   3.947   8.758 -0.8659  1.4003 -0.6658
   89CHL1  H26C 9062   3.497   4.026   8.744 -0.9798  0.0766  1.3034
   89CHL1   C27 9063   3.532   3.778   8.631 -0.1945  0.5944  0.8654
   89CHL1  H27A 9064   3.586   3.738   8.543 -0.3787  1.0360  0.5479
   89CHL1  H27B 9065   3.613   3.824   8.691  0.3994  1.8416 -0.8131
   89CHL1  H27C 9066   3.475   3.707   8.695 -0.0282 -0.3049  0.0279
   90CHL1    C3 9067   1.550   4.853   6.947 -0.2428 -0.2580  0.7307
   90CHL1    H3 9068   1.613   4.943   6.963  0.4958 -0.7637  0.7592
   90CHL1    O3 9069   1.527   4.830   6.810 -0.2395 -0.3952 -0.4516
   90CHL1   H3' 9070   1.465   4.900   6.787 -0.0766  0.6642  1.9906
   90CHL1    C4 9071   1.629   4.733   6.998  0.2162 -0.0168  0.3876
   90CHL1   H4A 9072   1.564   4.645   6.980  0.8575 -0.5201  0.4775
   90CHL1   H4B 9073   1.720   4.716   6.936 -0.2467  2.5772 -1.1589
   90CHL1    C5 9074   1.658   4.740   7.146  0.5269 -0.0333 -0.4505
   90CHL1    C6 9075   1.785   4.734   7.189  0.4324 -0.6861  0.5469
   90CHL1    H6 9076   1.872   4.721   7.123  1.0436 -1.9139  1.5366
   90CHL1    C7 9077   1.822   4.741   7.337  0.4157 -0.1272  0.0557
   90CHL1   H7A 9078   1.892   4.657   7.359  0.0675 -0.4395 -0.0121
   90CHL1   H7B 9079   1.881   4.831   7.363  0.6357 -0.1807 -0.2585
   90CHL1    C8 9080   1.703   4.731   7.433 -0.3996 -0.1052  0.0964
   90CHL1    H8 9081   1.678   4.623   7.428  0.8825 -0.3924 -0.2616
   90CHL1   C14 9082   1.735   4.763   7.580 -0.0833 -0.1589  0.3517
   90CHL1   H14 9083   1.758   4.872   7.572  0.3843 -0.2573  0.3510
   90CHL1   C15 9084   1.860   4.702   7.650  0.0930  0.0138 -0.1802
   90CHL1  H15A 9085   1.849   4.592   7.637 -0.8080 -0.0565  1.0122
   90CHL1  H15B 9086   1.955   4.745   7.610 -0.2322  0.7865 -0.1317
   90CHL1   C16 9087   1.830   4.728   7.797 -0.1196  0.0315 -0.7002
   90CHL1  H16A 9088   1.848   4.633   7.852  0.3193  0.9403  0.8132
   90CHL1  H16B 9089   1.904   4.799   7.841  0.9348 -0.9608 -0.8177
   90CHL1   C17 9090   1.684   4.782   7.810 -0.0453 -0.0615 -0.0684
   90CHL1   H17 9091   1.702   4.891   7.799  0.2760 -0.2002 -1.0313
   90CHL1   C13 9092   1.615   4.747   7.676 -0.2897  1.0693 -0.1722
   90CHL1   C18 9093   1.580   4.600   7.685 -0.6343 -0.0918 -0.3000
   90CHL1  H18A 9094   1.532   4.562   7.592  2.3223 -2.4667 -1.0026
   90CHL1  H18B 9095   1.669   4.534   7.688 -2.0917 -2.1446 -0.3966
   90CHL1  H18C 9096   1.506   4.583   7.766 -0.1397 -1.4633 -0.1110
   90CHL1   C12 9097   1.496   4.837   7.621 -0.5875 -0.1027 -0.5287
   90CHL1  H12A 9098   1.410   4.824   7.690 -0.6144  0.0667 -0.5320
   90CHL1  H12B 9099   1.535   4.940   7.632 -1.5278  0.1835  0.2483
   90CHL1   C11 9100   1.458   4.801   7.480 -0.2012 -0.3226 -0.5323
   90CHL1  H11A 9101   1.423   4.696   7.489 -0.7643 -0.0803  0.1845
   90CHL1  H11B 9102   1.379   4.872   7.445  1.7040  0.7494 -3.0126
   90CHL1    C9 9103   1.576   4.802   7.374 -0.2144  0.3966 -0.5394
   90CHL1    H9 9104   1.604   4.909   7.360 -0.0044  0.0302 -3.4178
   90CHL1   C10 9105   1.535   4.766   7.231 -0.3916  0.1797  0.6348
   90CHL1   C19 9106   1.453   4.636   7.235 -0.2177 -0.5194  0.3457
   90CHL1  H19A 9107   1.495   4.564   7.308 -0.7258 -2.7552 -1.4498
   90CHL1  H19B 9108   1.350   4.665   7.265 -0.0715 -0.2980  0.6395
   90CHL1  H19C 9109   1.440   4.584   7.137 -1.4541  4.3925 -2.4396
   90CHL1    C1 9110   1.451   4.890   7.171  0.0643 -0.9035 -0.1966
   90CHL1   H1A 9111   1.354   4.895   7.225 -1.0526  0.4310 -2.2092
   90CHL1   H1B 9112   1.504   4.987   7.179 -2.0798  0.3542 -0.4346
   90CHL1    C2 9113   1.420   4.870   7.018  0.3222  0.4670 -0.2884
   90CHL1   H2A 9114   1.368   4.952   6.963  1.8786 -0.2044 -2.9714
   90CHL1   H2B 9115   1.352   4.783   7.002  1.2271 -0.4959  0.9122
   90CHL1   C20 9116   1.626   4.737   7.941 -0.3461 -0.2136  0.5629
   90CHL1   H20 9117   1.624   4.626   7.944  1.5654 -0.3522 -1.2494
   90CHL1   C21 9118   1.487   4.795   7.951  0.3834  0.6142 -0.8892
   90CHL1  H21A 9119   1.417   4.742   7.883  0.1331 -1.2271  0.6876
   90CHL1  H21B 9120   1.493   4.904   7.933  1.8136  0.9294  1.0996
   90CHL1  H21C 9121   1.431   4.790   8.047 -1.3338  1.1576 -1.8325
   90CHL1   C22 9122   1.703   4.788   8.070  0.0085  0.2865  0.2808
   90CHL1  H22A 9123   1.639   4.778   8.161  0.4883  2.6560  0.9653
   90CHL1  H22B 9124   1.784   4.718   8.099  0.4636  0.2855 -0.9703
   90CHL1   C23 9125   1.757   4.933   8.070 -0.2672 -0.0941  0.2926
   90CHL1  H23A 9126   1.847   4.940   8.005 -1.4088 -0.6833 -1.3778
   90CHL1  H23B 9127   1.670   4.994   8.038 -0.8833 -0.5600  1.0398
   90CHL1   C24 9128   1.775   4.983   8.218 -0.1353  0.8465  0.2680
   90CHL1  H24A 9129   1.673   4.984   8.261 -0.6824 -0.7478 -0.8969
   90CHL1  H24B 9130   1.838   4.911   8.275 -0.6418 -1.9215 -2.4095
   90CHL1   C25 9131   1.845   5.123   8.237 -0.0495 -0.4309 -0.3430
   90CHL1   H25 9132   1.807   5.204   8.171 -0.0245 -0.7672 -0.7734
   90CHL1   C26 9133   1.821   5.168   8.390  0.1522  0.0114  0.6654
   90CHL1  H26A 9134   1.717   5.205   8.404  0.5451  1.6028 -0.4152
   90CHL1  H26B 9135   1.846   5.081   8.454  0.1754  0.5222  1.3682
   90CHL1  H26C 9136   1.887   5.255   8.411 -0.3470  1.2684 -2.4374
   90CHL1   C27 9137   2.001   5.104   8.218 -0.3774  0.2067 -0.1743
   90CHL1  H27A 9138   2.046   5.204   8.233  0.6369 -0.0079 -1.5562
   90CHL1  H27B 9139   2.025   5.036   8.302 -0.4131 -2.3694 -2.1169
   90CHL1  H27C 9140   2.029   5.047   8.127  2.0940  0.8913  0.0929
   91CHL1    C3 9141   3.604   1.652   7.326 -0.5141 -0.5716 -0.1617
   91CHL1    H3 9142   3.708   1.616   7.314  0.2278  0.3323  2.7717
   91CHL1    O3 9143   3.557   1.678   7.194 -0.3969  1.0232  0.3553
   91CHL1   H3' 9144   3.527   1.595   7.157  1.4285  0.8516 -0.8603
   91CHL1    C4 9145   3.516   1.547   7.404 -0.0136 -0.5522  0.6869
   91CHL1   H4A 9146   3.418   1.598   7.406  0.2751  0.0308  0.2660
   91CHL1   H4B 9147   3.501   1.453   7.346  3.3281  0.3524 -1.9540
   91CHL1    C5 9148   3.568   1.525   7.544 -0.3007  0.6662 -0.8267
   91CHL1    C6 9149   3.610   1.406   7.600  0.1966  0.3760  0.0465
   91CHL1    H6 9150   3.592   1.309   7.552 -2.7315  1.0750 -0.4393
   91CHL1    C7 9151   3.663   1.401   7.739  0.6613  0.5234  0.0638
   91CHL1   H7A 9152   3.628   1.313   7.798  2.7664 -0.2306  0.2751
   91CHL1   H7B 9153   3.773   1.383   7.734  0.7665  0.9145  0.7792
   91CHL1    C8 9154   3.642   1.521   7.832  0.5422 -0.1031 -0.2515
   91CHL1    H8 9155   3.538   1.517   7.869  0.8112  0.1156  0.5637
   91CHL1   C14 9156   3.722   1.509   7.966 -0.8944  0.1635  0.1791
   91CHL1   H14 9157   3.826   1.497   7.930 -0.4976 -2.0574  1.8830
   91CHL1   C15 9158   3.711   1.383   8.056  0.1258 -0.7480  0.0304
   91CHL1  H15A 9159   3.608   1.352   8.084  0.2026 -1.2299 -0.2073
   91CHL1  H15B 9160   3.760   1.295   8.008 -0.5335  0.1264 -2.4125
   91CHL1   C16 9161   3.791   1.429   8.180  0.5124  0.5451 -0.3412
   91CHL1  H16A 9162   3.724   1.421   8.268 -0.7589  0.9501 -1.2473
   91CHL1  H16B 9163   3.871   1.354   8.201 -1.1907 -0.9048  1.3988
   91CHL1   C17 9164   3.816   1.577   8.163 -0.2017 -0.3184 -0.0589
   91CHL1   H17 9165   3.915   1.572   8.113 -0.6608 -1.0531 -0.9289
   91CHL1   C13 9166   3.718   1.628   8.055 -0.3488 -0.7686 -0.5208
   91CHL1   C18 9167   3.583   1.644   8.124 -0.4191  0.5888  0.1046
   91CHL1  H18A 9168   3.583   1.737   8.184  1.6850  0.0571  1.0054
   91CHL1  H18B 9169   3.497   1.646   8.054  1.0153  0.3949 -1.7294
   91CHL1  H18C 9170   3.555   1.563   8.195  1.2316 -0.2241 -0.1175
   91CHL1   C12 9171   3.753   1.761   7.970 -0.0825  0.7263 -0.0584
   91CHL1  H12A 9172   3.732   1.853   8.028  1.2931 -0.2533  2.1309
   91CHL1  H12B 9173   3.858   1.747   7.935 -0.5132 -0.1318 -1.0474
   91CHL1   C11 9174   3.660   1.770   7.853  0.8662 -0.1454 -0.8222
   91CHL1  H11A 9175   3.558   1.788   7.892  0.1548 -2.6502 -1.3339
   91CHL1  H11B 9176   3.699   1.857   7.797 -0.1836 -0.6866 -2.4782
   91CHL1    C9 9177   3.661   1.647   7.755 -0.8697  0.0685 -0.1345
   91CHL1    H9 9178   3.765   1.634   7.717 -1.0598 -1.4008 -0.2090
   91CHL1   C10 9179   3.580   1.653   7.627 -0.6475 -1.1420 -0.0637
   91CHL1   C19 9180   3.435   1.694   7.663  0.6543  0.9234 -0.5664
   91CHL1  H19A 9181   3.421   1.779   7.734 -0.6248 -1.1405  1.8010
   91CHL1  H19B 9182   3.386   1.732   7.571  2.3993  4.3361 -0.2657
   91CHL1  H19C 9183   3.380   1.616   7.720 -0.9669  1.5861 -1.1531
   91CHL1    C1 9184   3.649   1.761   7.543  0.0804  0.3175  0.5458
   91CHL1   H1A 9185   3.635   1.864   7.583 -1.5495  0.9850 -1.5461
   91CHL1   H1B 9186   3.757   1.734   7.535 -0.3302 -1.5849  0.9217
   91CHL1    C2 9187   3.599   1.782   7.399  0.8987  0.1285  0.2972
   91CHL1   H2A 9188   3.649   1.859   7.337 -0.3597  1.4215  0.8214
   91CHL1   H2B 9189   3.493   1.811   7.381  1.2832 -0.4339 -3.5727
   91CHL1   C20 9190   3.831   1.658   8.290 -0.4423 -0.5262  0.2957
   91CHL1   H20 9191   3.731   1.671   8.337  0.6827  1.0621  2.3770
   91CHL1   C21 9192   3.906   1.789   8.248 -0.8339 -0.0241  0.5139
   91CHL1  H21A 9193   3.919   1.854   8.337 -1.7373 -2.7390  2.7396
   91CHL1  H21B 9194   3.849   1.852   8.176 -0.6694 -1.4272 -0.8976
   91CHL1  H21C 9195   4.007   1.770   8.204 -1.2845 -0.1797 -0.4774
   91CHL1   C22 9196   3.902   1.594   8.415  0.0142  0.7594  0.8361
   91CHL1  H22A 9197   3.882   1.485   8.409 -1.7225  1.0243  1.3533
   91CHL1  H22B 9198   4.008   1.626   8.406  0.2622  0.3313  2.0669
   91CHL1   C23 9199   3.847   1.664   8.541 -0.1435  0.7879 -0.2851
   91CHL1  H23A 9200   3.860   1.773   8.528 -0.5882  0.7648 -0.9705
   91CHL1  H23B 9201   3.739   1.640   8.551  0.2488 -1.1856 -0.2823
   91CHL1   C24 9202   3.925   1.621   8.673 -0.2177  0.3651  1.2514
   91CHL1  H24A 9203   4.032   1.617   8.644 -0.8552  2.0351 -1.7314
   91CHL1  H24B 9204   3.919   1.706   8.745  0.7006  1.6721 -0.1678
   91CHL1   C25 9205   3.884   1.476   8.724  0.4742  0.2207  0.0967
   91CHL1   H25 9206   3.871   1.405   8.639 -3.2962  1.1614 -0.3110
   91CHL1   C26 9207   3.985   1.417   8.831 -0.4806  0.5863 -0.2824
   91CHL1  H26A 9208   3.967   1.310   8.851  2.9338  0.0971  0.8336
   91CHL1  H26B 9209   4.090   1.432   8.801 -0.6117  1.6146 -0.2886
   91CHL1  H26C 9210   3.973   1.474   8.926  0.4412 -1.8147  1.3573
   91CHL1   C27 9211   3.738   1.470   8.782 -0.1439  0.5337 -0.1632
   91CHL1  H27A 9212   3.670   1.490   8.697 -1.3094  1.0201  0.8516
   91CHL1  H27B 9213   3.716   1.370   8.826 -1.0249  1.2843  1.1999
   91CHL1  H27C 9214   3.735   1.540   8.868 -0.2144  0.2101  0.1012
   92CHL1    C3 9215   0.713   2.157   6.970 -0.0568 -0.2685  0.7705
   92CHL1    H3 9216   0.774   2.250   6.960 -1.3484  0.5124 -0.1894
   92CHL1    O3 9217   0.668   2.130   6.831 -0.1591  0.7615  0.2196
   92CHL1   H3' 9218   0.639   2.214   6.795  2.5019  2.0672  0.8728
   92CHL1    C4 9219   0.802   2.032   7.016  0.0604  0.0184  0.4053
   92CHL1   H4A 9220   0.740   1.942   6.997  0.6451  0.0209 -1.7202
   92CHL1   H4B 9221   0.884   2.020   6.943 -0.8209 -1.2540 -0.3995
   92CHL1    C5 9222   0.850   2.051   7.164  0.1554  0.1252  0.3839
   92CHL1    C6 9223   0.980   2.028   7.211  0.0942  0.4570 -0.1651
   92CHL1    H6 9224   1.059   1.989   7.145  0.1174 -2.9774  1.6717
   92CHL1    C7 9225   1.019   2.041   7.357  0.3726  0.4557  0.0165
   92CHL1   H7A 9226   1.087   1.958   7.383  0.4680  1.1708  2.1971
   92CHL1   H7B 9227   1.065   2.141   7.372 -1.4735  1.6802 -1.8346
   92CHL1    C8 9228   0.899   2.043   7.454  0.1236 -0.0630  0.2806
   92CHL1    H8 9229   0.865   1.937   7.461  0.2545 -0.5138 -3.8753
   92CHL1   C14 9230   0.938   2.095   7.593 -0.1045 -0.1343  0.4109
   92CHL1   H14 9231   0.968   2.202   7.585  0.8652 -0.4671 -0.6447
   92CHL1   C15 9232   1.058   2.037   7.667  0.1515 -0.1567  1.0484
   92CHL1  H15A 9233   1.043   1.927   7.663  2.9576 -0.5949  0.8460
   92CHL1  H15B 9234   1.155   2.054   7.616 -0.4239 -0.7083 -0.2764
   92CHL1   C16 9235   1.054   2.082   7.811  0.5564  0.7458  0.1104
   92CHL1  H16A 9236   1.063   1.994   7.878  1.0291  0.9677  0.3439
   92CHL1  H16B 9237   1.144   2.142   7.836  1.9969 -0.4145 -1.9712
   92CHL1   C17 9238   0.917   2.154   7.822 -0.1087  0.8883  1.0502
   92CHL1   H17 9239   0.944   2.256   7.787 -1.0335  1.5537  2.2182
   92CHL1   C13 9240   0.829   2.102   7.704  0.5859 -0.5163  0.6167
   92CHL1   C18 9241   0.789   1.962   7.743  0.3098 -0.4263 -0.0439
   92CHL1  H18A 9242   0.745   1.905   7.658  2.9392 -2.2232 -0.3307
   92CHL1  H18B 9243   0.880   1.906   7.774  1.3459  1.4325  0.4120
   92CHL1  H18C 9244   0.722   1.957   7.831  0.0006 -1.8234 -0.3222
   92CHL1   C12 9245   0.717   2.185   7.648 -0.1230 -0.1942  0.0197
   92CHL1  H12A 9246   0.630   2.179   7.717 -1.9416 -0.5215 -2.1949
   92CHL1  H12B 9247   0.740   2.293   7.637  0.8776 -0.3849  0.1536
   92CHL1   C11 9248   0.675   2.144   7.510 -0.6200 -0.0594  1.4171
   92CHL1  H11A 9249   0.623   2.045   7.512  0.9567 -1.0950 -1.4794
   92CHL1  H11B 9250   0.609   2.226   7.475  0.1131  0.7566  1.9348
   92CHL1    C9 9251   0.784   2.135   7.401  0.0315  0.3179  0.0873
   92CHL1    H9 9252   0.822   2.239   7.400 -0.0659  0.3503 -0.4099
   92CHL1   C10 9253   0.736   2.085   7.257  0.2822 -0.1653 -0.3638
   92CHL1   C19 9254   0.641   1.963   7.277  0.3843 -0.1491 -0.4389
   92CHL1  H19A 9255   0.631   1.913   7.178 -0.3256 -0.0787 -0.4088
   92CHL1  H19B 9256   0.691   1.889   7.342  0.6595 -0.6139 -1.1681
   92CHL1  H19C 9257   0.544   1.997   7.318  0.7461  1.3874 -0.7827
   92CHL1    C1 9258   0.651   2.199   7.197 -0.7801  0.1956  0.2975
   92CHL1   H1A 9259   0.570   2.216   7.272  1.2254  0.3845  2.5200
   92CHL1   H1B 9260   0.719   2.286   7.187 -1.2615  0.4075 -1.6087
   92CHL1    C2 9261   0.593   2.180   7.060 -0.2954 -0.1809 -0.0081
   92CHL1   H2A 9262   0.512   2.251   7.031 -0.5207  1.2126  3.5028
   92CHL1   H2B 9263   0.542   2.082   7.055  0.2552 -0.4394 -0.7850
   92CHL1   C20 9264   0.860   2.169   7.962  0.3880 -0.0062 -0.1712
   92CHL1   H20 9265   0.788   2.086   7.982  1.3097 -0.8729 -0.3728
   92CHL1   C21 9266   0.781   2.304   7.967  0.0646 -0.3889 -0.5171
   92CHL1  H21A 9267   0.718   2.311   8.058  0.7309  1.0353 -0.1401
   92CHL1  H21B 9268   0.700   2.312   7.891 -0.0876  0.6610 -0.2566
   92CHL1  H21C 9269   0.840   2.398   7.974 -0.6614 -0.0676  3.1720
   92CHL1   C22 9270   0.964   2.166   8.074 -0.2977  0.3166 -0.5317
   92CHL1  H22A 9271   0.985   2.057   8.080 -0.3189  0.3603  0.3660
   92CHL1  H22B 9272   1.057   2.218   8.045 -0.7527  1.6650  0.3198
   92CHL1   C23 9273   0.919   2.194   8.223 -0.1026  0.2417 -0.5409
   92CHL1  H23A 9274   0.896   2.303   8.218 -2.0867 -0.0374  1.2360
   92CHL1  H23B 9275   0.818   2.150   8.240 -0.5102  1.1095 -0.6221
   92CHL1   C24 9276   1.031   2.177   8.336  0.4916  0.7733  0.3251
   92CHL1  H24A 9277   1.074   2.075   8.340  0.1776  0.4784 -2.2274
   92CHL1  H24B 9278   1.115   2.242   8.306  0.4669  0.5573 -0.2074
   92CHL1   C25 9279   0.989   2.226   8.469 -0.0203 -0.2118 -0.1232
   92CHL1   H25 9280   0.954   2.331   8.466 -0.1263 -0.2290  0.4216
   92CHL1   C26 9281   0.877   2.135   8.527 -0.3291 -0.0248 -0.1526
   92CHL1  H26A 9282   0.858   2.138   8.636 -1.4316 -0.3996 -0.3194
   92CHL1  H26B 9283   0.774   2.148   8.487 -1.3484 -2.3167  1.5331
   92CHL1  H26C 9284   0.909   2.032   8.503 -0.9798 -0.2049 -0.2644
   92CHL1   C27 9285   1.116   2.237   8.565 -0.2931 -0.2973  0.3280
   92CHL1  H27A 9286   1.175   2.142   8.564  3.4447  1.6817  3.5432
   92CHL1  H27B 9287   1.193   2.310   8.531 -0.1504  0.6972  2.6131
   92CHL1  H27C 9288   1.091   2.277   8.665 -0.2720  2.3586 -0.6446
   93CHL1    C3 9289   6.649   6.318   6.980 -0.5987 -0.6914  0.6347
   93CHL1    H3 9290   6.734   6.253   7.009 -1.5063 -2.3212 -0.2241
   93CHL1    O3 9291   6.665   6.342   6.842  0.2158 -0.3060  0.1377
   93CHL1   H3' 9292   6.732   6.411   6.846 -1.2189  1.0865  1.6775
   93CHL1    C4 9293   6.523   6.242   7.009 -0.3061  0.1367 -0.4848
   93CHL1   H4A 9294   6.436   6.290   6.959 -2.3244  0.1469  2.7526
   93CHL1   H4B 9295   6.546   6.143   6.964  1.0732  0.4742 -0.5518
   93CHL1    C5 9296   6.494   6.230   7.156 -0.4299 -0.1821 -0.1565
   93CHL1    C6 9297   6.471   6.104   7.202 -0.6217  0.4255  0.3982
   93CHL1    H6 9298   6.468   6.022   7.129  1.9192  0.3407  0.2761
   93CHL1    C7 9299   6.427   6.080   7.345  0.0377  0.0462  0.1486
   93CHL1   H7A 9300   6.330   6.026   7.345  0.6400 -1.0809 -1.2464
   93CHL1   H7B 9301   6.493   6.009   7.399 -0.6345  0.6080  1.7709
   93CHL1    C8 9302   6.405   6.210   7.425  1.3410 -0.0790  0.0243
   93CHL1    H8 9303   6.301   6.248   7.415  1.1575 -0.0118  1.8747
   93CHL1   C14 9304   6.412   6.185   7.572  0.2109 -0.1133  0.0728
   93CHL1   H14 9305   6.520   6.170   7.592  0.4501 -0.0626 -1.0928
   93CHL1   C15 9306   6.339   6.057   7.627 -0.3779 -0.4958  0.4489
   93CHL1  H15A 9307   6.240   6.048   7.578 -0.5433  0.4460  0.6070
   93CHL1  H15B 9308   6.410   5.973   7.609 -1.4528 -1.5137  0.7833
   93CHL1   C16 9309   6.340   6.082   7.776 -0.1742  0.9189 -0.2970
   93CHL1  H16A 9310   6.239   6.075   7.821  1.2999 -0.9737  3.1551
   93CHL1  H16B 9311   6.395   5.999   7.828 -0.4157  1.0625  0.1921
   93CHL1   C17 9312   6.402   6.218   7.802 -0.1511 -0.2617 -0.3030
   93CHL1   H17 9313   6.511   6.198   7.804 -0.3886 -1.7054 -0.5905
   93CHL1   C13 9314   6.375   6.297   7.668 -0.5298  0.3262  0.6946
   93CHL1   C18 9315   6.224   6.335   7.659 -0.5216 -0.0971  0.1300
   93CHL1  H18A 9316   6.157   6.250   7.682  1.5900 -1.8108  0.1577
   93CHL1  H18B 9317   6.196   6.426   7.718  1.1220 -0.0540  0.8807
   93CHL1  H18C 9318   6.211   6.371   7.555 -0.5417 -2.1568 -0.6218
   93CHL1   C12 9319   6.467   6.417   7.631 -0.1164  0.7437  0.1865
   93CHL1  H12A 9320   6.432   6.507   7.688  0.4312  2.6265 -2.2688
   93CHL1  H12B 9321   6.564   6.389   7.677 -1.5759  0.4127  3.3345
   93CHL1   C11 9322   6.471   6.457   7.478 -0.3391  0.6478 -0.1756
   93CHL1  H11A 9323   6.380   6.513   7.448 -0.1547  0.9938 -0.0919
   93CHL1  H11B 9324   6.560   6.523   7.471 -0.5148  1.6062  4.0904
   93CHL1    C9 9325   6.491   6.328   7.386 -0.8800 -0.7547 -0.4663
   93CHL1    H9 9326   6.591   6.294   7.422 -1.5006  1.0677  3.5252
   93CHL1   C10 9327   6.496   6.362   7.236  0.6079 -0.2756 -0.0895
   93CHL1   C19 9328   6.369   6.454   7.195 -0.3803 -0.0843 -0.6564
   93CHL1  H19A 9329   6.370   6.467   7.084  1.7948 -0.3656 -0.7088
   93CHL1  H19B 9330   6.274   6.404   7.226  1.6591 -3.8449  0.0380
   93CHL1  H19C 9331   6.374   6.552   7.247 -1.4783 -0.3830  0.0371
   93CHL1    C1 9332   6.630   6.435   7.201 -1.0655 -0.4007  0.1704
   93CHL1   H1A 9333   6.610   6.536   7.241  0.2764 -0.5133  1.1959
   93CHL1   H1B 9334   6.715   6.400   7.263 -0.0047  2.0168  0.1863
   93CHL1    C2 9335   6.659   6.452   7.052  0.0744 -0.4823  0.3352
   93CHL1   H2A 9336   6.762   6.493   7.054  0.7770 -2.1247  2.9566
   93CHL1   H2B 9337   6.585   6.520   7.005 -1.4466 -1.6751  0.9175
   93CHL1   C20 9338   6.364   6.274   7.939  0.5422 -0.1858 -1.0585
   93CHL1   H20 9339   6.254   6.288   7.936  0.3889 -0.8048  0.7126
   93CHL1   C21 9340   6.434   6.409   7.964 -0.1840 -0.1265  0.8303
   93CHL1  H21A 9341   6.415   6.449   8.065  1.0636  0.0608  1.0048
   93CHL1  H21B 9342   6.398   6.491   7.898 -0.2243 -0.3485  0.5698
   93CHL1  H21C 9343   6.544   6.396   7.960 -0.1886 -0.1155  0.6136
   93CHL1   C22 9344   6.401   6.173   8.050 -0.3270 -0.2106 -0.3203
   93CHL1  H22A 9345   6.390   6.068   8.016  0.3424  0.7485 -3.9995
   93CHL1  H22B 9346   6.510   6.174   8.074 -0.2237 -1.5954 -0.6533
   93CHL1   C23 9347   6.314   6.178   8.175  0.3357 -0.4143 -0.5992
   93CHL1  H23A 9348   6.313   6.279   8.221  2.1633  0.1029 -1.5662
   93CHL1  H23B 9349   6.211   6.162   8.138 -0.6577  0.7985  1.4844
   93CHL1   C24 9350   6.361   6.076   8.287 -0.0892  0.3029  0.5148
   93CHL1  H24A 9351   6.348   5.972   8.250 -1.3410 -1.1953  4.6703
   93CHL1  H24B 9352   6.472   6.084   8.298  0.1396 -2.3877  0.8670
   93CHL1   C25 9353   6.295   6.097   8.424  0.1176  0.5686  0.2847
   93CHL1   H25 9354   6.308   6.207   8.440 -1.0734  0.4512  2.5020
   93CHL1   C26 9355   6.143   6.069   8.424 -0.3939  0.4382  0.8495
   93CHL1  H26A 9356   6.107   6.073   8.529  2.2199  1.5207  1.8029
   93CHL1  H26B 9357   6.096   6.151   8.365  0.9882  0.4676 -0.2655
   93CHL1  H26C 9358   6.128   5.970   8.377 -1.2168  1.3949 -0.9946
   93CHL1   C27 9359   6.372   6.022   8.537  0.0105  0.1488  0.5235
   93CHL1  H27A 9360   6.320   6.045   8.632 -2.3814 -1.2189 -0.3766
   93CHL1  H27B 9361   6.360   5.912   8.531  0.6544  0.1560 -3.0651
   93CHL1  H27C 9362   6.480   6.047   8.545  0.0345 -0.1327  1.1725
   94CHL1    C3 9363   0.550   2.703   6.866 -0.1514  0.1793  0.1141
   94CHL1    H3 9364   0.635   2.774   6.874  1.6739 -2.0271  1.4538
   94CHL1    O3 9365   0.518   2.697   6.732  0.0854 -0.3223  0.0388
   94CHL1   H3' 9366   0.450   2.629   6.719  2.3735 -2.2310 -4.4519
   94CHL1    C4 9367   0.602   2.570   6.920  0.1105  0.7899  0.2852
   94CHL1   H4A 9368   0.512   2.504   6.919  1.9785 -1.9184  0.1611
   94CHL1   H4B 9369   0.666   2.518   6.846 -0.8638  1.0370 -0.7585
   94CHL1    C5 9370   0.656   2.578   7.058 -0.8202  0.6257  0.2037
   94CHL1    C6 9371   0.783   2.544   7.087 -0.3633  0.3318  0.1058
   94CHL1    H6 9372   0.858   2.526   7.008  3.0023 -0.5391  3.2081
   94CHL1    C7 9373   0.834   2.552   7.229 -0.1590 -0.0840  0.1201
   94CHL1   H7A 9374   0.897   2.463   7.253  0.0550  0.2588  0.8504
   94CHL1   H7B 9375   0.903   2.639   7.233 -0.8741  0.5023  0.0098
   94CHL1    C8 9376   0.724   2.575   7.341  0.1000  0.0422  0.3918
   94CHL1    H8 9377   0.673   2.478   7.358  0.5582 -0.1022  0.9955
   94CHL1   C14 9378   0.788   2.621   7.472  0.7430 -0.0980 -0.2079
   94CHL1   H14 9379   0.843   2.714   7.446  0.6306 -0.3487 -1.3886
   94CHL1   C15 9380   0.887   2.517   7.527 -0.5350 -0.2809 -0.4823
   94CHL1  H15A 9381   0.841   2.416   7.528  0.5844 -0.9965  4.3207
   94CHL1  H15B 9382   0.984   2.521   7.474 -0.1911 -2.0565 -0.0318
   94CHL1   C16 9383   0.898   2.578   7.668 -0.5403  0.5059  0.0692
   94CHL1  H16A 9384   0.893   2.492   7.737 -0.5310  0.6646  0.2677
   94CHL1  H16B 9385   0.998   2.617   7.694 -0.8888  1.4755 -0.0049
   94CHL1   C17 9386   0.787   2.678   7.697  0.1342  0.4369 -0.6800
   94CHL1   H17 9387   0.838   2.776   7.685 -0.9905  1.2616  0.8942
   94CHL1   C13 9388   0.692   2.663   7.581  0.0319  0.1135 -0.7501
   94CHL1   C18 9389   0.584   2.554   7.612 -0.5963  0.3602 -0.1682
   94CHL1  H18A 9390   0.632   2.470   7.666 -1.5905 -0.0432  0.1052
   94CHL1  H18B 9391   0.500   2.582   7.679 -0.7620  1.8577 -0.9540
   94CHL1  H18C 9392   0.533   2.508   7.525  0.4595 -1.6144  0.2025
   94CHL1   C12 9393   0.618   2.787   7.521  0.2983  0.9791  0.9864
   94CHL1  H12A 9394   0.543   2.820   7.596 -0.6647  1.3159 -0.0899
   94CHL1  H12B 9395   0.690   2.867   7.495  0.0780  1.2395  1.1661
   94CHL1   C11 9396   0.537   2.742   7.398  0.2265  0.0513 -0.2062
   94CHL1  H11A 9397   0.451   2.679   7.431 -1.7101  1.9016 -1.4771
   94CHL1  H11B 9398   0.491   2.836   7.360 -1.0837  0.6712  2.6986
   94CHL1    C9 9399   0.632   2.683   7.285 -0.0074 -0.5119 -0.5405
   94CHL1    H9 9400   0.700   2.768   7.266 -0.1630  0.1019  1.4066
   94CHL1   C10 9401   0.558   2.640   7.158  0.2607  0.0276  0.2963
   94CHL1   C19 9402   0.449   2.540   7.194 -0.0948 -0.0235  0.5497
   94CHL1  H19A 9403   0.478   2.436   7.222  2.2599  0.3875 -0.0912
   94CHL1  H19B 9404   0.378   2.577   7.271  0.5846 -0.5559  1.4565
   94CHL1  H19C 9405   0.382   2.522   7.108 -0.3487 -1.7280  1.0614
   94CHL1    C1 9406   0.479   2.765   7.097 -0.2859 -0.2641 -0.3440
   94CHL1   H1A 9407   0.382   2.781   7.149 -0.2408 -2.4968  0.5530
   94CHL1   H1B 9408   0.542   2.856   7.105  0.5982 -1.0231  2.4386
   94CHL1    C2 9409   0.436   2.748   6.950  0.7579 -0.4994  0.1141
   94CHL1   H2A 9410   0.399   2.845   6.913  1.3832  0.0405  0.8513
   94CHL1   H2B 9411   0.359   2.668   6.947  1.0545 -0.9308  2.1201
   94CHL1   C20 9412   0.737   2.681   7.841 -0.3348 -0.0474 -0.4529
   94CHL1   H20 9413   0.685   2.586   7.865 -0.2858 -0.1406 -0.7146
   94CHL1   C21 9414   0.637   2.792   7.861  0.3255 -0.1654  0.1051
   94CHL1  H21A 9415   0.661   2.889   7.814  0.0448  0.2264  0.7459
   94CHL1  H21B 9416   0.635   2.800   7.972  0.5482 -3.3376  0.4343
   94CHL1  H21C 9417   0.532   2.766   7.834  1.0194 -1.2125 -1.7178
   94CHL1   C22 9418   0.846   2.681   7.953 -0.8372  0.2831  0.2466
   94CHL1  H22A 9419   0.914   2.594   7.944 -1.1551  0.0991 -0.4390
   94CHL1  H22B 9420   0.911   2.771   7.952  1.2798 -1.1253  1.7601
   94CHL1   C23 9421   0.797   2.667   8.099  0.0888 -0.1617 -0.4145
   94CHL1  H23A 9422   0.740   2.760   8.121 -1.4705 -0.7830 -1.6147
   94CHL1  H23B 9423   0.736   2.577   8.121  0.1179  0.1535  1.0742
   94CHL1   C24 9424   0.911   2.653   8.199 -0.3091  0.7381  0.3183
   94CHL1  H24A 9425   0.970   2.565   8.167 -0.1508  1.6686 -2.2272
   94CHL1  H24B 9426   0.966   2.749   8.185  1.8864 -0.4512  0.4186
   94CHL1   C25 9427   0.873   2.644   8.347 -0.4134  0.2247 -0.5215
   94CHL1   H25 9428   0.791   2.569   8.352 -1.0416  0.7259 -2.4956
   94CHL1   C26 9429   0.998   2.598   8.424 -0.1409  0.0242  0.9057
   94CHL1  H26A 9430   1.063   2.685   8.450 -0.1445  0.5095 -0.5863
   94CHL1  H26B 9431   0.971   2.538   8.513  2.1801 -1.6160  0.5763
   94CHL1  H26C 9432   1.059   2.530   8.362 -0.3090  0.2766  0.4558
   94CHL1   C27 9433   0.814   2.771   8.410 -0.3104  0.4560 -0.0893
   94CHL1  H27A 9434   0.793   2.763   8.519 -0.0382 -3.7037 -0.1637
   94CHL1  H27B 9435   0.897   2.845   8.403 -1.4029  1.8938  1.5659
   94CHL1  H27C 9436   0.728   2.815   8.356 -1.4854 -2.3250 -0.6876
   95CHL1    C3 9437   2.095   1.557   6.813  0.4293 -0.1433  0.5074
   95CHL1    H3 9438   2.113   1.667   6.815 -0.6784  0.0541  2.5946
   95CHL1    O3 9439   2.109   1.502   6.683  0.3963 -0.0453  0.0181
   95CHL1   H3' 9440   2.149   1.416   6.696  0.9834  0.1304 -0.5581
   95CHL1    C4 9441   2.198   1.492   6.912  0.3301  0.2005 -0.1375
   95CHL1   H4A 9442   2.170   1.385   6.905  2.6399 -0.4620 -0.2597
   95CHL1   H4B 9443   2.296   1.508   6.862 -1.4138  2.9128 -3.0271
   95CHL1    C5 9444   2.187   1.543   7.054 -0.2160 -0.3016 -0.0703
   95CHL1    C6 9445   2.294   1.593   7.119  0.1890 -0.5253  0.3009
   95CHL1    H6 9446   2.394   1.586   7.076  0.7662 -1.2657  1.7008
   95CHL1    C7 9447   2.282   1.646   7.260 -0.9304  0.4494  0.3634
   95CHL1   H7A 9448   2.378   1.630   7.312  0.1602  0.8224 -1.4436
   95CHL1   H7B 9449   2.269   1.755   7.243  0.3864  0.5887  0.2192
   95CHL1    C8 9450   2.159   1.593   7.336 -0.3063 -0.0683 -0.1099
   95CHL1    H8 9451   2.166   1.486   7.366  0.8418 -0.6687 -2.3550
   95CHL1   C14 9452   2.130   1.672   7.467 -0.0711 -0.6902 -0.1224
   95CHL1   H14 9453   2.108   1.775   7.430 -0.5202 -0.4391  0.8149
   95CHL1   C15 9454   2.244   1.696   7.564  0.1062  0.7734 -0.0006
   95CHL1  H15A 9455   2.312   1.609   7.572 -0.7360  0.1503  0.5854
   95CHL1  H15B 9456   2.306   1.784   7.536  0.9514  0.6018  1.2467
   95CHL1   C16 9457   2.171   1.718   7.703  0.1568 -0.3583  0.0316
   95CHL1  H16A 9458   2.197   1.630   7.765  2.3298 -1.5704 -2.3785
   95CHL1  H16B 9459   2.211   1.805   7.761  1.4069  1.1241 -2.8403
   95CHL1   C17 9460   2.020   1.722   7.670  0.4862 -0.4738 -0.5233
   95CHL1   H17 9461   1.998   1.823   7.629 -3.0034 -0.2189  1.6031
   95CHL1   C13 9462   2.005   1.629   7.551 -0.6047 -0.5236  0.4605
   95CHL1   C18 9463   2.025   1.482   7.591  0.3033  0.4569 -0.4257
   95CHL1  H18A 9464   1.951   1.451   7.667 -0.4069  0.0163 -1.2792
   95CHL1  H18B 9465   2.016   1.411   7.506  0.0628 -1.4634  1.1489
   95CHL1  H18C 9466   2.117   1.449   7.644 -0.4029 -2.7443 -1.0076
   95CHL1   C12 9467   1.877   1.661   7.459  0.2414  0.3173  0.0060
   95CHL1  H12A 9468   1.780   1.634   7.504  0.4872  2.5385  2.1137
   95CHL1  H12B 9469   1.873   1.772   7.449 -2.3249  0.1426 -1.7732
   95CHL1   C11 9470   1.900   1.601   7.324  0.1399  0.2245  0.4738
   95CHL1  H11A 9471   1.888   1.494   7.348 -0.2125  0.3092  0.6780
   95CHL1  H11B 9472   1.820   1.620   7.249 -0.5436 -2.3374  0.4699
   95CHL1    C9 9473   2.032   1.616   7.250 -0.7014 -0.8002 -0.4013
   95CHL1    H9 9474   2.042   1.724   7.225  1.1843 -0.2252  2.3501
   95CHL1   C10 9475   2.045   1.536   7.117 -0.1628  0.2650 -0.4686
   95CHL1   C19 9476   2.017   1.385   7.142  0.3187 -0.6445 -0.0734
   95CHL1  H19A 9477   1.919   1.375   7.193  0.3439  1.4731  0.4758
   95CHL1  H19B 9478   2.001   1.333   7.045 -2.8907  0.9766 -0.5508
   95CHL1  H19C 9479   2.090   1.333   7.207 -1.3328 -1.7964  0.9638
   95CHL1    C1 9480   1.948   1.596   7.014 -0.2674 -0.0123  1.0303
   95CHL1   H1A 9481   1.844   1.590   7.054 -0.7099 -1.1480 -0.2091
   95CHL1   H1B 9482   1.967   1.706   7.016 -0.5793  0.0397  2.7025
   95CHL1    C2 9483   1.948   1.539   6.867  0.0059  0.5891  0.1713
   95CHL1   H2A 9484   1.882   1.590   6.793  0.2562  1.7715  0.7380
   95CHL1   H2B 9485   1.935   1.428   6.867  1.0133  0.4251  2.1075
   95CHL1   C20 9486   1.914   1.713   7.790 -0.1061 -0.3984 -0.2472
   95CHL1   H20 9487   1.815   1.681   7.754 -0.0556  0.3181 -1.0598
   95CHL1   C21 9488   1.882   1.857   7.832 -1.0661  0.6710 -0.3713
   95CHL1  H21A 9489   1.812   1.867   7.918 -0.9066  0.3750 -0.2079
   95CHL1  H21B 9490   1.839   1.912   7.745  0.5384 -0.0898 -1.6957
   95CHL1  H21C 9491   1.980   1.900   7.861 -0.9434  0.7291 -0.8692
   95CHL1   C22 9492   1.955   1.616   7.912 -0.3764 -0.0436 -0.0611
   95CHL1  H22A 9493   2.001   1.527   7.863  2.8628  1.7870 -0.6166
   95CHL1  H22B 9494   2.036   1.672   7.964 -0.5579  0.1747 -0.0139
   95CHL1   C23 9495   1.855   1.561   8.014  0.3875 -0.8359  0.1914
   95CHL1  H23A 9496   1.823   1.652   8.069 -1.3136 -1.1063 -0.2978
   95CHL1  H23B 9497   1.758   1.537   7.966 -0.5655  1.6476  0.7204
   95CHL1   C24 9498   1.914   1.455   8.106  0.0559 -0.2344  0.7540
   95CHL1  H24A 9499   1.950   1.376   8.036  1.7898  1.5954 -0.5384
   95CHL1  H24B 9500   2.010   1.496   8.144 -0.2437  2.0440 -0.7405
   95CHL1   C25 9501   1.833   1.397   8.228 -0.6782 -0.4531 -0.6460
   95CHL1   H25 9502   1.747   1.335   8.195 -0.9365  0.4515 -1.7742
   95CHL1   C26 9503   1.913   1.298   8.309  0.1461 -0.3299  0.6167
   95CHL1  H26A 9504   1.855   1.262   8.396  0.5084  0.6917  1.3096
   95CHL1  H26B 9505   1.945   1.216   8.241  2.2243  0.7228  0.2343
   95CHL1  H26C 9506   2.004   1.353   8.342  0.7864  0.3014 -1.9997
   95CHL1   C27 9507   1.784   1.510   8.311  0.2162  0.4697  0.1189
   95CHL1  H27A 9508   1.743   1.602   8.265 -0.4079  0.4916  0.7210
   95CHL1  H27B 9509   1.701   1.480   8.378 -1.6854  0.4174 -2.0981
   95CHL1  H27C 9510   1.869   1.549   8.370  0.1374 -0.8169  1.1388
   96CHL1    C3 9511   1.126   5.766   6.603 -0.1912 -0.0475 -0.1038
   96CHL1    H3 9512   1.077   5.866   6.611 -1.3750 -0.7442  2.1311
   96CHL1    O3 9513   1.193   5.758   6.486 -0.7361 -0.2135  0.3946
   96CHL1   H3' 9514   1.179   5.671   6.449 -2.6886  0.4483 -0.5361
   96CHL1    C4 9515   1.233   5.760   6.713  0.4018  0.2045  0.0478
   96CHL1   H4A 9516   1.282   5.661   6.707 -2.1228 -1.0378 -2.8279
   96CHL1   H4B 9517   1.308   5.835   6.680  1.2747 -0.4337  0.5422
   96CHL1    C5 9518   1.154   5.786   6.841 -0.2786 -0.1694 -0.0666
   96CHL1    C6 9519   1.188   5.885   6.922 -0.1557 -0.5896  0.0207
   96CHL1    H6 9520   1.269   5.954   6.893 -0.7764 -0.8835 -2.6964
   96CHL1    C7 9521   1.126   5.915   7.057  0.3319  0.3009 -0.4156
   96CHL1   H7A 9522   1.209   5.928   7.130  0.3290 -1.6235 -0.0141
   96CHL1   H7B 9523   1.071   6.012   7.059  0.9882  0.6718  1.0930
   96CHL1    C8 9524   1.049   5.789   7.106 -0.0376  0.1838  0.4674
   96CHL1    H8 9525   1.130   5.717   7.132  1.4597  0.7449 -2.2678
   96CHL1   C14 9526   0.977   5.818   7.234  0.2789  0.2000 -0.7051
   96CHL1   H14 9527   0.897   5.890   7.208 -0.4974 -0.5778 -0.5393
   96CHL1   C15 9528   1.057   5.880   7.360  0.1695  0.0818  0.4708
   96CHL1  H15A 9529   1.155   5.828   7.370 -0.5513 -1.6443 -0.8016
   96CHL1  H15B 9530   1.076   5.984   7.327  1.8409 -0.4163 -0.2732
   96CHL1   C16 9531   0.974   5.843   7.479  0.2359 -0.4711  0.3851
   96CHL1  H16A 9532   1.038   5.786   7.550  0.7909 -0.3009  0.0302
   96CHL1  H16B 9533   0.933   5.932   7.531  0.4014 -0.3549  0.3165
   96CHL1   C17 9534   0.858   5.746   7.434  0.8942 -0.3510  0.3354
   96CHL1   H17 9535   0.772   5.811   7.404  1.9829  0.8356 -0.3069
   96CHL1   C13 9536   0.906   5.694   7.295 -0.2825  0.4636  0.3054
   96CHL1   C18 9537   1.005   5.577   7.320  0.4410  0.0062 -0.0435
   96CHL1  H18A 9538   1.058   5.537   7.231  0.0371 -0.0453 -0.2661
   96CHL1  H18B 9539   1.089   5.619   7.378 -0.5738 -0.4740  1.8574
   96CHL1  H18C 9540   0.957   5.495   7.378 -1.7729 -0.2948 -2.1216
   96CHL1   C12 9541   0.796   5.654   7.201 -0.6433  0.4749 -0.2074
   96CHL1  H12A 9542   0.740   5.565   7.238  1.3629 -0.6722  0.2418
   96CHL1  H12B 9543   0.727   5.741   7.197  0.8383  1.6935 -3.9821
   96CHL1   C11 9544   0.857   5.619   7.063  0.3273 -0.5094  0.5286
   96CHL1  H11A 9545   0.915   5.525   7.074 -1.6468 -1.7974  0.4742
   96CHL1  H11B 9546   0.776   5.589   6.993  1.6179 -1.6972 -0.5004
   96CHL1    C9 9547   0.956   5.728   7.000 -0.2740 -0.4439  0.4358
   96CHL1    H9 9548   0.889   5.811   6.968  0.5560  0.7323  1.6878
   96CHL1   C10 9549   1.036   5.687   6.875 -0.1401  0.1404 -0.1811
   96CHL1   C19 9550   1.107   5.555   6.905 -0.2443  0.4701  0.2858
   96CHL1  H19A 9551   1.175   5.562   6.993  0.9277 -2.5951 -0.2308
   96CHL1  H19B 9552   1.022   5.488   6.928  0.7876 -0.5035  1.4365
   96CHL1  H19C 9553   1.157   5.501   6.821 -0.2469 -0.1328  0.6680
   96CHL1    C1 9554   0.951   5.673   6.755 -1.0431  0.1669  0.4590
   96CHL1   H1A 9555   0.884   5.585   6.771 -1.0818 -0.1149 -1.1322
   96CHL1   H1B 9556   0.888   5.764   6.745  1.8032  2.0016 -2.3124
   96CHL1    C2 9557   1.025   5.654   6.620  0.3245  0.6282 -0.4556
   96CHL1   H2A 9558   0.951   5.652   6.537  0.6317  2.7459 -0.8320
   96CHL1   H2B 9559   1.064   5.550   6.615 -2.4280 -0.4995 -0.4821
   96CHL1   C20 9560   0.805   5.651   7.546 -0.2823  0.0388  0.2045
   96CHL1   H20 9561   0.894   5.589   7.568  0.9004  1.3605 -0.6322
   96CHL1   C21 9562   0.678   5.577   7.505 -0.3875  0.0532 -0.5003
   96CHL1  H21A 9563   0.599   5.647   7.469  0.0410  0.4002 -0.7632
   96CHL1  H21B 9564   0.632   5.526   7.593 -1.0061  0.5851 -0.5017
   96CHL1  H21C 9565   0.688   5.504   7.422 -1.5639 -0.7678  0.0391
   96CHL1   C22 9566   0.782   5.727   7.679  0.2520 -0.4328  0.4833
   96CHL1  H22A 9567   0.854   5.809   7.695 -0.4304  0.6903 -1.7854
   96CHL1  H22B 9568   0.688   5.785   7.665  1.5044  1.4194 -0.6174
   96CHL1   C23 9569   0.773   5.629   7.798 -0.1206  0.1116 -0.1582
   96CHL1  H23A 9570   0.670   5.588   7.808 -0.2975  1.1268  4.4038
   96CHL1  H23B 9571   0.841   5.543   7.780  1.8273  1.5261  0.1739
   96CHL1   C24 9572   0.817   5.700   7.933 -0.0803 -1.0772 -0.2539
   96CHL1  H24A 9573   0.911   5.758   7.917 -0.5889  0.6465  2.3617
   96CHL1  H24B 9574   0.734   5.773   7.944  0.3231 -0.8420  1.5325
   96CHL1   C25 9575   0.840   5.610   8.049 -0.1350  0.2398  0.5388
   96CHL1   H25 9576   0.738   5.579   8.078 -1.7414  2.7455 -1.9164
   96CHL1   C26 9577   0.925   5.491   8.017 -0.1870 -0.0176  0.2117
   96CHL1  H26A 9578   0.876   5.425   7.942 -0.3827  0.7234 -0.3349
   96CHL1  H26B 9579   1.030   5.515   7.989  0.4717 -3.3891 -0.6897
   96CHL1  H26C 9580   0.932   5.424   8.105  2.4156  0.4284  0.4352
   96CHL1   C27 9581   0.907   5.674   8.170 -0.0695  0.2167  0.1598
   96CHL1  H27A 9582   0.907   5.611   8.261 -1.1690  0.7249  0.5268
   96CHL1  H27B 9583   1.005   5.709   8.133  0.1751 -0.6586 -0.0581
   96CHL1  H27C 9584   0.834   5.752   8.198  1.9204  1.7327  1.3569
   97OSM      N 9585   6.023   5.350  11.353  0.0291  0.0167  0.0471
   97OSM    C15 9586   6.160   5.288  11.333  0.2338 -0.3954  0.0753
   97OSM   H15A 9587   6.179   5.215  11.410  1.9082  0.2144  0.2810
   97OSM   H15B 9588   6.245   5.355  11.339 -1.2868  1.8857 -1.7411
   97OSM   H15C 9589   6.160   5.250  11.232 -5.0361  0.8273 -0.6777
   97OSM    C14 9590   5.934   5.233  11.348  0.4134 -0.2088  0.3916
   97OSM   H14A 9591   5.841   5.263  11.395  1.0570  0.7682  1.0637
   97OSM   H14B 9592   5.973   5.149  11.402 -1.2328 -0.9043  0.5640
   97OSM   H14C 9593   5.917   5.195  11.248  1.2065 -0.6071  0.4001
   97OSM    C13 9594   6.018   5.396  11.495 -0.3926  0.2435  0.3444
   97OSM   H13A 9595   5.925   5.444  11.522 -2.1725 -3.5649  1.6112
   97OSM   H13B 9596   6.099   5.462  11.520  1.6531 -1.6814 -0.8447
   97OSM   H13C 9597   6.021   5.314  11.565 -1.3028  0.2827  0.4469
   97OSM    C12 9598   5.994   5.461  11.258 -0.5763  0.2979  0.5065
   97OSM   H12A 9599   6.084   5.521  11.252  1.1359 -2.2999 -2.0118
   97OSM   H12B 9600   5.908   5.519  11.291 -1.6562 -0.5181 -0.8017
   97OSM    C11 9601   5.983   5.409  11.110 -0.0927  0.5030 -0.6540
   97OSM   H11A 9602   6.075   5.355  11.080  0.0886  0.4936 -0.0910
   97OSM   H11B 9603   5.981   5.497  11.042 -0.4213 -0.3687 -1.7952
   97OSM      P 9604   5.725   5.393  11.091  0.3832 -0.4148  0.2836
   97OSM    O13 9605   5.629   5.288  11.138 -0.4108 -0.0481 -0.9951
   97OSM    O14 9606   5.723   5.524  11.156  0.4661 -0.5585 -0.0241
   97OSM    O11 9607   5.701   5.417  10.936  0.2847  0.1570  0.0333
   97OSM    O12 9608   5.870   5.327  11.098  0.4995 -0.0871  0.1086
   97OSM    C1S 9609   5.795   5.377  10.837 -0.2106  0.5383 -0.6523
   97OSM    H1S 9610   5.841   5.281  10.870 -2.0556 -0.9504 -2.1583
   97OSM    H1T 9611   5.872   5.457  10.832  0.3608  0.0400 -0.0375
   97OSM     NF 9612   5.837   5.319  10.600 -0.5211  0.0900  0.3001
   97OSM    HNF 9613   5.860   5.399  10.546 -0.3973 -0.7305 -0.8840
   97OSM    C2S 9614   5.732   5.346  10.698 -0.0040 -0.0487 -0.2363
   97OSM    H2S 9615   5.673   5.252  10.709  2.2961 -1.4680  0.7752
   97OSM    C3S 9616   5.634   5.451  10.657  0.6876  0.3487  0.6075
   97OSM    H3S 9617   5.692   5.544  10.642  1.2530  0.2276  1.8643
   97OSM     O3 9618   5.537   5.485  10.756  0.2290  0.2598 -0.5852
   97OSM    HO3 9619   5.572   5.441  10.834 -0.5909  2.1197  0.8976
   97OSM    C4S 9620   5.563   5.408  10.531 -0.0959  0.1994 -0.3067
   97OSM    H4S 9621   5.488   5.327  10.541  0.2628 -0.2314 -1.0607
   97OSM    C5S 9622   5.590   5.448  10.406 -0.4955 -0.0499 -0.6583
   97OSM    H5S 9623   5.683   5.505  10.390 -0.7929  1.6549  2.8343
   97OSM    C6S 9624   5.526   5.391  10.290 -0.2501  0.0107 -0.1504
   97OSM    H6S 9625   5.419   5.418  10.280 -0.3489 -0.0177  0.8073
   97OSM    H6T 9626   5.526   5.281  10.296  0.7807  0.0937  2.2061
   97OSM    C7S 9627   5.591   5.438  10.158  0.3924  0.1437  0.0516
   97OSM    H7S 9628   5.700   5.432  10.175  0.5182  1.3126 -0.2273
   97OSM    H7T 9629   5.595   5.548  10.141 -0.2623 -0.1092 -2.1147
   97OSM    C8S 9630   5.532   5.355  10.045  0.2020  0.6474 -0.4684
   97OSM    H8S 9631   5.422   5.363  10.032  0.4357  0.9128 -2.8406
   97OSM    H8T 9632   5.552   5.247  10.063 -4.2394 -1.0171 -3.5776
   97OSM    C9S 9633   5.604   5.381   9.905  0.5535  0.2864 -0.1589
   97OSM    H9S 9634   5.711   5.349   9.908 -0.6387 -4.2092  0.1752
   97OSM    H9T 9635   5.604   5.491   9.888  0.5135  0.5315  1.2547
   97OSM   C10S 9636   5.545   5.301   9.790 -0.3586 -0.4401  0.2130
   97OSM   H10S 9637   5.436   5.319   9.778 -0.2370 -0.5797 -1.1466
   97OSM   H10T 9638   5.552   5.193   9.817 -2.8911 -0.4508  1.1345
   97OSM   C11S 9639   5.620   5.332   9.663  0.7545  0.0865  0.2066
   97OSM   H11S 9640   5.726   5.297   9.662  1.6316  2.5202  1.1317
   97OSM   H11T 9641   5.622   5.442   9.652  0.4634  0.0404 -0.3592
   97OSM   C12S 9642   5.556   5.277   9.535  0.0455 -0.3727  0.7679
   97OSM   H12S 9643   5.445   5.280   9.539 -0.1608  1.3288 -2.5228
   97OSM   H12T 9644   5.586   5.171   9.519  1.7960 -0.1860  2.4413
   97OSM   C13S 9645   5.590   5.351   9.406  0.1270  0.1719  0.2916
   97OSM   H13S 9646   5.699   5.357   9.385  0.4613  0.1510  1.8526
   97OSM   H13T 9647   5.563   5.459   9.414 -1.8292  0.0616 -3.1524
   97OSM   C14S 9648   5.522   5.285   9.280 -0.0829  0.0405 -0.4854
   97OSM   H14S 9649   5.519   5.175   9.293  0.3038  0.0854  0.0264
   97OSM   H14T 9650   5.583   5.317   9.193  1.3479  0.9468  0.8086
   97OSM   C15S 9651   5.379   5.337   9.247  0.3508 -0.1391  0.1385
   97OSM   H15S 9652   5.391   5.448   9.252 -0.6586  0.1329 -2.2191
   97OSM   H15T 9653   5.310   5.302   9.327  1.4803 -1.2240  0.6737
   97OSM   C16S 9654   5.333   5.302   9.101  0.1555 -0.3128 -1.3415
   97OSM   H16S 9655   5.409   5.347   9.033 -0.8680 -0.8996 -2.9473
   97OSM   H16T 9656   5.242   5.364   9.088  0.8115  0.8966 -0.3741
   97OSM   C17S 9657   5.308   5.155   9.070  0.0861 -0.2828 -0.0280
   97OSM   H17S 9658   5.401   5.098   9.090  0.4668 -0.1025 -1.2200
   97OSM   H17T 9659   5.281   5.155   8.962  0.5581  1.4479 -0.1706
   97OSM   C18S 9660   5.200   5.089   9.154  0.0836  1.0789  0.4440
   97OSM   H18S 9661   5.183   4.980   9.136  1.5901  0.4159  2.6591
   97OSM   H18T 9662   5.103   5.141   9.139 -0.2949  0.1367 -0.4812
   97OSM   H18U 9663   5.229   5.090   9.261 -0.1678 -2.1520  0.6508
   97OSM    C1F 9664   5.905   5.209  10.603  0.4590  0.8025 -0.8561
   97OSM     OF 9665   5.906   5.121  10.689 -0.1583  0.1782  0.0296
   97OSM    C2F 9666   5.997   5.191  10.493 -0.5736  0.3853 -0.8086
   97OSM    H2F 9667   6.038   5.088  10.498  1.5090  1.2066 -0.3015
   97OSM    H2G 9668   6.082   5.262  10.496  0.7075 -1.0955 -0.9886
   97OSM    C3F 9669   5.913   5.195  10.362 -0.1740  0.0372  0.2000
   97OSM    H3F 9670   5.863   5.291  10.335  2.1795  1.4438  0.5250
   97OSM    H3G 9671   5.836   5.115  10.359  0.9825 -1.0878 -0.9016
   97OSM    C4F 9672   6.007   5.156  10.248 -0.9367  0.2789  0.2775
   97OSM    H4F 9673   6.049   5.056  10.275  0.4302  0.5907 -0.6077
   97OSM    H4G 9674   6.086   5.231  10.230  0.8244 -1.4260  0.5155
   97OSM    C5F 9675   5.917   5.126  10.128 -0.8213  0.8254 -0.1067
   97OSM    H5F 9676   5.826   5.189  10.127  0.2012  2.3284 -0.2134
   97OSM    H5G 9677   5.895   5.017  10.136 -0.5694  0.8808  1.5419
   97OSM    C6F 9678   6.000   5.128   9.994  0.5005 -0.4603  0.0265
   97OSM    H6F 9679   6.088   5.061  10.002  2.1369  1.5601 -0.3336
   97OSM    H6G 9680   6.039   5.229   9.970 -0.9294 -0.0038 -0.5154
   97OSM    C7F 9681   5.909   5.076   9.885  0.7075 -0.3126 -0.5722
   97OSM    H7F 9682   5.837   5.153   9.850  2.7524  1.4204 -1.1115
   97OSM    H7G 9683   5.856   4.982   9.913 -0.7362  0.8337  0.6793
   97OSM    C8F 9684   5.979   5.038   9.752 -0.0772 -0.0540 -0.0451
   97OSM    H8F 9685   5.902   4.984   9.693  0.0292 -2.2081  1.6503
   97OSM    H8G 9686   6.061   4.962   9.753  0.7206  0.7726 -0.4253
   97OSM    C9F 9687   6.023   5.160   9.672  0.3631  0.0459  0.1056
   97OSM    H9F 9688   6.074   5.235   9.734  1.4286 -0.0366 -0.6447
   97OSM   C10F 9689   6.014   5.178   9.537  0.4233 -0.5352  0.6717
   97OSM   H10F 9690   6.045   5.276   9.499  0.0600 -0.6256  0.1273
   97OSM   C11F 9691   5.963   5.081   9.436  0.2885  0.0861  0.1881
   97OSM   H11F 9692   5.856   5.109   9.439  0.1952 -0.3385  2.7630
   97OSM   H11G 9693   5.978   4.974   9.464  2.2950  0.3106  0.1328
   97OSM   C12F 9694   6.037   5.103   9.300 -0.0241 -0.8530  0.3296
   97OSM   H12F 9695   6.144   5.071   9.297  0.1774 -0.1909 -2.6928
   97OSM   H12G 9696   6.040   5.209   9.269 -0.8047 -1.1644 -0.8896
   97OSM   C13F 9697   5.964   5.031   9.185  0.0779 -0.8087  0.1381
   97OSM   H13F 9698   5.873   4.979   9.222 -1.5434  1.8643  0.1829
   97OSM   H13G 9699   6.031   4.957   9.138  0.2449  0.4224 -1.6684
   97OSM   C14F 9700   5.911   5.131   9.084 -0.1614  0.3380  0.6644
   97OSM   H14F 9701   6.001   5.186   9.049 -0.5502  1.4302  1.3587
   97OSM   H14G 9702   5.852   5.211   9.133 -1.3742  0.5295 -1.0260
   97OSM   C15F 9703   5.828   5.066   8.976 -0.0957  0.6309 -0.3650
   97OSM   H15F 9704   5.763   5.150   8.944 -0.4593  1.2694  1.8744
   97OSM   H15G 9705   5.758   4.988   9.011 -1.3099  1.1040 -1.6658
   97OSM   C16F 9706   5.904   5.010   8.854 -0.6487 -0.4230 -0.5981
   97OSM   H16F 9707   5.968   4.931   8.899  1.2573  1.6404  0.5683
   97OSM   H16G 9708   5.963   5.097   8.816  0.1807 -1.6144 -2.1326
   97OSM   C17F 9709   5.815   4.969   8.741  0.1281  0.3417  0.2691
   97OSM   H17F 9710   5.750   4.887   8.778 -0.0383 -0.5611 -1.8361
   97OSM   H17G 9711   5.875   4.929   8.656 -2.6358 -2.5460 -0.5166
   97OSM   C18F 9712   5.723   5.072   8.680 -0.0582  0.3807  0.0736
   97OSM   H18F 9713   5.668   5.038   8.590  0.7233 -1.5012  0.2556
   97OSM   H18G 9714   5.778   5.164   8.652 -2.5450  1.9567 -0.0231
   97OSM   H18H 9715   5.657   5.105   8.763  1.1274  0.7496  0.8964
   98OSM      N 9716   4.417   3.905  11.108 -0.2592 -0.3201  0.1699
   98OSM    C15 9717   4.438   4.054  11.125 -0.7570  0.0668  0.8856
   98OSM   H15A 9718   4.531   4.081  11.171  1.2950 -1.8332 -1.8030
   98OSM   H15B 9719   4.366   4.088  11.197  0.2160  0.3259  1.7538
   98OSM   H15C 9720   4.416   4.114  11.038  1.4257  0.0712  0.2727
   98OSM    C14 9721   4.466   3.830  11.232 -0.4273 -0.0534 -0.0364
   98OSM   H14A 9722   4.398   3.852  11.313 -0.0654 -0.7528  0.4710
   98OSM   H14B 9723   4.560   3.877  11.255  0.1148 -0.7951 -0.6854
   98OSM   H14C 9724   4.466   3.722  11.221 -0.4046 -0.2484  1.6149
   98OSM    C13 9725   4.270   3.883  11.096  0.3517 -0.5141  0.2239
   98OSM   H13A 9726   4.242   3.934  11.004  3.8600  0.1936 -0.6017
   98OSM   H13B 9727   4.215   3.937  11.172  1.3571 -1.3975  1.6231
   98OSM   H13C 9728   4.242   3.779  11.096  0.1226 -0.5663 -2.7868
   98OSM    C12 9729   4.501   3.862  10.992  0.0232  0.2432 -0.3452
   98OSM   H12A 9730   4.480   3.935  10.915 -3.9016  1.1662  1.3728
   98OSM   H12B 9731   4.453   3.776  10.948 -0.3614 -0.5557  1.5345
   98OSM    C11 9732   4.656   3.865  11.013  0.1743 -0.3547  0.2886
   98OSM   H11A 9733   4.698   3.811  10.926  0.1144 -0.8904  0.5892
   98OSM   H11B 9734   4.678   3.792  11.094 -1.2629 -2.6536 -1.2634
   98OSM      P 9735   4.744   4.092  10.890 -0.4047  0.5506 -0.2274
   98OSM    O13 9736   4.759   4.236  10.927 -0.0713  0.3052  0.2357
   98OSM    O14 9737   4.855   4.031  10.816  0.0563 -0.3875 -0.5163
   98OSM    O11 9738   4.610   4.072  10.812  1.2305 -1.5433 -0.8297
   98OSM    O12 9739   4.719   3.994  11.022  0.1805  0.2371 -0.1256
   98OSM    C1S 9740   4.590   4.154  10.693 -0.2296  0.4988 -0.7323
   98OSM    H1S 9741   4.667   4.234  10.684  0.8540 -0.1372  1.8767
   98OSM    H1T 9742   4.491   4.204  10.696 -0.7336 -0.5110 -0.0290
   98OSM     NF 9743   4.624   4.160  10.450 -1.2946 -0.0274 -0.8217
   98OSM    HNF 9744   4.544   4.185  10.396 -1.1627 -1.3693 -1.6681
   98OSM    C2S 9745   4.601   4.073  10.560  0.3291 -0.2751 -0.1495
   98OSM    H2S 9746   4.681   3.998  10.576 -0.7171 -1.3613  0.1146
   98OSM    C3S 9747   4.465   4.001  10.548 -0.5028  0.2856  0.8048
   98OSM    H3S 9748   4.382   4.074  10.530 -1.7859 -1.1655  0.6484
   98OSM     O3 9749   4.422   3.933  10.667  0.7013 -0.3534  0.1943
   98OSM    HO3 9750   4.489   3.966  10.727  0.5028  1.0408 -0.3275
   98OSM    C4S 9751   4.465   3.899  10.433 -0.1317 -0.5692 -0.7110
   98OSM    H4S 9752   4.395   3.923  10.352 -0.4322  0.7716 -0.0868
   98OSM    C5S 9753   4.541   3.786  10.421 -0.3153 -0.4083  0.1605
   98OSM    H5S 9754   4.620   3.764  10.495  0.3107 -0.7734 -0.6010
   98OSM    C6S 9755   4.534   3.692  10.299  0.1183  0.1239 -0.8210
   98OSM    H6S 9756   4.465   3.608  10.322 -0.8014  1.2518  0.7645
   98OSM    H6T 9757   4.632   3.647  10.273 -0.6018 -1.5621 -0.7988
   98OSM    C7S 9758   4.487   3.758  10.157 -0.1143  0.3006 -0.0278
   98OSM    H7S 9759   4.551   3.849  10.163 -0.0386  0.1639  3.1972
   98OSM    H7T 9760   4.377   3.771  10.160 -0.3269 -1.4733  0.8040
   98OSM    C8S 9761   4.503   3.676  10.035 -0.4766  0.9647 -0.1456
   98OSM    H8S 9762   4.436   3.587  10.033  0.8417 -0.0515 -1.1650
   98OSM    H8T 9763   4.606   3.634  10.041 -1.0062 -0.3089  0.2715
   98OSM    C9S 9764   4.490   3.754   9.908  0.0588  0.3896  0.3011
   98OSM    H9S 9765   4.556   3.841   9.929 -0.6595  0.8389  0.7469
   98OSM    H9T 9766   4.391   3.799   9.890 -0.5102 -0.0538  2.1001
   98OSM   C10S 9767   4.538   3.689   9.772 -0.1785 -0.5178  0.1352
   98OSM   H10S 9768   4.465   3.606   9.760 -0.5736 -0.0927 -0.4322
   98OSM   H10T 9769   4.639   3.649   9.796  0.0296 -0.9478 -1.3747
   98OSM   C11S 9770   4.543   3.781   9.653  0.3991 -0.6022  0.3523
   98OSM   H11S 9771   4.614   3.864   9.670  3.1791 -3.0280  1.4748
   98OSM   H11T 9772   4.444   3.827   9.631  0.4690 -0.1389  0.9911
   98OSM   C12S 9773   4.594   3.729   9.518 -0.4657  0.0852  0.0019
   98OSM   H12S 9774   4.542   3.654   9.456  2.5563 -1.1862 -1.1563
   98OSM   H12T 9775   4.684   3.675   9.554 -0.5117 -0.1553 -0.2444
   98OSM   C13S 9776   4.632   3.841   9.419 -0.5144  0.4114 -0.8632
   98OSM   H13S 9777   4.711   3.901   9.469 -1.6873  0.2885  1.2585
   98OSM   H13T 9778   4.540   3.900   9.398 -0.9434 -0.6846 -2.2271
   98OSM   C14S 9779   4.683   3.796   9.287 -0.1632 -0.3590  0.0956
   98OSM   H14S 9780   4.622   3.709   9.256  0.3938 -0.3138 -1.1988
   98OSM   H14T 9781   4.779   3.748   9.313 -1.4671 -2.3083  1.5567
   98OSM   C15S 9782   4.712   3.906   9.181 -0.4740 -0.5582  0.5170
   98OSM   H15S 9783   4.787   3.976   9.224 -1.9602  0.0016  2.3365
   98OSM   H15T 9784   4.615   3.960   9.174  0.4953  1.0891 -1.5423
   98OSM   C16S 9785   4.734   3.845   9.036  0.8215  0.0583 -0.5473
   98OSM   H16S 9786   4.731   3.924   8.959 -0.9352 -0.2454 -0.8332
   98OSM   H16T 9787   4.644   3.783   9.018  1.9813 -2.8839  2.6291
   98OSM   C17S 9788   4.852   3.744   9.029 -0.5149 -0.6092 -0.9940
   98OSM   H17S 9789   4.852   3.690   9.126  1.7240  0.8988 -0.0813
   98OSM   H17T 9790   4.942   3.809   9.030 -1.4916  0.7903 -1.1095
   98OSM   C18S 9791   4.861   3.649   8.913 -1.2438 -0.2011 -0.5072
   98OSM   H18S 9792   4.876   3.702   8.817 -1.7629 -0.2837 -0.6371
   98OSM   H18T 9793   4.774   3.580   8.906 -1.3145 -0.3620  1.5129
   98OSM   H18U 9794   4.944   3.576   8.928 -1.9300 -1.0399 -0.7364
   98OSM    C1F 9795   4.739   4.220  10.433  0.4006  0.0633 -0.3336
   98OSM     OF 9796   4.843   4.176  10.479  0.8586 -0.0892 -0.6049
   98OSM    C2F 9797   4.749   4.328  10.340 -0.0417 -0.5061  0.1301
   98OSM    H2F 9798   4.651   4.374  10.318 -0.6359 -1.6500  0.2860
   98OSM    H2G 9799   4.802   4.282  10.254 -0.6054 -0.4686 -0.2415
   98OSM    C3F 9800   4.843   4.444  10.406  0.4879  0.7736 -0.4409
   98OSM    H3F 9801   4.936   4.390  10.436 -0.6174  0.2095  2.1978
   98OSM    H3G 9802   4.801   4.499  10.493  1.1719  0.0521  0.3711
   98OSM    C4F 9803   4.874   4.550  10.297 -0.5663  0.0922  0.3799
   98OSM    H4F 9804   4.928   4.492  10.219 -1.2576  0.1028 -0.1187
   98OSM    H4G 9805   4.957   4.611  10.339  0.5744 -2.1059  1.4559
   98OSM    C5F 9806   4.761   4.633  10.228 -0.0043  0.3246  0.4899
   98OSM    H5F 9807   4.724   4.701  10.308 -0.5267 -0.4643  0.9363
   98OSM    H5G 9808   4.682   4.557  10.211  2.0940 -2.3518  1.9107
   98OSM    C6F 9809   4.806   4.714  10.112  0.5763 -0.3949  0.9415
   98OSM    H6F 9810   4.842   4.644  10.033 -0.5275  0.2702 -0.1992
   98OSM    H6G 9811   4.885   4.778  10.157  2.7650 -2.2820  0.0163
   98OSM    C7F 9812   4.685   4.789  10.054 -0.2898 -0.7713  0.4361
   98OSM    H7F 9813   4.711   4.891  10.019 -1.6526  0.7513  3.4913
   98OSM    H7G 9814   4.613   4.817  10.133 -0.3033  0.5224 -0.0007
   98OSM    C8F 9815   4.624   4.720   9.932 -0.2350  0.2450  0.1635
   98OSM    H8F 9816   4.575   4.629   9.973  1.8210 -0.0940  2.0946
   98OSM    H8G 9817   4.708   4.680   9.871  0.3243 -0.2518  1.2228
   98OSM    C9F 9818   4.524   4.803   9.857 -0.9207 -0.5145 -0.1727
   98OSM    H9F 9819   4.449   4.855   9.918 -1.4332  0.3738 -1.5226
   98OSM   C10F 9820   4.508   4.809   9.721  0.3573 -0.1607  0.3624
   98OSM   H10F 9821   4.426   4.871   9.679 -0.1532  0.9889  2.8632
   98OSM   C11F 9822   4.577   4.735   9.617 -0.8873 -0.2801  0.7609
   98OSM   H11F 9823   4.508   4.674   9.554  0.6273 -1.5339  0.2767
   98OSM   H11G 9824   4.646   4.657   9.654 -2.9266 -2.6734 -0.1865
   98OSM   C12F 9825   4.670   4.828   9.535 -0.2955 -0.0953 -0.1874
   98OSM   H12F 9826   4.771   4.820   9.581  0.9142 -0.9325 -2.8406
   98OSM   H12G 9827   4.649   4.937   9.526  0.2478  0.4488  3.5500
   98OSM   C13F 9828   4.698   4.774   9.398 -0.1460 -0.1045  0.1143
   98OSM   H13F 9829   4.597   4.773   9.352 -0.3934 -0.4629  0.6484
   98OSM   H13G 9830   4.751   4.677   9.396  0.3116  0.1471 -0.0821
   98OSM   C14F 9831   4.791   4.864   9.311 -0.0654  0.2117 -0.1390
   98OSM   H14F 9832   4.887   4.883   9.364 -0.0258  0.7663 -0.4059
   98OSM   H14G 9833   4.742   4.961   9.290 -2.9803 -1.4523 -1.6142
   98OSM   C15F 9834   4.814   4.791   9.177 -0.0777  0.2531 -0.0006
   98OSM   H15F 9835   4.723   4.795   9.113  0.5521 -1.4900 -1.1045
   98OSM   H15G 9836   4.837   4.684   9.200  1.5336  0.4231 -0.6734
   98OSM   C16F 9837   4.943   4.843   9.107 -0.2775 -0.0754 -0.2009
   98OSM   H16F 9838   5.034   4.817   9.165  0.3817 -2.4104 -2.1022
   98OSM   H16G 9839   4.932   4.953   9.097 -0.7569 -0.1822 -0.9153
   98OSM   C17F 9840   4.958   4.784   8.969 -0.0866  0.7116  0.0991
   98OSM   H17F 9841   4.898   4.821   8.884  1.2099  1.8690 -0.3394
   98OSM   H17G 9842   4.936   4.676   8.987  0.8115  0.5666  0.3761
   98OSM   C18F 9843   5.097   4.793   8.917 -0.2461  0.0434 -0.2670
   98OSM   H18F 9844   5.160   4.743   8.993  0.3652  1.7449  0.3942
   98OSM   H18G 9845   5.134   4.898   8.906  2.6521 -0.7133  1.0687
   98OSM   H18H 9846   5.102   4.743   8.818 -0.9285 -0.3832 -0.0893
   99OSM      N 9847   0.037   4.145  10.935 -0.6459  0.7363 -0.2508
   99OSM    C15 9848  -0.031   4.059  11.035 -0.0030 -0.2061  1.1434
   99OSM   H15A 9849   0.005   4.065  11.136  0.3639  0.3276  0.9869
   99OSM   H15B 9850  -0.043   3.957  11.003 -1.8307 -0.7152  3.2640
   99OSM   H15C 9851  -0.134   4.090  11.050 -1.6704 -4.0637 -0.9136
   99OSM    C14 9852  -0.014   4.114  10.804  0.4226 -0.5116  0.1835
   99OSM   H14A 9853  -0.108   4.165  10.793  0.3106 -0.4583  1.2742
   99OSM   H14B 9854  -0.025   4.007  10.794 -1.2510 -0.6495  2.6613
   99OSM   H14C 9855   0.051   4.150  10.726 -1.0650  0.8728 -0.4767
   99OSM    C13 9856   0.006   4.291  10.960  0.1818  0.6508  0.1687
   99OSM   H13A 9857  -0.099   4.302  10.980 -0.2061 -0.4938 -1.1231
   99OSM   H13B 9858   0.039   4.357  10.881  0.1562 -0.1508 -0.5246
   99OSM   H13C 9859   0.062   4.315  11.050  0.1166 -0.3136  0.4713
   99OSM    C12 9860   0.182   4.108  10.929 -0.8414 -0.1147 -0.2587
   99OSM   H12A 9861   0.224   4.162  10.845 -0.7919 -0.6804 -0.6025
   99OSM   H12B 9862   0.186   4.002  10.911 -2.4266 -0.4616  1.1978
   99OSM    C11 9863   0.269   4.140  11.050 -0.3889  0.1490  0.1204
   99OSM   H11A 9864   0.231   4.088  11.140  0.8668  2.0117  1.7844
   99OSM   H11B 9865   0.264   4.248  11.071  1.6348  0.1285  0.9000
   99OSM      P 9866   0.503   4.162  10.919 -0.1687 -0.4233  0.1479
   99OSM    O13 9867   0.580   4.272  10.982  0.3732 -0.1018 -0.5344
   99OSM    O14 9868   0.569   4.051  10.849 -0.1511  0.4711 -0.3607
   99OSM    O11 9869   0.419   4.237  10.811 -0.0248 -0.8489  0.3061
   99OSM    O12 9870   0.401   4.097  11.027  0.4738 -0.0904 -0.0600
   99OSM    C1S 9871   0.490   4.311  10.714 -0.0220 -0.3618  0.1046
   99OSM    H1S 9872   0.584   4.264  10.677  0.7862  2.4310 -1.7127
   99OSM    H1T 9873   0.523   4.411  10.751 -0.6535 -0.1461  0.0914
   99OSM     NF 9874   0.494   4.364  10.473  0.7889 -0.3999  0.3392
   99OSM    HNF 9875   0.516   4.460  10.454  0.0679 -0.3277 -0.1588
   99OSM    C2S 9876   0.403   4.331  10.585 -0.4045  0.8863 -0.2385
   99OSM    H2S 9877   0.359   4.229  10.577 -0.8814  0.9335  1.3522
   99OSM    C3S 9878   0.292   4.431  10.616  0.2764 -0.4939  0.2132
   99OSM    H3S 9879   0.340   4.531  10.625  2.9979 -1.8294  1.8923
   99OSM     O3 9880   0.221   4.408  10.738  0.4623  0.0588  0.0830
   99OSM    HO3 9881   0.275   4.347  10.788  0.6783 -1.0581 -1.4434
   99OSM    C4S 9882   0.202   4.426  10.495 -0.1843  0.3139 -0.8227
   99OSM    H4S 9883   0.144   4.333  10.494  1.9896 -1.2886  2.7750
   99OSM    C5S 9884   0.180   4.515  10.395 -0.1176  0.8765 -0.2319
   99OSM    H5S 9885   0.237   4.609  10.403  0.8162  0.2528  0.7886
   99OSM    C6S 9886   0.094   4.499  10.272 -0.3480 -0.3519 -0.0283
   99OSM    H6S 9887  -0.008   4.542  10.284  0.2823  0.9106  1.1135
   99OSM    H6T 9888   0.075   4.391  10.256 -0.7626 -0.1524 -0.9726
   99OSM    C7S 9889   0.152   4.570  10.146  0.6356  0.2839  0.2283
   99OSM    H7S 9890   0.243   4.524  10.102 -0.1486  0.8687 -2.1672
   99OSM    H7T 9891   0.176   4.677  10.160  1.3348  0.2895 -0.8705
   99OSM    C8S 9892   0.036   4.556  10.038 -0.0728 -0.5426 -0.1602
   99OSM    H8S 9893  -0.012   4.654  10.060  0.3423 -0.6921  1.6345
   99OSM    H8T 9894  -0.032   4.472  10.064  0.9248 -0.6479  2.4512
   99OSM    C9S 9895   0.093   4.553   9.904 -0.0187  0.3068 -0.2665
   99OSM    H9S 9896   0.150   4.459   9.887 -1.2069 -0.4801  0.0000
   99OSM    H9T 9897   0.164   4.637   9.895 -0.7938  0.8029 -2.6252
   99OSM   C10S 9898  -0.019   4.559   9.801 -0.0005 -0.0734  0.1198
   99OSM   H10S 9899  -0.087   4.645   9.819 -0.8006 -0.6164 -0.2329
   99OSM   H10T 9900  -0.083   4.470   9.819 -0.5698  0.6109  1.6583
   99OSM   C11S 9901   0.034   4.544   9.651 -0.2737  0.1058  0.2913
   99OSM   H11S 9902   0.089   4.449   9.642 -1.4893 -0.4213 -2.3825
   99OSM   H11T 9903   0.117   4.617   9.641  1.2108 -1.7749 -2.1593
   99OSM   C12S 9904  -0.066   4.555   9.533 -0.5848 -0.3911 -0.8241
   99OSM   H12S 9905  -0.136   4.470   9.552 -2.5620  1.6055  1.3824
   99OSM   H12T 9906  -0.120   4.651   9.543 -0.6666 -0.5565  0.4143
   99OSM   C13S 9907  -0.008   4.542   9.390 -0.2399 -0.3203 -0.0775
   99OSM   H13S 9908   0.055   4.453   9.370  1.6574  1.1423 -0.9802
   99OSM   H13T 9909   0.059   4.628   9.368 -0.6959  0.0305 -0.1050
   99OSM   C14S 9910  -0.121   4.545   9.283 -0.2396 -0.1758  0.0969
   99OSM   H14S 9911  -0.164   4.647   9.272  1.5460  0.4323 -1.8220
   99OSM   H14T 9912  -0.196   4.466   9.305  2.4269 -3.1803 -0.8360
   99OSM   C15S 9913  -0.074   4.505   9.141 -0.0729 -0.5765  0.6122
   99OSM   H15S 9914  -0.056   4.399   9.114  0.5481 -0.2273 -0.3693
   99OSM   H15T 9915   0.022   4.555   9.116 -0.6098 -0.4013 -1.1739
   99OSM   C16S 9916  -0.174   4.558   9.037  0.0068  0.8072 -1.0465
   99OSM   H16S 9917  -0.119   4.551   8.940  2.4017 -0.8511  0.3242
   99OSM   H16T 9918  -0.192   4.667   9.048 -0.3497  0.8250 -1.7614
   99OSM   C17S 9919  -0.307   4.483   9.040  0.1646  0.1494  0.6055
   99OSM   H17S 9920  -0.343   4.506   9.143 -0.6579 -0.2227  0.3995
   99OSM   H17T 9921  -0.298   4.375   9.016 -2.4379  0.1610 -0.6657
   99OSM   C18S 9922  -0.411   4.536   8.938  0.0247  0.1800  0.0101
   99OSM   H18S 9923  -0.401   4.500   8.833 -1.8351 -0.9424  0.1623
   99OSM   H18T 9924  -0.393   4.644   8.926 -0.0010  0.0070 -1.9844
   99OSM   H18U 9925  -0.507   4.513   8.988  0.6614  1.4399  1.9111
   99OSM    C1F 9926   0.570   4.278  10.418 -0.0619  0.2169  0.0743
   99OSM     OF 9927   0.592   4.161  10.448  0.7370 -0.1062  0.4651
   99OSM    C2F 9928   0.629   4.322  10.286  0.1174  0.0117 -0.1949
   99OSM    H2F 9929   0.709   4.248  10.263  0.4252  0.1496  0.4204
   99OSM    H2G 9930   0.672   4.424  10.295 -0.5647  0.3406 -0.5338
   99OSM    C3F 9931   0.521   4.319  10.174 -0.2472 -0.2517 -0.1857
   99OSM    H3F 9932   0.463   4.225  10.182 -0.1127 -0.4218 -1.0877
   99OSM    H3G 9933   0.456   4.409  10.181  1.9663  1.4102  0.1031
   99OSM    C4F 9934   0.581   4.320  10.034 -0.2676 -0.0996  0.3782
   99OSM    H4F 9935   0.654   4.238  10.019  0.5999  1.0513 -2.3057
   99OSM    H4G 9936   0.643   4.410  10.015  0.6878 -1.3965 -3.6204
   99OSM    C5F 9937   0.476   4.317   9.923 -0.3096  0.5154 -0.1835
   99OSM    H5F 9938   0.396   4.392   9.938 -0.5429  0.0050  1.3723
   99OSM    H5G 9939   0.429   4.216   9.926 -2.9790  1.7023  0.1753
   99OSM    C6F 9940   0.529   4.350   9.786  0.1871  0.1978  0.8189
   99OSM    H6F 9941   0.607   4.277   9.754  0.0234  0.6879 -0.7848
   99OSM    H6G 9942   0.580   4.448   9.789  0.5573  0.0958 -0.8769
   99OSM    C7F 9943   0.419   4.380   9.682  0.0781 -0.1588 -0.6297
   99OSM    H7F 9944   0.354   4.462   9.720 -1.0415  0.0308 -2.8210
   99OSM    H7G 9945   0.351   4.293   9.670 -1.6264  0.6611  2.0846
   99OSM    C8F 9946   0.483   4.440   9.559  0.5965 -0.3540 -1.0605
   99OSM    H8F 9947   0.542   4.530   9.587 -1.0030  0.2919  0.4183
   99OSM    H8G 9948   0.412   4.484   9.487  0.6150  0.1556 -0.7732
   99OSM    C9F 9949   0.575   4.338   9.497 -0.1991 -0.4520 -0.8099
   99OSM    H9F 9950   0.680   4.334   9.529 -0.4127 -1.7514 -0.2130
   99OSM   C10F 9951   0.523   4.264   9.399  1.1551  0.4896 -0.4842
   99OSM   H10F 9952   0.591   4.185   9.364  0.4359  0.4968 -1.9699
   99OSM   C11F 9953   0.387   4.252   9.330 -0.0353  0.0453 -0.4871
   99OSM   H11F 9954   0.310   4.274   9.407  0.4867 -0.3336  0.1534
   99OSM   H11G 9955   0.371   4.142   9.327  0.1679 -0.0291  0.8621
   99OSM   C12F 9956   0.379   4.318   9.194 -0.4724 -0.3619  0.6699
   99OSM   H12F 9957   0.468   4.301   9.130 -0.7306 -0.4847  0.3436
   99OSM   H12G 9958   0.366   4.428   9.207 -0.7108 -0.6563  3.7194
   99OSM   C13F 9959   0.257   4.271   9.118  0.6172 -0.4494  0.1304
   99OSM   H13F 9960   0.158   4.299   9.160  1.9562  3.6320  0.9878
   99OSM   H13G 9961   0.256   4.160   9.124 -0.7308 -0.3653  2.3812
   99OSM   C14F 9962   0.261   4.319   8.962 -0.6885  0.3068 -0.3097
   99OSM   H14F 9963   0.367   4.296   8.939  0.0792 -0.0289  3.1267
   99OSM   H14G 9964   0.243   4.428   8.955  1.2678  0.5829 -1.7005
   99OSM   C15F 9965   0.160   4.236   8.869 -0.2535 -0.0977 -0.6963
   99OSM   H15F 9966   0.068   4.206   8.923 -0.1826  0.1811 -0.4188
   99OSM   H15G 9967   0.206   4.139   8.841  0.5005  0.2087 -0.5422
   99OSM   C16F 9968   0.124   4.316   8.743 -0.5649  0.0420  0.3343
   99OSM   H16F 9969   0.205   4.386   8.714 -0.3415  0.7796  2.5723
   99OSM   H16G 9970   0.030   4.374   8.756 -0.5278 -0.1039  1.3462
   99OSM   C17F 9971   0.106   4.229   8.617 -0.0241  0.3021  0.5535
   99OSM   H17F 9972   0.026   4.157   8.646 -0.4093  0.8234  0.8065
   99OSM   H17G 9973   0.206   4.184   8.604 -0.8066 -1.4855  0.3709
   99OSM   C18F 9974   0.076   4.287   8.474  0.2457  0.0688  0.2911
   99OSM   H18F 9975  -0.034   4.303   8.480  0.1100 -0.6807 -0.0598
   99OSM   H18G 9976   0.084   4.211   8.394  1.9383  0.0951  0.3991
   99OSM   H18H 9977   0.144   4.370   8.445 -2.0258  2.5940  1.7113
  100OSM      N 9978   2.377   6.580  10.792 -0.1185 -1.0606 -0.1868
  100OSM    C15 9979   2.273   6.633  10.696  0.3989  0.6507  0.9166
  100OSM   H15A 9980   2.218   6.552  10.652 -0.3855  1.1978  0.8722
  100OSM   H15B 9981   2.320   6.693  10.619 -0.4437 -1.3523 -1.2608
  100OSM   H15C 9982   2.206   6.703  10.744 -0.6489 -1.3534  2.5568
  100OSM    C14 9983   2.504   6.545  10.713 -0.3285 -0.0834 -0.3224
  100OSM   H14A 9984   2.561   6.485  10.782  0.1242 -0.7483 -1.2638
  100OSM   H14B 9985   2.555   6.636  10.684  0.7300 -0.8694 -0.9911
  100OSM   H14C 9986   2.496   6.481  10.627 -0.2471 -1.1677  0.4646
  100OSM    C13 9987   2.415   6.688  10.890  0.4539  0.3124  0.1906
  100OSM   H13A 9988   2.486   6.645  10.959  1.2708  1.1294 -0.1208
  100OSM   H13B 9989   2.337   6.712  10.960  2.0938 -0.3926  2.3681
  100OSM   H13C 9990   2.468   6.774  10.852  3.2657 -1.1629  0.4845
  100OSM    C12 9991   2.322   6.456  10.861 -0.5856 -0.8630 -0.1261
  100OSM   H12A 9992   2.312   6.386  10.779 -2.3107 -0.3429 -0.3945
  100OSM   H12B 9993   2.226   6.470  10.907  0.4479 -2.8967  2.9516
  100OSM    C11 9994   2.410   6.371  10.954 -0.1752 -0.1045 -0.0073
  100OSM   H11A 9995   2.353   6.318  11.033  0.1061  0.4594  0.5905
  100OSM   H11B 9996   2.471   6.448  11.007 -0.1604  0.0772 -0.2896
  100OSM      P 9997   2.480   6.145  10.813 -0.1073  0.2130 -0.2290
  100OSM    O13 9998   2.609   6.092  10.755  0.2454  0.7085 -0.0978
  100OSM    O14 9999   2.401   6.066  10.910 -0.2118  0.6056 -0.1342
  100OSM    O1110000   2.378   6.169  10.698  0.8446  0.3837  0.1079
  100OSM    O1210001   2.511   6.291  10.882  0.2544 -0.1766 -0.4510
  100OSM    C1S10002   2.409   6.159  10.557  0.1811  0.8540  0.4408
  100OSM    H1S10003   2.448   6.056  10.543 -1.1419  0.3431  0.4449
  100OSM    H1T10004   2.492   6.230  10.533 -0.4260  1.7746  0.9928
  100OSM     NF10005   2.322   6.144  10.321  0.4316 -0.3001  1.0048
  100OSM    HNF10006   2.308   6.223  10.262  1.9343 -1.1768 -0.5786
  100OSM    C2S10007   2.283   6.164  10.460 -0.1436  0.5062 -0.0551
  100OSM    H2S10008   2.217   6.079  10.488  3.3354 -1.9380  1.4642
  100OSM    C3S10009   2.201   6.292  10.480  0.1383 -0.2763 -1.1851
  100OSM    H3S10010   2.262   6.380  10.450  0.9209 -1.1053 -2.1175
  100OSM     O310011   2.169   6.324  10.618 -0.4159 -0.2914 -0.2621
  100OSM    HO310012   2.227   6.259  10.659 -2.7911 -2.3713  0.1039
  100OSM    C4S10013   2.083   6.302  10.396 -0.3396 -0.1617 -0.1777
  100OSM    H4S10014   2.018   6.214  10.414  0.1266 -0.9676 -2.1602
  100OSM    C5S10015   2.051   6.399  10.317  0.0297  0.0044  0.1807
  100OSM    H5S10016   2.118   6.487  10.315 -0.1147  0.1206 -1.5394
  100OSM    C6S10017   1.924   6.405  10.239 -0.4887  0.6235  0.5704
  100OSM    H6S10018   1.859   6.320  10.269 -0.8592  0.7335  0.1009
  100OSM    H6T10019   1.935   6.407  10.128 -3.0283 -0.5852  0.2256
  100OSM    C7S10020   1.828   6.528  10.272  0.2863  0.2504  0.1383
  100OSM    H7S10021   1.883   6.623  10.253 -2.1207  1.6246 -0.4446
  100OSM    H7T10022   1.793   6.521  10.377 -2.4863  1.7444 -0.6016
  100OSM    C8S10023   1.708   6.514  10.183 -0.4536  0.1178 -0.4465
  100OSM    H8S10024   1.654   6.417  10.189  0.2905 -0.3760 -1.5523
  100OSM    H8T10025   1.750   6.521  10.081 -2.9139 -1.4676 -1.6660
  100OSM    C9S10026   1.599   6.619  10.215  0.6063 -0.0433  0.0176
  100OSM    H9S10027   1.650   6.710  10.177  1.0709  0.6681  2.2094
  100OSM    H9T10028   1.588   6.635  10.324  0.0979  0.4204 -0.0970
  100OSM   C10S10029   1.464   6.602  10.150  0.4682  0.2910  0.0675
  100OSM   H10S10030   1.403   6.695  10.158  1.1601  0.7001  0.7137
  100OSM   H10T10031   1.407   6.530  10.214 -1.0265  0.1235 -1.3851
  100OSM   C11S10032   1.477   6.555  10.003 -0.4231 -0.0754 -0.2764
  100OSM   H11S10033   1.373   6.537   9.969 -0.7278 -1.6402  1.3222
  100OSM   H11T10034   1.529   6.457  10.013  1.0147  0.6916  0.1609
  100OSM   C12S10035   1.544   6.663   9.916 -0.6632 -0.1331 -0.2664
  100OSM   H12S10036   1.626   6.717   9.969 -1.8295  0.8743  0.5547
  100OSM   H12T10037   1.463   6.737   9.902 -1.0836 -0.7330 -1.0967
  100OSM   C13S10038   1.585   6.614   9.775  0.3091 -0.4236 -0.1468
  100OSM   H13S10039   1.616   6.706   9.722  3.1679 -1.3009 -0.1432
  100OSM   H13T10040   1.505   6.581   9.705 -0.0489  3.0862 -1.6147
  100OSM   C14S10041   1.702   6.517   9.775 -0.0843 -0.0915 -0.1004
  100OSM   H14S10042   1.694   6.459   9.870 -1.3105 -1.2859 -0.8796
  100OSM   H14T10043   1.792   6.580   9.783  1.1548 -1.8611  0.6543
  100OSM   C15S10044   1.719   6.428   9.656  0.0333 -0.0742 -0.5270
  100OSM   H15S10045   1.629   6.364   9.652 -1.5718  1.8215  2.2516
  100OSM   H15T10046   1.804   6.356   9.650 -0.1869 -0.2786 -1.4854
  100OSM   C16S10047   1.741   6.513   9.535 -0.6500  0.1504  0.3180
  100OSM   H16S10048   1.850   6.525   9.520 -0.5619 -0.9882 -0.0586
  100OSM   H16T10049   1.688   6.611   9.538 -0.3684  0.2892  1.9954
  100OSM   C17S10050   1.671   6.442   9.418 -0.3187  0.0266 -0.1317
  100OSM   H17S10051   1.561   6.456   9.430 -0.2362 -0.4385  1.3108
  100OSM   H17T10052   1.691   6.333   9.405 -1.5804 -0.5047  1.9123
  100OSM   C18S10053   1.706   6.519   9.291  0.4207  0.0192  0.5247
  100OSM   H18S10054   1.698   6.629   9.304 -0.5171  0.0124  0.0782
  100OSM   H18T10055   1.651   6.489   9.199  1.9912  0.6370 -0.6791
  100OSM   H18U10056   1.811   6.501   9.256  0.4692 -1.0803  1.1860
  100OSM    C1F10057   2.384   6.032  10.272 -0.5496 -0.1964 -0.0120
  100OSM     OF10058   2.363   5.930  10.328 -0.0064 -0.0588 -0.4771
  100OSM    C2F10059   2.473   6.044  10.149  0.0100 -0.5613 -0.4927
  100OSM    H2F10060   2.532   6.138  10.158 -1.8767  0.7624 -1.5066
  100OSM    H2G10061   2.412   6.066  10.059 -0.4852  3.6605  0.6271
  100OSM    C3F10062   2.552   5.914  10.119 -0.1749  0.4791 -0.1367
  100OSM    H3F10063   2.480   5.831  10.137 -0.0616  0.4109  0.0050
  100OSM    H3G10064   2.641   5.892  10.182  0.2787  1.5258 -0.4007
  100OSM    C4F10065   2.600   5.906   9.980 -0.3289  0.5990  0.2565
  100OSM    H4F10066   2.679   5.980   9.956  2.4300 -2.1241  0.2806
  100OSM    H4G10067   2.515   5.925   9.910 -2.5056 -1.0614  2.2757
  100OSM    C5F10068   2.657   5.766   9.943 -0.2420 -0.1068 -0.5617
  100OSM    H5F10069   2.572   5.696   9.953 -1.5388  1.4713 -0.1251
  100OSM    H5G10070   2.737   5.753  10.019 -1.9234 -0.1432  1.2990
  100OSM    C6F10071   2.716   5.762   9.801 -0.1677 -0.7490 -0.4165
  100OSM    H6F10072   2.773   5.669   9.781  0.9469 -0.4189  1.1223
  100OSM    H6G10073   2.781   5.851   9.790 -0.1862 -0.4994  1.2519
  100OSM    C7F10074   2.607   5.782   9.693 -0.1428  0.3382  0.2061
  100OSM    H7F10075   2.572   5.887   9.702  0.5893  0.6765 -0.7432
  100OSM    H7G10076   2.518   5.720   9.717 -0.1775  0.1852 -0.3024
  100OSM    C8F10077   2.648   5.756   9.544  0.0881  0.6637 -0.2423
  100OSM    H8F10078   2.575   5.771   9.462 -0.7194  1.9665  0.6833
  100OSM    H8G10079   2.670   5.647   9.546 -0.4906  0.5034 -1.8632
  100OSM    C9F10080   2.765   5.842   9.511  0.1724  0.0116 -0.4554
  100OSM    H9F10081   2.792   5.916   9.588 -0.0472  1.1560 -1.4533
  100OSM   C10F10082   2.837   5.847   9.400  0.2599  0.2849  0.2155
  100OSM   H10F10083   2.918   5.921   9.408  0.1721  0.6033 -1.4314
  100OSM   C11F10084   2.820   5.760   9.278 -0.1479 -0.3672  0.5413
  100OSM   H11F10085   2.773   5.662   9.301 -1.4654 -0.1355 -0.9479
  100OSM   H11G10086   2.922   5.733   9.244  0.9430 -0.0258  3.3082
  100OSM   C12F10087   2.765   5.839   9.154 -0.8065 -0.1229 -0.1674
  100OSM   H12F10088   2.835   5.925   9.148 -2.1506  0.9777 -0.7739
  100OSM   H12G10089   2.664   5.883   9.168 -2.2936 -2.7282 -1.8741
  100OSM   C13F10090   2.772   5.753   9.029 -0.1139  0.4875 -0.7549
  100OSM   H13F10091   2.696   5.673   9.022  1.3483 -0.8796 -1.9446
  100OSM   H13G10092   2.876   5.714   9.032 -0.8772 -1.5601  1.1379
  100OSM   C14F10093   2.758   5.846   8.909 -0.1123  1.0591  0.3715
  100OSM   H14F10094   2.829   5.931   8.918  0.8170  0.1994  1.5168
  100OSM   H14G10095   2.654   5.885   8.909 -0.7691 -0.6060  0.2097
  100OSM   C15F10096   2.791   5.775   8.778  0.7220  0.1020  0.3086
  100OSM   H15F10097   2.892   5.728   8.780  0.5895 -0.3451 -1.6817
  100OSM   H15G10098   2.789   5.851   8.697  2.7411 -1.5355 -1.4062
  100OSM   C16F10099   2.682   5.672   8.736 -0.0453  0.2002 -0.6888
  100OSM   H16F10100   2.581   5.713   8.755  0.1651  0.9527 -1.1645
  100OSM   H16G10101   2.691   5.576   8.793 -0.0343 -0.2025 -1.3554
  100OSM   C17F10102   2.687   5.641   8.581 -0.1229 -0.3408 -0.3817
  100OSM   H17F10103   2.779   5.583   8.558  1.2854  1.0663  1.3741
  100OSM   H17G10104   2.702   5.740   8.533  2.1871  0.3969  1.6678
  100OSM   C18F10105   2.578   5.553   8.529  0.1165  0.4166  0.1712
  100OSM   H18F10106   2.488   5.618   8.525  1.2978  2.2281  1.5652
  100OSM   H18G10107   2.573   5.471   8.604  2.0318  2.1831  2.3781
  100OSM   H18H10108   2.601   5.516   8.427 -1.6359  1.3431 -0.6118
  101OSM      N10109   5.889   5.898  11.129 -0.3508  0.8611  0.0371
  101OSM    C1510110   5.932   6.001  11.030 -0.5422  0.0642 -0.6852
  101OSM   H15A10111   5.849   6.027  10.966 -1.9325 -0.1098  0.9785
  101OSM   H15B10112   6.023   5.983  10.974  0.0378 -1.3562  0.6504
  101OSM   H15C10113   5.948   6.091  11.087 -3.9721  0.1772  0.3448
  101OSM    C1410114   6.002   5.878  11.233 -0.4371  0.7729 -0.2070
  101OSM   H14A10115   6.023   5.963  11.297  0.0992  0.3467  0.1844
  101OSM   H14B10116   6.091   5.861  11.175 -0.0499  2.6841 -0.2620
  101OSM   H14C10117   5.972   5.797  11.298 -4.1629  2.0055 -0.1131
  101OSM    C1310118   5.770   5.948  11.204 -0.3311 -0.4466 -0.9521
  101OSM   H13A10119   5.787   6.047  11.245 -2.2546  0.7554 -2.8327
  101OSM   H13B10120   5.718   5.881  11.271  1.1801 -2.3856 -1.6451
  101OSM   H13C10121   5.690   5.958  11.132 -2.0760 -0.3800  0.8994
  101OSM    C1210122   5.856   5.769  11.053  0.1460 -0.1276 -0.5976
  101OSM   H12A10123   5.817   5.688  11.113 -0.9101  0.2690 -0.7305
  101OSM   H12B10124   5.947   5.733  11.007  0.9838  1.3427 -0.1675
  101OSM    C1110125   5.765   5.779  10.931 -0.9590 -0.3965  0.3465
  101OSM   H11A10126   5.673   5.833  10.962 -1.2127  1.1079 -2.6529
  101OSM   H11B10127   5.723   5.680  10.904 -2.3750 -0.0296  1.1321
  101OSM      P10128   5.960   5.805  10.752 -0.0038  0.0057  0.4036
  101OSM    O1310129   6.045   5.922  10.733 -0.1045  0.7802  0.9480
  101OSM    O1410130   6.016   5.692  10.821 -0.5384  0.3235  0.1228
  101OSM    O1110131   5.926   5.754  10.607 -0.8050  0.6620  0.4327
  101OSM    O1210132   5.825   5.853  10.822 -0.2548 -0.4645  0.4607
  101OSM    C1S10133   5.933   5.840  10.497 -0.4167 -0.6174  0.5530
  101OSM    H1S10134   6.000   5.929  10.503  1.3537 -1.1120 -5.5501
  101OSM    H1T10135   5.829   5.871  10.475 -0.5042 -3.5676 -4.9939
  101OSM     NF10136   5.941   5.870  10.249  0.1200  0.5254  0.1510
  101OSM    HNF10137   5.859   5.851  10.196  0.4573 -0.2352 -0.1022
  101OSM    C2S10138   5.977   5.778  10.357 -0.0463 -0.7880  0.2951
  101OSM    H2S10139   6.086   5.755  10.360  0.3238  0.3913 -1.8721
  101OSM    C3S10140   5.912   5.632  10.346 -0.0537 -0.4782  0.0029
  101OSM    H3S10141   5.801   5.638  10.338 -0.3237  1.4840  3.3089
  101OSM     O310142   5.938   5.543  10.454 -0.1411 -0.2841  0.1315
  101OSM    HO310143   5.978   5.600  10.519  0.7566 -0.2847 -0.4050
  101OSM    C4S10144   5.958   5.562  10.216  0.3680 -0.4403 -0.2386
  101OSM    H4S10145   5.874   5.526  10.155  0.0449 -3.8950  1.9900
  101OSM    C5S10146   6.089   5.541  10.179  0.1790  0.5917 -0.9510
  101OSM    H5S10147   6.168   5.560  10.253 -0.5316  1.6762 -0.4534
  101OSM    C6S10148   6.140   5.477  10.056 -0.5668  0.5611 -0.3396
  101OSM    H6S10149   6.147   5.368  10.076  0.9622  0.6805 -0.1605
  101OSM    H6T10150   6.242   5.509  10.029 -0.7576  1.2676 -0.2417
  101OSM    C7S10151   6.048   5.498   9.932  0.3740  0.2179 -0.2475
  101OSM    H7S10152   5.946   5.456   9.942  1.1855 -1.9127 -0.4505
  101OSM    H7T10153   6.088   5.440   9.847  2.2904  0.6278  0.3183
  101OSM    C8S10154   6.059   5.635   9.860  1.1172 -0.0786  0.9085
  101OSM    H8S10155   6.164   5.655   9.829  0.5660 -1.4463 -2.2510
  101OSM    H8T10156   6.033   5.720   9.928 -2.1525  0.7112 -1.0938
  101OSM    C9S10157   5.956   5.646   9.746  0.1989  0.1847  0.4263
  101OSM    H9S10158   5.942   5.755   9.731 -0.0943 -0.0086 -0.8414
  101OSM    H9T10159   5.858   5.600   9.770  0.0119 -0.8050 -2.0042
  101OSM   C10S10160   6.008   5.576   9.621  0.1088  0.7974  0.1615
  101OSM   H10S10161   6.010   5.466   9.637  0.0160  0.9104  0.9921
  101OSM   H10T10162   6.114   5.606   9.610  1.1215 -1.3126  2.9815
  101OSM   C11S10163   5.937   5.606   9.491  0.3667 -0.7672 -0.6934
  101OSM   H11S10164   5.920   5.715   9.488 -0.4837 -0.6042  3.4501
  101OSM   H11T10165   5.838   5.556   9.499 -0.7473  1.1981 -1.7642
  101OSM   C12S10166   6.014   5.564   9.363  0.1024 -0.2387  0.4439
  101OSM   H12S10167   6.043   5.457   9.370 -0.1596 -0.4063 -0.8092
  101OSM   H12T10168   6.099   5.633   9.346 -1.0106  0.8644 -0.9622
  101OSM   C13S10169   5.917   5.589   9.230  0.0194  0.3752 -0.7918
  101OSM   H13S10170   5.898   5.698   9.224 -0.9935  0.3274  0.7765
  101OSM   H13T10171   5.820   5.535   9.241  1.0484 -1.1513  1.7012
  101OSM   C14S10172   5.987   5.541   9.100 -0.2531 -0.0470 -0.2128
  101OSM   H14S10173   6.033   5.441   9.110 -0.1424 -0.3913 -3.3633
  101OSM   H14T10174   6.077   5.605   9.087  0.2747 -0.5576  0.8065
  101OSM   C15S10175   5.893   5.533   8.978  0.4432  0.0566 -0.2569
  101OSM   H15S10176   5.831   5.622   8.953  0.4463 -0.1182 -0.9133
  101OSM   H15T10177   5.820   5.454   9.006  0.0679  1.1543  2.0105
  101OSM   C16S10178   5.968   5.491   8.850 -0.3553 -0.3311  0.3161
  101OSM   H16S10179   5.974   5.381   8.862  0.2346 -0.4630 -1.0094
  101OSM   H16T10180   6.071   5.530   8.866 -0.5410  0.5833 -0.6442
  101OSM   C17S10181   5.912   5.532   8.712  0.2893 -0.3030  0.4926
  101OSM   H17S10182   5.982   5.512   8.628 -0.3190 -0.0106 -0.0931
  101OSM   H17T10183   5.889   5.640   8.708  0.1792 -0.3501 -0.3966
  101OSM   C18S10184   5.782   5.457   8.689 -0.1418  0.6853 -0.1179
  101OSM   H18S10185   5.797   5.348   8.697  1.7493  0.5337 -3.6726
  101OSM   H18T10186   5.760   5.479   8.582 -0.0343 -0.2393 -0.3364
  101OSM   H18U10187   5.695   5.499   8.744 -1.6876 -1.2552 -0.9444
  101OSM    C1F10188   5.999   5.988  10.229  0.0046 -0.2669  0.6308
  101OSM     OF10189   6.096   6.019  10.298  0.3690  0.3227 -0.0172
  101OSM    C2F10190   5.942   6.082  10.121  0.4041  0.3987 -0.2944
  101OSM    H2F10191   5.834   6.061  10.110  0.6888 -1.3132 -0.2196
  101OSM    H2G10192   5.987   6.065  10.021 -2.7859 -0.4655 -1.6991
  101OSM    C3F10193   5.972   6.231  10.166 -0.5615  0.1746  0.0379
  101OSM    H3F10194   6.079   6.259  10.174 -1.1590  2.0323  4.1003
  101OSM    H3G10195   5.928   6.252  10.266  0.4171 -0.8029  0.6891
  101OSM    C4F10196   5.908   6.320  10.065 -0.0303  0.0217  0.0160
  101OSM    H4F10197   5.911   6.424  10.106  0.2668 -0.3057  0.8589
  101OSM    H4G10198   5.800   6.295  10.059 -0.3485  1.1946  0.4760
  101OSM    C5F10199   5.972   6.320   9.925 -0.1477  0.3273  0.4423
  101OSM    H5F10200   5.989   6.213   9.900  1.1584  0.2312  1.5954
  101OSM    H5G10201   6.071   6.368   9.941  0.4768 -0.7154 -0.2028
  101OSM    C6F10202   5.893   6.382   9.808  0.1556 -0.5306 -0.2063
  101OSM    H6F10203   5.810   6.312   9.786  1.1418 -1.5049 -0.9508
  101OSM    H6G10204   5.848   6.479   9.838  2.5650  1.3138 -2.1055
  101OSM    C7F10205   5.975   6.423   9.684  0.1198  0.0718 -0.1785
  101OSM    H7F10206   6.078   6.383   9.694  0.0458 -0.0819 -0.0249
  101OSM    H7G10207   5.979   6.533   9.670 -1.3369  0.1172 -0.4740
  101OSM    C8F10208   5.923   6.367   9.544  0.4083  0.0691 -0.0151
  101OSM    H8F10209   5.903   6.259   9.560 -0.1278 -0.2738 -2.5002
  101OSM    H8G10210   6.004   6.383   9.470  1.4964  2.6083  1.5623
  101OSM    C9F10211   5.794   6.436   9.509 -0.0819  0.2364  0.0592
  101OSM    H9F10212   5.720   6.437   9.590  0.2100  1.2714  0.3208
  101OSM   C10F10213   5.755   6.483   9.393  0.4617  0.5575  0.2516
  101OSM   H10F10214   5.654   6.527   9.391  1.6436  3.4516 -0.2488
  101OSM   C11F10215   5.830   6.486   9.260 -0.7634  0.6118 -0.9294
  101OSM   H11F10216   5.923   6.425   9.265 -1.3703 -0.2481  1.9689
  101OSM   H11G10217   5.862   6.590   9.239 -1.2505  0.9620 -0.0098
  101OSM   C12F10218   5.749   6.426   9.143 -0.1602  0.2589  0.0397
  101OSM   H12F10219   5.657   6.484   9.118 -1.5363 -2.3184 -1.2801
  101OSM   H12G10220   5.717   6.324   9.174  2.8675 -0.8596 -0.2329
  101OSM   C13F10221   5.831   6.404   9.018 -0.0904 -0.6791 -0.3295
  101OSM   H13F10222   5.876   6.304   9.033 -0.3969 -0.4902  2.2804
  101OSM   H13G10223   5.905   6.487   9.018 -1.6062  0.7815 -1.7902
  101OSM   C14F10224   5.750   6.388   8.891  0.5630 -0.6848 -0.2455
  101OSM   H14F10225   5.723   6.493   8.866  1.8135  0.4421  2.6778
  101OSM   H14G10226   5.657   6.331   8.910  0.4984 -0.7702 -0.8002
  101OSM   C15F10227   5.830   6.313   8.784 -0.4448 -0.2384 -0.3208
  101OSM   H15F10228   5.764   6.299   8.696  0.5187  2.0462 -1.4973
  101OSM   H15G10229   5.878   6.216   8.808  0.5598  0.5663  1.1484
  101OSM   C16F10230   5.952   6.404   8.743 -0.2552 -0.1899 -0.3153
  101OSM   H16F10231   6.001   6.446   8.834 -1.8887  0.1410  0.4532
  101OSM   H16G10232   5.900   6.494   8.702  1.1934  1.2939  0.9675
  101OSM   C17F10233   6.051   6.332   8.655  0.1933 -0.1269  0.0371
  101OSM   H17F10234   6.000   6.289   8.566  0.4650  1.6825 -1.0661
  101OSM   H17G10235   6.084   6.237   8.702 -1.2126 -1.3431 -1.3309
  101OSM   C18F10236   6.178   6.418   8.625  0.7547 -0.3588 -0.4502
  101OSM   H18F10237   6.152   6.494   8.549 -1.9712  0.2427  0.9398
  101OSM   H18G10238   6.251   6.349   8.579  0.7478 -0.7483  0.1209
  101OSM   H18H10239   6.222   6.464   8.716  2.6352  0.9353 -1.9366
  102OSM      N10240   1.591   1.218  11.037  0.2938 -0.2885  0.1502
  102OSM    C1510241   1.539   1.348  11.093 -0.5680 -0.9683 -0.2892
  102OSM   H15A10242   1.513   1.332  11.196 -1.9031 -0.5709 -0.5427
  102OSM   H15B10243   1.452   1.397  11.052 -0.1418 -1.7108 -2.2268
  102OSM   H15C10244   1.620   1.419  11.093  0.1006 -1.7093  0.5974
  102OSM    C1410245   1.649   1.245  10.901 -0.2550 -0.1628  0.7629
  102OSM   H14A10246   1.731   1.315  10.891  1.4406 -2.2693 -1.5914
  102OSM   H14B10247   1.568   1.279  10.837 -0.7883  1.1829  2.0917
  102OSM   H14C10248   1.700   1.154  10.871  1.0586  0.4826  0.9821
  102OSM    C1310249   1.700   1.169  11.130 -0.4333 -0.6253 -0.1408
  102OSM   H13A10250   1.659   1.158  11.229  2.0396  0.8355  1.1271
  102OSM   H13B10251   1.775   1.246  11.139 -0.2902 -0.6802 -0.7841
  102OSM   H13C10252   1.743   1.078  11.091  1.7165  0.5755 -0.7451
  102OSM    C1210253   1.487   1.113  11.046  0.2184 -1.4862  0.4063
  102OSM   H12A10254   1.488   1.067  11.143 -1.4291  0.1057  1.2296
  102OSM   H12B10255   1.518   1.032  10.982 -1.3265 -3.5390  2.1550
  102OSM    C1110256   1.345   1.154  10.990  0.7048  0.2402 -0.7517
  102OSM   H11A10257   1.302   1.221  11.067  1.1913 -1.3479  0.9930
  102OSM   H11B10258   1.279   1.064  10.995  0.2187  0.6638  1.5973
  102OSM      P10259   1.269   1.335  10.809 -0.1688 -0.1459 -0.2896
  102OSM    O1310260   1.129   1.309  10.766  0.1549  0.3617  0.3873
  102OSM    O1410261   1.298   1.450  10.897  0.0521 -0.2325  0.1794
  102OSM    O1110262   1.355   1.351  10.672 -0.1408 -0.1880  1.1438
  102OSM    O1210263   1.335   1.198  10.855 -0.1581  0.6536 -0.4404
  102OSM    C1S10264   1.368   1.237  10.592 -0.1057  0.3344 -1.2324
  102OSM    H1S10265   1.272   1.195  10.556  0.4645 -1.0726 -1.1853
  102OSM    H1T10266   1.434   1.162  10.640  0.3544  1.3538 -0.2257
  102OSM     NF10267   1.440   1.163  10.366 -0.5230  0.1728  1.1816
  102OSM    HNF10268   1.529   1.125  10.342 -0.7230 -0.8830  2.0831
  102OSM    C2S10269   1.436   1.275  10.453  0.7196  0.2072 -1.1762
  102OSM    H2S10270   1.369   1.351  10.408  0.0380 -0.4632 -1.3110
  102OSM    C3S10271   1.577   1.331  10.486 -0.1224  0.1232  0.6770
  102OSM    H3S10272   1.641   1.243  10.508 -1.0195 -0.8298 -0.3905
  102OSM     O310273   1.582   1.428  10.591 -0.1054 -0.9096  0.2368
  102OSM    HO310274   1.488   1.430  10.613 -0.3008  1.7967 -0.4343
  102OSM    C4S10275   1.638   1.392  10.364  0.6531 -0.4178  0.2271
  102OSM    H4S10276   1.703   1.319  10.313 -1.5342 -2.5911  0.3368
  102OSM    C5S10277   1.611   1.509  10.305  0.0336 -0.1045  0.6278
  102OSM    H5S10278   1.540   1.582  10.345 -3.0824 -1.5902 -1.7039
  102OSM    C6S10279   1.677   1.545  10.178  0.2786 -0.2214 -0.0335
  102OSM    H6S10280   1.731   1.641  10.192 -0.4017  0.3496 -1.2120
  102OSM    H6T10281   1.598   1.578  10.107  0.0301  1.0734  0.8089
  102OSM    C7S10282   1.773   1.443  10.107 -0.2096 -0.2538  0.4680
  102OSM    H7S10283   1.723   1.346  10.084 -0.3344  0.0262 -0.5158
  102OSM    H7T10284   1.856   1.412  10.174  0.2434 -2.4087 -0.9807
  102OSM    C8S10285   1.833   1.501   9.973  0.1955 -0.1853 -0.0813
  102OSM    H8S10286   1.889   1.590  10.010 -0.7474  0.1198  0.6491
  102OSM    H8T10287   1.745   1.543   9.921 -0.9479  1.0321  2.6697
  102OSM    C9S10288   1.901   1.393   9.892  0.1922  0.3164  0.4236
  102OSM    H9S10289   1.832   1.305   9.895  0.4602  0.0485 -0.8242
  102OSM    H9T10290   1.987   1.361   9.954  0.0300  0.9124  0.9663
  102OSM   C10S10291   1.943   1.433   9.750 -0.4876  0.5482  0.4706
  102OSM   H10S10292   2.006   1.351   9.710 -4.3624 -3.8897  2.4996
  102OSM   H10T10293   2.006   1.524   9.757  0.7500 -0.0359 -1.9017
  102OSM   C11S10294   1.834   1.437   9.647  0.3573  0.3378 -0.1448
  102OSM   H11S10295   1.768   1.518   9.684  0.1518 -0.4794  1.4032
  102OSM   H11T10296   1.778   1.341   9.648  2.0411 -0.6933  0.3257
  102OSM   C12S10297   1.890   1.483   9.509  0.9376  0.1183  0.3376
  102OSM   H12S10298   1.922   1.389   9.459  1.2139  0.7389 -0.6690
  102OSM   H12T10299   1.981   1.543   9.531  1.5539 -0.6974  0.0611
  102OSM   C13S10300   1.796   1.568   9.425 -0.3244 -0.0333 -0.1640
  102OSM   H13S10301   1.825   1.673   9.442 -3.3245  0.8954 -0.1510
  102OSM   H13T10302   1.692   1.551   9.461  0.1700 -0.5933  1.0654
  102OSM   C14S10303   1.804   1.534   9.274 -0.3473  0.4548  0.5556
  102OSM   H14S10304   1.739   1.444   9.265 -0.4535  0.5809 -0.0089
  102OSM   H14T10305   1.904   1.518   9.229 -0.3957 -3.0636  1.4156
  102OSM   C15S10306   1.726   1.641   9.196 -0.4631  0.6813  0.3270
  102OSM   H15S10307   1.798   1.726   9.200  0.8776 -0.4658  3.2684
  102OSM   H15T10308   1.623   1.672   9.224 -1.7771 -2.1786 -0.9432
  102OSM   C16S10309   1.705   1.605   9.042  0.2979 -0.5403 -0.2013
  102OSM   H16S10310   1.687   1.692   8.976  0.6361 -0.6308 -0.4206
  102OSM   H16T10311   1.619   1.535   9.041 -0.4991  0.4049  0.7796
  102OSM   C17S10312   1.822   1.535   8.964  0.3148 -0.3190 -0.8154
  102OSM   H17S10313   1.850   1.446   9.025  0.7501  2.1214  2.8023
  102OSM   H17T10314   1.912   1.600   8.960 -0.7830  1.2320 -1.2258
  102OSM   C18S10315   1.768   1.482   8.832  0.2422  0.0204 -0.4604
  102OSM   H18S10316   1.854   1.455   8.766  1.9131 -1.1841  2.0691
  102OSM   H18T10317   1.703   1.564   8.794 -0.4659  0.3155  1.3015
  102OSM   H18U10318   1.698   1.399   8.852  1.9989 -1.0589  1.6602
  102OSM    C1F10319   1.325   1.124  10.306  0.3724 -0.5265  0.1524
  102OSM     OF10320   1.226   1.187  10.327  0.2290  0.0899  0.2475
  102OSM    C2F10321   1.330   1.000  10.218 -0.0612  0.7210 -0.0084
  102OSM    H2F10322   1.225   0.964  10.212  0.3789 -0.3936 -2.3672
  102OSM    H2G10323   1.394   0.921  10.263 -0.4133  1.6053  2.1698
  102OSM    C3F10324   1.369   1.024  10.067 -0.2115 -0.0293  0.2319
  102OSM    H3F10325   1.317   1.116  10.033 -0.3944  0.8210  2.5654
  102OSM    H3G10326   1.323   0.942  10.009 -2.2728  0.5987  0.8776
  102OSM    C4F10327   1.518   1.026  10.043 -0.1629 -0.1405  0.6910
  102OSM    H4F10328   1.568   0.943  10.099 -0.3794  0.3705  1.6618
  102OSM    H4G10329   1.549   1.117  10.098 -0.4382  0.2910  0.1317
  102OSM    C5F10330   1.556   1.033   9.893  0.9331  0.3176  0.1581
  102OSM    H5F10331   1.519   1.131   9.858  4.3714  1.5251 -0.4666
  102OSM    H5G10332   1.517   0.941   9.844  0.9805 -0.8434  2.1839
  102OSM    C6F10333   1.704   1.018   9.872 -0.0848 -0.6357 -0.1941
  102OSM    H6F10334   1.750   0.944   9.942  0.1505  0.3601  0.7264
  102OSM    H6G10335   1.753   1.116   9.892 -3.1315  0.7893  0.7647
  102OSM    C7F10336   1.748   0.979   9.734  0.1883  0.6564 -0.5474
  102OSM    H7F10337   1.683   1.029   9.658 -0.7286  0.3250  0.0022
  102OSM    H7G10338   1.735   0.869   9.729  0.4945  0.6701 -3.0657
  102OSM    C8F10339   1.900   0.983   9.701 -0.9894  0.0167 -0.0687
  102OSM    H8F10340   1.959   0.935   9.783  1.7209 -0.5937 -2.2307
  102OSM    H8G10341   1.933   1.089   9.707  1.8346 -0.7806  0.0374
  102OSM    C9F10342   1.945   0.911   9.575 -0.3898 -0.8409  0.8589
  102OSM    H9F10343   2.007   0.822   9.593  0.3724 -0.0355  2.5281
  102OSM   C10F10344   1.914   0.941   9.453  0.2320  0.0684 -0.3329
  102OSM   H10F10345   1.956   0.883   9.370  1.3150  0.9716 -0.4470
  102OSM   C11F10346   1.826   1.053   9.419  0.2294 -0.3320  0.1501
  102OSM   H11F10347   1.859   1.105   9.327  2.9119  1.4969  2.0032
  102OSM   H11G10348   1.808   1.132   9.496 -0.5460 -0.5724  0.2332
  102OSM   C12F10349   1.678   1.003   9.388  0.1853 -0.8968 -0.5378
  102OSM   H12F10350   1.612   1.092   9.389 -0.4796 -1.3006  2.6300
  102OSM   H12G10351   1.638   0.941   9.472  0.2792 -0.6022 -0.2757
  102OSM   C13F10352   1.652   0.919   9.261  0.2212  0.7659 -0.0153
  102OSM   H13F10353   1.585   0.830   9.267  2.4277 -1.0167 -0.2371
  102OSM   H13G10354   1.751   0.880   9.227 -0.1730  1.7443 -2.4485
  102OSM   C14F10355   1.602   1.001   9.135  0.2830  0.1292  0.4479
  102OSM   H14F10356   1.675   1.085   9.123 -0.2586  0.9979  2.7140
  102OSM   H14G10357   1.504   1.048   9.155  1.1769  1.7801  1.1813
  102OSM   C15F10358   1.600   0.906   9.015 -0.4289 -0.1724 -0.2568
  102OSM   H15F10359   1.525   0.823   9.019  0.0852 -0.6099  0.6849
  102OSM   H15G10360   1.700   0.860   9.004  0.0387  0.5673  0.8521
  102OSM   C16F10361   1.580   0.991   8.888  0.0928 -0.1123  0.5193
  102OSM   H16F10362   1.626   1.091   8.904 -1.6512  0.9101 -0.4603
  102OSM   H16G10363   1.470   1.009   8.891 -0.4231 -2.4208 -1.5293
  102OSM   C17F10364   1.627   0.924   8.753  0.5806 -0.2832  0.7083
  102OSM   H17F10365   1.738   0.931   8.744  0.6397 -1.2452  0.6291
  102OSM   H17G10366   1.573   0.983   8.676 -0.7458 -0.8603  1.1737
  102OSM   C18F10367   1.584   0.773   8.741 -0.8091 -0.0479  0.4581
  102OSM   H18F10368   1.647   0.717   8.813 -0.4075 -1.3443 -0.8755
  102OSM   H18G10369   1.611   0.728   8.644  0.3789 -2.6997  1.9079
  102OSM   H18H10370   1.479   0.768   8.777 -0.7679 -0.1606  0.5628
  103OSM      N10371   5.966   4.313  10.726 -0.0629 -0.3798  0.6112
  103OSM    C1510372   5.967   4.361  10.589  0.3154  0.6545 -0.1290
  103OSM   H15A10373   6.032   4.446  10.574 -1.2696  2.1727  1.1857
  103OSM   H15B10374   5.868   4.389  10.559 -0.2383  1.1691  1.9987
  103OSM   H15C10375   6.002   4.282  10.524  1.1353  1.4932 -0.7272
  103OSM    C1410376   5.905   4.420  10.810 -0.1378  0.1456 -0.4988
  103OSM   H14A10377   5.805   4.449  10.783 -0.8619  0.8310  2.5446
  103OSM   H14B10378   5.971   4.505  10.818  0.1562 -0.1682  0.5750
  103OSM   H14C10379   5.884   4.381  10.908 -1.5031  0.7474 -0.5370
  103OSM    C1310380   5.876   4.190  10.735  0.4284  0.3973 -0.0509
  103OSM   H13A10381   5.938   4.102  10.721 -1.5885 -0.8706 -1.6430
  103OSM   H13B10382   5.804   4.176  10.655  3.0960 -0.0042 -2.5539
  103OSM   H13C10383   5.820   4.189  10.827 -0.1522  0.7718 -0.3967
  103OSM    C1210384   6.111   4.284  10.771  0.8608  0.1692 -0.0171
  103OSM   H12A10385   6.112   4.242  10.871  1.1965 -1.6887 -0.7623
  103OSM   H12B10386   6.160   4.380  10.769  0.5729  0.3137 -0.1595
  103OSM    C1110387   6.185   4.189  10.682 -0.1554 -0.4034  1.3624
  103OSM   H11A10388   6.294   4.197  10.700  0.2188 -1.4871 -0.2447
  103OSM   H11B10389   6.182   4.214  10.574 -1.4789 -1.1169  1.2082
  103OSM      P10390   6.199   3.974  10.834 -0.3455 -0.0961  0.1046
  103OSM    O1310391   6.218   4.071  10.943  0.5682  0.8445  0.2715
  103OSM    O1410392   6.120   3.849  10.866 -0.2471  0.4135  0.2013
  103OSM    O1110393   6.347   3.931  10.790  0.3486  0.0707 -0.5120
  103OSM    O1210394   6.137   4.053  10.703  0.8032 -0.8759 -0.3857
  103OSM    C1S10395   6.352   3.828  10.689 -0.4220 -0.5607  0.5653
  103OSM    H1S10396   6.256   3.775  10.668 -0.5357 -0.0399 -0.2854
  103OSM    H1T10397   6.428   3.752  10.717  0.2384  0.6726  2.2723
  103OSM     NF10398   6.371   3.779  10.430 -0.0103 -0.0297  1.0615
  103OSM    HNF10399   6.455   3.745  10.389  0.1682 -1.7192  2.7048
  103OSM    C2S10400   6.383   3.883  10.539  0.1501 -0.4755  0.2996
  103OSM    H2S10401   6.304   3.958  10.516  1.1334  0.5604  0.2552
  103OSM    C3S10402   6.519   3.957  10.544 -0.1594 -0.4813  0.7053
  103OSM    H3S10403   6.580   3.866  10.561 -0.0881 -0.9566 -1.7574
  103OSM     O310404   6.542   4.049  10.651 -0.4500 -0.0612  0.3364
  103OSM    HO310405   6.465   4.032  10.706  0.4529 -1.0412  1.3786
  103OSM    C4S10406   6.539   4.012  10.401 -0.7353  0.1054  0.6853
  103OSM    H4S10407   6.584   3.935  10.336  0.6279  1.2735  0.2072
  103OSM    C5S10408   6.513   4.142  10.355  0.4868 -0.2671  0.1792
  103OSM    H5S10409   6.490   4.218  10.431 -0.0069 -0.6079  0.3711
  103OSM    C6S10410   6.548   4.184  10.215  0.1589 -0.1967 -0.5884
  103OSM    H6S10411   6.638   4.246  10.237  0.5545  0.1307 -2.9583
  103OSM    H6T10412   6.470   4.243  10.164 -0.7628  0.1110  1.1096
  103OSM    C7S10413   6.583   4.075  10.115 -0.3623 -0.0485 -0.5424
  103OSM    H7S10414   6.496   4.006  10.114  0.3898 -1.0438  0.3978
  103OSM    H7T10415   6.666   4.014  10.155  0.1676 -0.4152 -2.1070
  103OSM    C8S10416   6.614   4.151   9.982  0.0278  0.3044  0.5297
  103OSM    H8S10417   6.687   4.232  10.003 -0.7691  1.4550 -0.9927
  103OSM    H8T10418   6.517   4.194   9.951 -0.5336  1.1678  3.1822
  103OSM    C9S10419   6.668   4.057   9.872  0.2797 -0.1665 -0.1666
  103OSM    H9S10420   6.594   3.975   9.863 -0.2769  0.5706 -3.2571
  103OSM    H9T10421   6.762   4.009   9.909  1.5532  2.8960  0.9444
  103OSM   C10S10422   6.693   4.136   9.737  0.7477  0.1542 -0.4876
  103OSM   H10S10423   6.784   4.193   9.764  1.5166 -1.5052  0.5722
  103OSM   H10T10424   6.613   4.213   9.721 -1.5519 -1.7334  1.1546
  103OSM   C11S10425   6.738   4.055   9.616  0.7032  0.1796  0.0068
  103OSM   H11S10426   6.645   4.004   9.582  0.7006  1.1648 -1.5772
  103OSM   H11T10427   6.807   3.974   9.648 -0.7199 -0.9227  0.3465
  103OSM   C12S10428   6.780   4.132   9.497  0.3625 -0.2835 -0.6812
  103OSM   H12S10429   6.855   4.213   9.511  1.2679 -0.9355 -1.6244
  103OSM   H12T10430   6.684   4.177   9.463 -0.2641 -0.5248  0.7165
  103OSM   C13S10431   6.832   4.049   9.378 -0.2359 -0.1845  0.3612
  103OSM   H13S10432   6.927   4.001   9.406  0.5802  1.0357 -0.2233
  103OSM   H13T10433   6.845   4.122   9.295  1.8826  1.1863  1.8074
  103OSM   C14S10434   6.728   3.940   9.331 -0.8133 -0.0968  0.1934
  103OSM   H14S10435   6.624   3.972   9.310 -1.2048 -0.6056  1.2940
  103OSM   H14T10436   6.720   3.881   9.424 -0.3009  0.6298  0.7043
  103OSM   C15S10437   6.779   3.841   9.226  0.4936  0.0411 -0.0882
  103OSM   H15S10438   6.700   3.770   9.194  0.5290  0.4282 -1.0486
  103OSM   H15T10439   6.864   3.780   9.265 -0.0063 -1.5614 -1.3688
  103OSM   C16S10440   6.826   3.913   9.098 -1.1662  0.1583 -0.2202
  103OSM   H16S10441   6.917   3.970   9.127  0.0241 -1.1143 -1.3067
  103OSM   H16T10442   6.753   3.989   9.062  0.5887  1.1732 -1.7701
  103OSM   C17S10443   6.860   3.810   8.988  0.3187 -0.1886  0.5874
  103OSM   H17S10444   6.774   3.741   8.975 -0.1781  0.7522 -1.6648
  103OSM   H17T10445   6.951   3.748   9.002 -0.1683 -1.3345 -0.9829
  103OSM   C18S10446   6.884   3.881   8.846 -0.2747 -0.1859 -0.3554
  103OSM   H18S10447   6.977   3.942   8.848  0.8479 -1.7181 -2.5136
  103OSM   H18T10448   6.792   3.931   8.808 -0.6855 -0.6382  0.0261
  103OSM   H18U10449   6.911   3.803   8.772 -0.4156 -0.6712  0.0965
  103OSM    C1F10450   6.251   3.717  10.399 -0.3877 -0.5614  0.2411
  103OSM     OF10451   6.146   3.750  10.458  0.6368  0.7123  0.2293
  103OSM    C2F10452   6.252   3.609  10.297  0.5272 -0.9290  0.4548
  103OSM    H2F10453   6.185   3.524  10.321 -0.4784 -0.2371  0.1744
  103OSM    H2G10454   6.353   3.565  10.289  1.4400  1.3588 -2.4071
  103OSM    C3F10455   6.216   3.671  10.156  0.8929  0.1716 -0.8407
  103OSM    H3F10456   6.269   3.767  10.137 -0.9183  0.7721 -3.4844
  103OSM    H3G10457   6.110   3.705  10.158  0.2616 -1.6964 -0.8220
  103OSM    C4F10458   6.239   3.584  10.030 -0.2326  0.5460 -0.0187
  103OSM    H4F10459   6.179   3.491  10.036  0.0826  0.3838  0.8200
  103OSM    H4G10460   6.347   3.560  10.028 -0.4668 -0.7505  1.2824
  103OSM    C5F10461   6.212   3.663   9.901  0.2080 -0.7235  0.0059
  103OSM    H5F10462   6.269   3.759   9.902 -2.4200  0.9927 -1.1803
  103OSM    H5G10463   6.105   3.692   9.893  0.4066 -0.1802 -0.7705
  103OSM    C6F10464   6.246   3.578   9.777  0.5675 -0.1818 -0.0605
  103OSM    H6F10465   6.179   3.492   9.799  0.9030 -0.2062  0.8979
  103OSM    H6G10466   6.351   3.546   9.791  0.7612  0.6466  0.4496
  103OSM    C7F10467   6.216   3.637   9.640 -0.6629  0.5171 -0.9347
  103OSM    H7F10468   6.290   3.718   9.619  1.8483 -1.3621  0.1855
  103OSM    H7G10469   6.122   3.695   9.644 -0.8001  0.2272  0.9585
  103OSM    C8F10470   6.220   3.535   9.526 -0.2776  0.7747 -0.0843
  103OSM    H8F10471   6.149   3.453   9.551  1.1477  0.1593  2.3296
  103OSM    H8G10472   6.314   3.475   9.527 -1.0442 -0.4749 -0.0782
  103OSM    C9F10473   6.205   3.611   9.399 -0.2754  0.2929  0.0551
  103OSM    H9F10474   6.145   3.702   9.414 -2.1500 -0.9696  0.6867
  103OSM   C10F10475   6.235   3.565   9.279 -0.0590  0.5212 -0.1706
  103OSM   H10F10476   6.217   3.639   9.200 -1.9028  0.1833 -0.1164
  103OSM   C11F10477   6.313   3.437   9.251  0.0852 -0.4917  0.2109
  103OSM   H11F10478   6.244   3.351   9.235 -0.6394 -0.0329  0.8311
  103OSM   H11G10479   6.394   3.415   9.324  1.4697  2.3327 -0.3414
  103OSM   C12F10480   6.383   3.444   9.112 -1.1499 -0.0211  0.9556
  103OSM   H12F10481   6.432   3.345   9.102 -1.1630  0.1070 -0.6816
  103OSM   H12G10482   6.460   3.524   9.104 -0.4352 -0.8623 -0.9013
  103OSM   C13F10483   6.289   3.452   8.988 -0.1916 -0.3573 -0.1336
  103OSM   H13F10484   6.233   3.547   8.985  0.6340  0.1238 -0.7046
  103OSM   H13G10485   6.217   3.369   9.009  0.0534 -0.9144 -1.4049
  103OSM   C14F10486   6.355   3.436   8.846  0.2290 -0.0372  0.2284
  103OSM   H14F10487   6.285   3.395   8.770  0.7253 -1.0446  0.2913
  103OSM   H14G10488   6.441   3.365   8.846 -0.8499 -1.3884  1.1488
  103OSM   C15F10489   6.422   3.572   8.807 -0.6957 -0.6534 -0.3621
  103OSM   H15F10490   6.495   3.605   8.884 -1.6298 -0.5161  0.4986
  103OSM   H15G10491   6.350   3.656   8.794 -1.6223 -0.7805  2.9128
  103OSM   C16F10492   6.501   3.562   8.674  0.3748 -0.9437 -0.8740
  103OSM   H16F10493   6.572   3.477   8.677  0.5237 -0.7894  0.9085
  103OSM   H16G10494   6.563   3.655   8.675 -0.4562 -0.3795 -0.2584
  103OSM   C17F10495   6.421   3.544   8.541 -0.0207 -0.7281 -0.5530
  103OSM   H17F10496   6.390   3.438   8.529  0.3905 -0.8712 -0.3678
  103OSM   H17G10497   6.500   3.566   8.467  2.9422  0.4665  2.6851
  103OSM   C18F10498   6.299   3.638   8.518  0.1133  0.2870 -0.5690
  103OSM   H18F10499   6.253   3.682   8.609  4.0498  2.0155  0.7849
  103OSM   H18G10500   6.228   3.583   8.452  0.3977  0.7168 -1.2460
  103OSM   H18H10501   6.340   3.723   8.460 -0.7130  1.1821  0.1310
  104OSM      N10502   0.219   3.594  11.165 -0.3983 -0.4815 -0.4162
  104OSM    C1510503   0.209   3.449  11.198  0.4983  0.4294 -0.6955
  104OSM   H15A10504   0.115   3.404  11.172 -0.5937  2.0368  0.2624
  104OSM   H15B10505   0.235   3.428  11.301 -1.4213 -0.8803 -0.4373
  104OSM   H15C10506   0.291   3.400  11.148 -0.1854 -1.4385 -0.0546
  104OSM    C1410507   0.088   3.656  11.199  0.5770 -0.1225 -0.1292
  104OSM   H14A10508   0.060   3.661  11.303 -0.3753  2.1949 -0.4282
  104OSM   H14B10509   0.004   3.600  11.162  1.1145 -0.3786 -0.9918
  104OSM   H14C10510   0.091   3.756  11.157  1.0117  0.3136  0.9099
  104OSM    C1310511   0.329   3.662  11.248  0.3599 -0.2893 -0.5259
  104OSM   H13A10512   0.309   3.648  11.353  3.0949  0.6335  0.1975
  104OSM   H13B10513   0.347   3.765  11.224  1.4725 -0.5731 -0.9768
  104OSM   H13C10514   0.425   3.615  11.230  1.4476  0.4481  2.6866
  104OSM    C1210515   0.248   3.614  11.013  0.5286  0.2466 -0.2780
  104OSM   H12A10516   0.184   3.548  10.956 -0.5329  1.8812 -1.0328
  104OSM   H12B10517   0.350   3.585  10.992  1.3305  2.1381  0.7957
  104OSM    C1110518   0.229   3.760  10.968  0.1845  0.3102  0.4174
  104OSM   H11A10519   0.284   3.782  10.874 -0.6476 -2.1958 -0.7541
  104OSM   H11B10520   0.264   3.834  11.042 -0.0601  0.2836  0.5610
  104OSM      P10521   0.027   3.746  10.794  0.3764 -0.1151  0.7977
  104OSM    O1310522   0.027   3.604  10.768 -0.6089  0.0725  0.4042
  104OSM    O1410523  -0.111   3.795  10.815 -0.0620  0.0091  0.2834
  104OSM    O1110524   0.095   3.834  10.680 -0.7463  0.2556  0.5277
  104OSM    O1210525   0.096   3.778  10.933  0.4673 -0.4974 -0.8186
  104OSM    C1S10526   0.199   3.787  10.601 -0.2329  0.0227 -0.0846
  104OSM    H1S10527   0.213   3.677  10.594 -0.2025  0.0784 -1.0883
  104OSM    H1T10528   0.286   3.837  10.649 -1.3220  0.4432  1.5411
  104OSM     NF10529   0.309   3.764  10.374 -0.0276 -0.2618 -0.4273
  104OSM    HNF10530   0.384   3.820  10.339 -1.3274  1.0764 -1.1398
  104OSM    C2S10531   0.207   3.839  10.449 -0.1495  0.0935  0.3857
  104OSM    H2S10532   0.112   3.825  10.394 -1.2278  0.5700  2.0528
  104OSM    C3S10533   0.220   3.998  10.454 -0.5551 -0.2958 -0.4926
  104OSM    H3S10534   0.311   4.010  10.516  0.1060 -2.0682 -1.0602
  104OSM     O310535   0.111   4.062  10.517  0.0575  0.0075  0.3618
  104OSM    HO310536   0.073   3.984  10.557 -0.4097  0.6922  1.2706
  104OSM    C4S10537   0.240   4.061  10.324 -0.6539  0.2633  0.0184
  104OSM    H4S10538   0.346   4.071  10.299 -0.5741 -0.6735 -0.0481
  104OSM    C5S10539   0.148   4.093  10.234  0.1061  0.0842  0.1671
  104OSM    H5S10540   0.045   4.060  10.253 -0.0048  1.5414  2.4925
  104OSM    C6S10541   0.167   4.138  10.093 -0.0704 -0.3181 -0.4669
  104OSM    H6S10542   0.254   4.206  10.092 -0.8288  0.6942 -0.0411
  104OSM    H6T10543   0.078   4.190  10.052 -1.1322 -0.6246  1.3346
  104OSM    C7S10544   0.196   4.008  10.013 -0.3983  0.0451  0.2375
  104OSM    H7S10545   0.135   3.919  10.039  1.3485 -0.3874  3.3687
  104OSM    H7T10546   0.298   3.983  10.051 -0.5221  0.1547  0.6428
  104OSM    C8S10547   0.199   4.031   9.856  0.6616 -0.0063  0.4393
  104OSM    H8S10548   0.199   4.141   9.844  0.6718  0.1336  1.5990
  104OSM    H8T10549   0.113   3.980   9.807 -0.2151  0.1030  1.7861
  104OSM    C9S10550   0.325   3.966   9.792  0.2779 -0.2213  0.0239
  104OSM    H9S10551   0.334   3.860   9.825 -1.5352 -0.3643  0.1809
  104OSM    H9T10552   0.409   4.030   9.826  0.5546 -0.4210 -0.2819
  104OSM   C10S10553   0.338   3.952   9.638  0.1144 -0.0311 -0.0730
  104OSM   H10S10554   0.447   3.937   9.621  0.1432 -0.1597  0.2307
  104OSM   H10T10555   0.307   4.045   9.586  0.5951  0.0122 -0.2893
  104OSM   C11S10556   0.263   3.836   9.577 -0.4097  0.1202  0.4951
  104OSM   H11S10557   0.156   3.867   9.584 -0.3990  0.5914 -1.1588
  104OSM   H11T10558   0.286   3.748   9.640 -0.7590  1.3198  2.4014
  104OSM   C12S10559   0.310   3.809   9.429  0.0911 -0.4381 -0.7980
  104OSM   H12S10560   0.336   3.908   9.386  0.4168  1.3282  3.0361
  104OSM   H12T10561   0.216   3.774   9.382 -0.6640 -1.0351  1.0924
  104OSM   C13S10562   0.431   3.713   9.411 -1.1199 -0.5498 -0.1703
  104OSM   H13S10563   0.422   3.621   9.473 -0.6680 -0.1368  0.5303
  104OSM   H13T10564   0.516   3.776   9.444 -3.1411  2.3885 -0.1506
  104OSM   C14S10565   0.438   3.681   9.262  0.0482  0.0916 -0.7222
  104OSM   H14S10566   0.427   3.771   9.197  2.2116 -0.0561 -1.3864
  104OSM   H14T10567   0.359   3.605   9.247  1.1610 -1.5897  1.3374
  104OSM   C15S10568   0.581   3.637   9.231  0.3405  0.0123 -0.4981
  104OSM   H15S10569   0.605   3.547   9.292  0.1233  2.4495  3.5443
  104OSM   H15T10570   0.645   3.718   9.270 -0.6431  0.8371 -0.5494
  104OSM   C16S10571   0.601   3.611   9.083 -0.4137  0.3759 -0.4754
  104OSM   H16S10572   0.552   3.691   9.024  2.0424  0.3843 -2.7110
  104OSM   H16T10573   0.575   3.511   9.043 -0.2824  0.5687 -1.0626
  104OSM   C17S10574   0.748   3.644   9.048 -0.7275  0.1626 -0.1575
  104OSM   H17S10575   0.760   3.754   9.041 -0.7282  0.2345  0.7403
  104OSM   H17T10576   0.772   3.608   8.946  0.8215  0.6980 -0.0108
  104OSM   C18S10577   0.849   3.572   9.144 -0.1418  0.2476  0.4917
  104OSM   H18S10578   0.843   3.462   9.128  0.4620  0.3025 -0.1927
  104OSM   H18T10579   0.820   3.593   9.249  1.3555  0.6556  0.8425
  104OSM   H18U10580   0.952   3.613   9.134 -0.6624  1.9044  1.6787
  104OSM    C1F10581   0.298   3.632  10.349 -0.4453 -0.2174  0.1819
  104OSM     OF10582   0.196   3.570  10.377  0.6009  0.0546  0.2829
  104OSM    C2F10583   0.426   3.571  10.289  0.3478  0.5246  0.0146
  104OSM    H2F10584   0.428   3.460  10.291  2.6646  0.5313  0.0134
  104OSM    H2G10585   0.509   3.611  10.350  0.3043 -1.3707  1.3981
  104OSM    C3F10586   0.427   3.593  10.139  0.0498 -0.2054  0.5548
  104OSM    H3F10587   0.438   3.702  10.120 -0.4253 -0.1950  0.3362
  104OSM    H3G10588   0.341   3.548  10.085 -0.0595  1.7518 -1.0297
  104OSM    C4F10589   0.564   3.546  10.078 -1.0501 -0.8689  0.5421
  104OSM    H4F10590   0.583   3.439  10.103 -0.6884 -0.9118  0.0897
  104OSM    H4G10591   0.650   3.607  10.115  0.9460 -1.3064 -2.9697
  104OSM    C5F10592   0.559   3.540   9.923 -0.3559 -0.7424  0.5213
  104OSM    H5F10593   0.663   3.534   9.882 -0.1478  1.1582  0.6806
  104OSM    H5G10594   0.522   3.631   9.871 -1.0972 -1.6167 -0.5188
  104OSM    C6F10595   0.467   3.430   9.875 -0.3300 -0.1827  0.2263
  104OSM    H6F10596   0.363   3.437   9.912 -0.6039 -0.9038 -0.3801
  104OSM    H6G10597   0.524   3.337   9.898  0.5489  0.1637 -0.4583
  104OSM    C7F10598   0.459   3.424   9.717 -0.0885 -0.3146  1.0275
  104OSM    H7F10599   0.393   3.503   9.674  2.0841 -0.2163 -2.4808
  104OSM    H7G10600   0.421   3.327   9.681 -2.4634  0.5710  0.9660
  104OSM    C8F10601   0.588   3.447   9.646 -0.1815  0.8839 -0.2975
  104OSM    H8F10602   0.637   3.546   9.663  0.3477  1.2560 -3.4949
  104OSM    H8G10603   0.564   3.447   9.538 -2.4134 -1.9891  0.0828
  104OSM    C9F10604   0.681   3.335   9.679 -0.7785 -0.7878  0.0831
  104OSM    H9F10605   0.687   3.303   9.784  1.3861  0.2927  0.3576
  104OSM   C10F10606   0.777   3.285   9.591  0.2768  0.4583  0.6244
  104OSM   H10F10607   0.843   3.204   9.624 -0.2124 -0.9586 -1.6937
  104OSM   C11F10608   0.799   3.329   9.444  0.4319  0.1774 -0.2763
  104OSM   H11F10609   0.905   3.361   9.433  1.7175 -1.7612  4.0806
  104OSM   H11G10610   0.737   3.419   9.423 -1.2450 -0.1167  2.8352
  104OSM   C12F10611   0.761   3.208   9.358  0.6453  0.2038 -0.0712
  104OSM   H12F10612   0.790   3.115   9.411 -0.6014 -0.3164 -0.2796
  104OSM   H12G10613   0.806   3.202   9.256 -2.2895 -1.3109 -1.3914
  104OSM   C13F10614   0.616   3.206   9.326  0.2556  0.1057  0.2982
  104OSM   H13F10615   0.587   3.310   9.302  0.5247 -0.1932 -1.4403
  104OSM   H13G10616   0.562   3.188   9.421  0.1231  1.8782  0.5858
  104OSM   C14F10617   0.574   3.099   9.228  0.1433 -0.0543 -0.2071
  104OSM   H14F10618   0.472   3.056   9.240  0.5514 -0.8544  0.4675
  104OSM   H14G10619   0.645   3.017   9.250  1.7998  1.4557  0.3128
  104OSM   C15F10620   0.599   3.136   9.084  0.2895 -0.1092  1.2174
  104OSM   H15F10621   0.677   3.214   9.074  0.1842 -0.1833 -0.5130
  104OSM   H15G10622   0.521   3.202   9.042  1.9190  0.1714 -1.6146
  104OSM   C16F10623   0.631   3.017   8.988  0.0743  0.7886  0.0471
  104OSM   H16F10624   0.537   2.959   8.974  0.9065 -0.0431 -2.6947
  104OSM   H16G10625   0.701   2.946   9.036 -1.4826 -1.3484 -0.6726
  104OSM   C17F10626   0.708   3.048   8.859  0.1921  0.1634  0.4123
  104OSM   H17F10627   0.797   3.111   8.882 -0.0356  1.4400 -1.8930
  104OSM   H17G10628   0.645   3.106   8.789  0.6699 -1.0287 -1.0788
  104OSM   C18F10629   0.756   2.923   8.781  0.2250  0.0018 -0.2176
  104OSM   H18F10630   0.667   2.867   8.745 -0.4617 -0.9610  2.7092
  104OSM   H18G10631   0.807   2.856   8.854  0.3762  2.2157  1.8424
  104OSM   H18H10632   0.827   2.952   8.701  0.0269  0.3835 -0.2597
  105OSM      N10633   5.083   0.914  10.866  0.4662  0.2242 -0.2954
  105OSM    C1510634   5.084   1.062  10.873 -0.3333  0.4347 -0.4202
  105OSM   H15A10635   5.139   1.099  10.788 -2.5034  2.5724 -1.0050
  105OSM   H15B10636   5.134   1.098  10.961  0.3491 -0.4974 -0.4157
  105OSM   H15C10637   4.989   1.111  10.890 -0.2967  0.5692 -0.6056
  105OSM    C1410638   5.226   0.861  10.848  0.2509 -0.5559  0.1363
  105OSM   H14A10639   5.293   0.891  10.928 -0.2231 -1.4560  0.8989
  105OSM   H14B10640   5.262   0.890  10.750 -0.7129 -1.7938 -0.6146
  105OSM   H14C10641   5.232   0.755  10.868  2.0313 -0.3521  0.8859
  105OSM    C1310642   5.024   0.858  10.995 -0.5594  0.0108  0.8746
  105OSM   H13A10643   5.069   0.885  11.089  0.1702 -0.3128  0.6310
  105OSM   H13B10644   5.012   0.751  10.986  0.8313 -0.1085  0.2549
  105OSM   H13C10645   4.923   0.896  10.995 -0.1720  1.1758 -1.2559
  105OSM    C1210646   4.993   0.857  10.752  0.6990 -0.2634  0.2703
  105OSM   H12A10647   4.982   0.752  10.776 -0.4241  0.4902  3.3659
  105OSM   H12B10648   5.048   0.874  10.660 -0.7288 -0.4745 -0.6464
  105OSM    C1110649   4.848   0.905  10.746 -0.5203 -0.8137  0.1758
  105OSM   H11A10650   4.796   0.872  10.654  1.7100  0.1690 -1.5167
  105OSM   H11B10651   4.841   1.014  10.762  1.5136 -0.7071  0.6306
  105OSM      P10652   4.702   0.709  10.877 -0.1690  0.5345  0.0015
  105OSM    O1310653   4.738   0.657  11.017  0.0190 -0.3903  0.2764
  105OSM    O1410654   4.559   0.737  10.853  0.7813 -0.1501 -0.3909
  105OSM    O1110655   4.781   0.624  10.761 -0.2972  0.0501  0.1190
  105OSM    O1210656   4.778   0.845  10.860  0.1632 -0.3688 -0.6384
  105OSM    C1S10657   4.751   0.486  10.737 -0.2443 -0.0766  0.1219
  105OSM    H1S10658   4.668   0.446  10.800  0.1322 -1.6997 -0.3802
  105OSM    H1T10659   4.839   0.420  10.752  0.8919  1.2329 -0.5866
  105OSM     NF10660   4.649   0.335  10.567 -0.0689  0.3788 -0.1829
  105OSM    HNF10661   4.703   0.262  10.526  1.7674  0.2592  2.1710
  105OSM    C2S10662   4.711   0.466  10.590  0.3949 -0.2028 -0.4828
  105OSM    H2S10663   4.649   0.556  10.569  2.5155  1.5546  0.4116
  105OSM    C3S10664   4.834   0.497  10.496  0.5054  0.7329  0.1021
  105OSM    H3S10665   4.910   0.416  10.505  0.3352  0.5633  0.0205
  105OSM     O310666   4.906   0.616  10.521  0.3136 -0.0424  0.0806
  105OSM    HO310667   4.882   0.633  10.612  1.9562  1.6855  0.2705
  105OSM    C4S10668   4.791   0.488  10.348  0.3167  0.1830 -0.4323
  105OSM    H4S10669   4.779   0.384  10.314  2.6703 -0.9359  1.7748
  105OSM    C5S10670   4.794   0.591  10.264 -0.0531  0.1883  0.7390
  105OSM    H5S10671   4.822   0.693  10.294 -2.4771  1.5443 -1.1756
  105OSM    C6S10672   4.769   0.591  10.113 -0.5063  0.0517 -0.6283
  105OSM    H6S10673   4.859   0.593  10.047  0.5480 -1.8294  0.6465
  105OSM    H6T10674   4.700   0.671  10.082 -2.3600 -0.1258  2.6301
  105OSM    C7S10675   4.708   0.461  10.066 -0.0341  0.4857  0.0652
  105OSM    H7S10676   4.611   0.445  10.117 -0.7079 -0.6225 -1.4679
  105OSM    H7T10677   4.770   0.374  10.097 -0.5930  0.0900  0.0791
  105OSM    C8S10678   4.695   0.458   9.906  0.0214 -0.1428 -0.0735
  105OSM    H8S10679   4.682   0.351   9.879  0.5336 -0.5189  1.0956
  105OSM    H8T10680   4.788   0.501   9.864 -0.0220  1.2326  1.1360
  105OSM    C9S10681   4.582   0.550   9.858  0.4432 -0.0947 -0.4329
  105OSM    H9S10682   4.596   0.658   9.881  0.3189 -0.1665 -0.0214
  105OSM    H9T10683   4.490   0.517   9.909  0.1780 -2.0752 -2.0627
  105OSM   C10S10684   4.558   0.532   9.707 -0.1862  0.1682 -0.2915
  105OSM   H10S10685   4.471   0.595   9.679 -0.9080 -0.4618  0.4824
  105OSM   H10T10686   4.529   0.426   9.689  1.9350 -0.4787 -0.1205
  105OSM   C11S10687   4.675   0.584   9.627  0.2941 -0.0109  0.3915
  105OSM   H11S10688   4.750   0.504   9.643  1.5695  0.5661 -2.0779
  105OSM   H11T10689   4.715   0.679   9.668 -0.7460 -0.1889  1.9150
  105OSM   C12S10690   4.645   0.585   9.481 -0.1005 -0.5519  0.0219
  105OSM   H12S10691   4.616   0.480   9.460  0.2224 -0.5704 -0.3505
  105OSM   H12T10692   4.741   0.605   9.429 -0.2167 -0.3352 -0.1130
  105OSM   C13S10693   4.538   0.690   9.446  0.4905  0.5889  0.6248
  105OSM   H13S10694   4.562   0.782   9.504 -2.1139  0.7466  1.5996
  105OSM   H13T10695   4.434   0.659   9.469  0.3717 -0.3257 -1.0027
  105OSM   C14S10696   4.545   0.732   9.295 -0.4007  0.7813  0.3502
  105OSM   H14S10697   4.580   0.634   9.257 -0.2463  0.9308  0.1062
  105OSM   H14T10698   4.630   0.804   9.291  1.3802 -1.2262 -0.1374
  105OSM   C15S10699   4.409   0.764   9.231 -0.0277  0.0284 -0.2917
  105OSM   H15S10700   4.341   0.836   9.281 -0.8081 -0.1969 -1.0116
  105OSM   H15T10701   4.359   0.665   9.227 -2.6902  1.2457  0.5132
  105OSM   C16S10702   4.427   0.819   9.097 -0.3813  0.0564 -0.7370
  105OSM   H16S10703   4.531   0.810   9.060  0.0766  0.7406  0.3124
  105OSM   H16T10704   4.412   0.929   9.098 -0.7169  0.0727  1.8608
  105OSM   C17S10705   4.334   0.763   8.995 -0.1788 -0.5811  0.7057
  105OSM   H17S10706   4.224   0.768   9.014 -0.8508 -0.7678 -2.5277
  105OSM   H17T10707   4.350   0.653   8.991 -6.1527 -1.7918 -0.8899
  105OSM   C18S10708   4.367   0.824   8.862 -0.0569 -0.5706 -0.1645
  105OSM   H18S10709   4.467   0.786   8.831 -0.1801 -2.3232  1.3989
  105OSM   H18T10710   4.357   0.934   8.866 -1.7562 -0.7303  1.2246
  105OSM   H18U10711   4.298   0.782   8.786  0.1857  1.7757 -1.7875
  105OSM    C1F10712   4.526   0.305  10.621 -0.4361 -0.4995  0.0260
  105OSM     OF10713   4.462   0.386  10.688 -0.6061  0.1649  0.0384
  105OSM    C2F10714   4.484   0.162  10.595  0.7134 -0.1299  0.0491
  105OSM    H2F10715   4.454   0.105  10.685 -1.9548 -0.2514 -0.8231
  105OSM    H2G10716   4.557   0.098  10.542  0.5834 -0.2047 -0.0398
  105OSM    C3F10717   4.359   0.165  10.504 -0.7742 -0.3683  0.5233
  105OSM    H3F10718   4.378   0.234  10.419 -1.9499 -0.9247 -0.2176
  105OSM    H3G10719   4.274   0.201  10.565 -1.9088 -1.8938 -0.1055
  105OSM    C4F10720   4.327   0.026  10.446 -0.1856  0.3243 -0.3659
  105OSM    H4F10721   4.272  -0.043  10.513  0.7317 -1.8457 -1.7335
  105OSM    H4G10722   4.414  -0.029  10.406 -0.9433 -0.3950 -1.0842
  105OSM    C5F10723   4.222   0.037  10.330 -0.2885 -0.4678 -0.2996
  105OSM    H5F10724   4.252   0.097  10.242  1.0252 -1.3305 -0.4738
  105OSM    H5G10725   4.132   0.088  10.370  0.1634  0.0655  0.0479
  105OSM    C6F10726   4.191  -0.101  10.276 -0.5022 -0.3793 -0.1479
  105OSM    H6F10727   4.193  -0.188  10.345  0.4857  0.7905  1.3653
  105OSM    H6G10728   4.264  -0.142  10.202  0.7095 -0.4842  1.0662
  105OSM    C7F10729   4.056  -0.087  10.201  0.1219 -0.5928  0.6891
  105OSM    H7F10730   3.981  -0.052  10.276  0.2626  0.4162  0.3687
  105OSM    H7G10731   4.017  -0.189  10.182  0.1002 -0.6595  1.0861
  105OSM    C8F10732   4.064   0.008  10.080 -0.5179  0.2825 -0.1495
  105OSM    H8F10733   4.153  -0.021  10.021 -1.3988  1.2661 -2.0281
  105OSM    H8G10734   4.086   0.112  10.112 -0.2466  0.3669 -0.6103
  105OSM    C9F10735   3.929  -0.002  10.017 -0.4497 -0.0434  0.9440
  105OSM    H9F10736   3.857   0.060  10.072  0.8122  2.3782  0.0204
  105OSM   C10F10737   3.895  -0.070   9.903  0.2064 -0.6282 -0.1460
  105OSM   H10F10738   3.790  -0.064   9.870  0.0082  1.4501  0.7270
  105OSM   C11F10739   3.998  -0.140   9.814  0.0532  0.0127  0.6610
  105OSM   H11F10740   3.954  -0.231   9.769  1.3618 -0.1804 -0.2986
  105OSM   H11G10741   4.093  -0.170   9.863 -0.0149  0.4911  1.0946
  105OSM   C12F10742   4.024  -0.047   9.700 -0.2665  0.6973 -0.1694
  105OSM   H12F10743   4.084   0.038   9.739  0.0475  0.3559  0.1030
  105OSM   H12G10744   3.929  -0.015   9.653 -1.1220 -0.3868  0.7631
  105OSM   C13F10745   4.115  -0.104   9.582  0.3367 -0.4118 -0.9262
  105OSM   H13F10746   4.214  -0.115   9.631  0.1087  0.2523 -0.3059
  105OSM   H13G10747   4.116  -0.021   9.509  0.5363  0.2891 -0.1332
  105OSM   C14F10748   4.081  -0.231   9.496 -0.1811  0.2054 -0.2344
  105OSM   H14F10749   4.045  -0.305   9.570 -1.4357  1.2225  0.2232
  105OSM   H14G10750   4.176  -0.261   9.447  0.2483  0.7728  0.2278
  105OSM   C15F10751   3.964  -0.199   9.397  0.2972  0.5710 -0.1979
  105OSM   H15F10752   3.999  -0.132   9.316  0.0757  1.1405  0.1748
  105OSM   H15G10753   3.881  -0.149   9.450 -0.4901 -2.3390  1.5286
  105OSM   C16F10754   3.904  -0.330   9.336 -0.8742 -0.1677 -0.6785
  105OSM   H16F10755   3.844  -0.374   9.419 -0.0593 -0.1069 -0.0327
  105OSM   H16G10756   3.978  -0.413   9.331  0.7763  1.1871  0.3502
  105OSM   C17F10757   3.839  -0.314   9.198 -0.2316 -0.3016 -0.3632
  105OSM   H17F10758   3.756  -0.242   9.212 -1.0295 -1.4528  1.1367
  105OSM   H17G10759   3.794  -0.412   9.171 -2.1270  0.5714 -0.4715
  105OSM   C18F10760   3.926  -0.255   9.082  0.1527  0.2264  0.2297
  105OSM   H18F10761   3.993  -0.171   9.113  1.9498 -0.1829 -2.2110
  105OSM   H18G10762   3.854  -0.225   9.003  0.8518 -1.8946 -1.2913
  105OSM   H18H10763   4.003  -0.327   9.049  2.7965  2.0415  2.0232
  106OSM      N10764   4.767   6.384  10.800 -0.8206  0.3526 -0.5702
  106OSM    C1510765   4.895   6.400  10.869  0.2687  0.3388 -0.3360
  106OSM   H15A10766   4.945   6.305  10.873 -1.2195 -0.4900  4.1047
  106OSM   H15B10767   4.881   6.438  10.969 -0.9058 -0.9090 -0.0074
  106OSM   H15C10768   4.939   6.482  10.813 -2.4146  0.5897 -2.2660
  106OSM    C1410769   4.802   6.357  10.651  0.7528  0.2577 -0.2047
  106OSM   H14A10770   4.848   6.443  10.606 -3.6632  1.3598 -3.3041
  106OSM   H14B10771   4.714   6.343  10.590 -0.3985  1.9808  0.9858
  106OSM   H14C10772   4.861   6.267  10.644 -0.9442 -1.2495  2.7774
  106OSM    C1310773   4.697   6.262  10.862  0.0229 -0.1157 -0.0602
  106OSM   H13A10774   4.594   6.259  10.829 -0.6590 -0.4335  1.9582
  106OSM   H13B10775   4.706   6.250  10.969  0.5072  2.1881  0.2131
  106OSM   H13C10776   4.741   6.174  10.818  1.8101  1.5184 -1.7007
  106OSM    C1210777   4.669   6.504  10.814 -0.2420 -0.0619 -0.1678
  106OSM   H12A10778   4.652   6.523  10.919  0.0066  3.1283 -0.6047
  106OSM   H12B10779   4.579   6.476  10.762  0.5737 -0.8977 -1.1906
  106OSM    C1110780   4.715   6.645  10.753 -0.4845  0.2659 -0.1435
  106OSM   H11A10781   4.630   6.716  10.757 -1.2809 -0.6917  0.0911
  106OSM   H11B10782   4.729   6.624  10.645  0.2368 -1.6433  0.2872
  106OSM      P10783   4.922   6.811  10.762 -0.1933  0.4300  0.0132
  106OSM    O1310784   4.891   6.932  10.841  0.2163  0.2188  0.7068
  106OSM    O1410785   5.064   6.761  10.770 -0.0356 -0.5312  0.4596
  106OSM    O1110786   4.879   6.827  10.607  0.5648  0.1525  0.0860
  106OSM    O1210787   4.831   6.696  10.820  0.5003  0.0940 -0.2427
  106OSM    C1S10788   4.940   6.733  10.511  0.3669 -0.5402  0.7993
  106OSM    H1S10789   4.955   6.636  10.562  0.3232 -1.3541 -0.7046
  106OSM    H1T10790   5.041   6.770  10.485 -0.1788  2.1134  1.9932
  106OSM     NF10791   4.909   6.641  10.284 -0.1993 -0.4535  0.0568
  106OSM    HNF10792   4.960   6.674  10.205  1.4170 -1.1283  0.7708
  106OSM    C2S10793   4.852   6.736  10.383 -0.5947  0.3335 -0.2170
  106OSM    H2S10794   4.748   6.702  10.402 -1.5315  2.0456 -1.9273
  106OSM    C3S10795   4.837   6.882  10.325  0.2865 -0.3165  0.4435
  106OSM    H3S10796   4.925   6.918  10.267 -0.8579 -0.0944 -1.2511
  106OSM     O310797   4.814   6.984  10.418  0.3838 -0.3028 -0.0757
  106OSM    HO310798   4.824   6.937  10.501 -0.6527 -0.1581  0.1547
  106OSM    C4S10799   4.731   6.873  10.209 -0.2327 -0.2784  0.3878
  106OSM    H4S10800   4.775   6.825  10.120  0.5975  0.3740  0.4310
  106OSM    C5S10801   4.612   6.926  10.198 -0.3054  0.4545  0.0656
  106OSM    H5S10802   4.578   6.985  10.285 -1.3782  0.3966 -0.3019
  106OSM    C6S10803   4.523   6.912  10.079  0.2607 -0.3125 -0.1669
  106OSM    H6S10804   4.472   7.007  10.052 -0.9478 -0.9484 -0.1881
  106OSM    H6T10805   4.441   6.838  10.088  0.4967 -0.7093 -1.2135
  106OSM    C7S10806   4.601   6.872   9.952 -0.1569  0.4777  0.0997
  106OSM    H7S10807   4.636   6.766   9.958 -2.2216 -0.2053  1.4669
  106OSM    H7T10808   4.695   6.930   9.941  0.1089  0.2589  1.0344
  106OSM    C8S10809   4.522   6.898   9.829  0.3883  0.3069  0.2536
  106OSM    H8S10810   4.468   6.994   9.842  1.7028  1.0491  0.3763
  106OSM    H8T10811   4.438   6.830   9.802 -0.6157  2.2048 -1.7355
  106OSM    C9S10812   4.615   6.921   9.709  0.0267  0.3920 -0.0849
  106OSM    H9S10813   4.705   6.857   9.707  0.1178  0.5269 -0.6701
  106OSM    H9T10814   4.660   7.023   9.710 -0.8125  0.7727  0.9126
  106OSM   C10S10815   4.537   6.916   9.579  0.9494  0.0344 -0.0387
  106OSM   H10S10816   4.442   6.973   9.590  1.1602  0.5165 -0.6000
  106OSM   H10T10817   4.519   6.808   9.559 -1.7172  0.3020  0.5843
  106OSM   C11S10818   4.612   6.978   9.461  0.9026  0.1964 -0.8785
  106OSM   H11S10819   4.698   6.908   9.455 -0.6784 -1.7157 -2.6389
  106OSM   H11T10820   4.665   7.073   9.483  0.6271  0.1302  0.1308
  106OSM   C12S10821   4.528   7.016   9.338  0.0061 -0.3738 -0.1487
  106OSM   H12S10822   4.489   7.118   9.361  2.6302  0.3759  1.4247
  106OSM   H12T10823   4.443   6.946   9.323 -0.9816  0.5431  0.9266
  106OSM   C13S10824   4.617   7.043   9.214 -0.0344 -0.5023  0.1836
  106OSM   H13S10825   4.655   6.943   9.182  1.7818  0.5102 -1.0308
  106OSM   H13T10826   4.702   7.104   9.253 -0.9997 -0.2414  2.0066
  106OSM   C14S10827   4.550   7.119   9.101  0.6998 -0.2814 -0.4257
  106OSM   H14S10828   4.489   7.204   9.139 -0.3831 -0.0688 -2.4717
  106OSM   H14T10829   4.471   7.062   9.047 -1.6463  1.6334  0.8020
  106OSM   C15S10830   4.655   7.169   9.004  0.5948 -0.2567 -1.1166
  106OSM   H15S10831   4.723   7.084   8.979  0.4106 -0.3824 -1.1976
  106OSM   H15T10832   4.720   7.247   9.048  0.5580  0.3014 -2.0349
  106OSM   C16S10833   4.593   7.227   8.881  0.8077 -0.8611 -0.1005
  106OSM   H16S10834   4.494   7.271   8.905  1.6321  3.0648 -2.7708
  106OSM   H16T10835   4.569   7.145   8.810 -1.6427  1.3041 -2.0169
  106OSM   C17S10836   4.676   7.335   8.813 -0.0549 -0.1038 -0.2691
  106OSM   H17S10837   4.778   7.297   8.789 -0.3058  0.5797 -2.6597
  106OSM   H17T10838   4.679   7.417   8.888  0.7225 -0.8641  0.5686
  106OSM   C18S10839   4.614   7.397   8.682 -0.1461 -1.0460 -0.3329
  106OSM   H18S10840   4.655   7.498   8.661  0.0849 -1.1964 -0.6283
  106OSM   H18T10841   4.504   7.402   8.690 -0.1566  2.7445 -1.2907
  106OSM   H18U10842   4.635   7.330   8.595  0.6755  0.6187 -1.4592
  106OSM    C1F10843   4.910   6.513  10.319  0.0414  0.1993 -0.4393
  106OSM     OF10844   4.847   6.475  10.416  0.3950 -0.0845  0.2035
  106OSM    C2F10845   4.982   6.413  10.231 -0.0138  0.1945  0.7799
  106OSM    H2F10846   5.077   6.386  10.282  0.2449 -0.8274 -0.2117
  106OSM    H2G10847   4.997   6.468  10.136 -1.7657  0.5000  0.6488
  106OSM    C3F10848   4.919   6.273  10.216 -0.0404  0.6055  0.4395
  106OSM    H3F10849   4.822   6.280  10.162  0.7210  0.6953 -0.9534
  106OSM    H3G10850   4.926   6.219  10.313  1.4704 -0.4630 -0.2306
  106OSM    C4F10851   4.997   6.172  10.130  0.4965 -0.2849  0.0911
  106OSM    H4F10852   4.952   6.070  10.141  1.0086 -0.4698  0.4992
  106OSM    H4G10853   5.101   6.167  10.167  0.3288  1.8783  1.0187
  106OSM    C5F10854   5.011   6.218   9.987 -0.6151  0.3158  0.0081
  106OSM    H5F10855   5.091   6.150   9.950  0.7248  0.7483  1.9402
  106OSM    H5G10856   5.064   6.315   9.981 -1.1579  0.6418  0.3677
  106OSM    C6F10857   4.878   6.212   9.907 -0.8124 -0.7227  0.2973
  106OSM    H6F10858   4.808   6.292   9.939  0.6392  1.0463 -0.8196
  106OSM    H6G10859   4.847   6.105   9.915  1.0378 -1.1834  2.1648
  106OSM    C7F10860   4.910   6.228   9.757 -0.0697  0.0318  0.9979
  106OSM    H7F10861   4.827   6.204   9.687  1.8827 -1.8834 -0.7842
  106OSM    H7G10862   4.985   6.157   9.718 -0.1359  1.7359 -2.7200
  106OSM    C8F10863   4.961   6.368   9.727  0.7477  0.1151 -0.6456
  106OSM    H8F10864   5.006   6.371   9.626  2.0550  0.9125 -0.0730
  106OSM    H8G10865   5.037   6.396   9.803  0.5217  0.9217 -0.7035
  106OSM    C9F10866   4.854   6.469   9.735 -0.1774 -0.7992 -0.1365
  106OSM    H9F10867   4.827   6.488   9.840 -1.8349 -1.2152 -0.4670
  106OSM   C10F10868   4.786   6.508   9.624 -0.0532  0.4798 -1.0219
  106OSM   H10F10869   4.703   6.580   9.633  0.4397  0.9959 -0.4540
  106OSM   C11F10870   4.817   6.456   9.485  0.1958  0.3181  0.6577
  106OSM   H11F10871   4.776   6.354   9.467 -0.5454  0.5828  0.7986
  106OSM   H11G10872   4.925   6.459   9.458 -0.1094 -0.4545 -0.8088
  106OSM   C12F10873   4.754   6.545   9.378 -0.0302  0.3292  0.0537
  106OSM   H12F10874   4.796   6.535   9.276 -1.1161  1.9106 -0.5952
  106OSM   H12G10875   4.779   6.652   9.399 -0.4255 -0.0223  2.5845
  106OSM   C13F10876   4.602   6.513   9.363  0.8804  0.1761  0.5438
  106OSM   H13F10877   4.562   6.505   9.466  0.8928  0.2735  0.5564
  106OSM   H13G10878   4.592   6.417   9.309 -0.5442  0.9959 -0.7393
  106OSM   C14F10879   4.522   6.620   9.284 -0.2369  1.4673 -0.1617
  106OSM   H14F10880   4.557   6.715   9.327  1.5519  1.8882 -2.3585
  106OSM   H14G10881   4.412   6.604   9.296 -0.1287  1.4365  0.8895
  106OSM   C15F10882   4.538   6.627   9.128  0.4354  0.3686  0.1532
  106OSM   H15F10883   4.544   6.523   9.091  1.1558  0.3414  0.3239
  106OSM   H15G10884   4.630   6.681   9.099  0.1317  1.1502  0.6064
  106OSM   C16F10885   4.420   6.693   9.062 -0.0704 -0.9452 -0.7732
  106OSM   H16F10886   4.399   6.788   9.115  1.5626 -0.6403 -0.6450
  106OSM   H16G10887   4.327   6.634   9.079 -1.6511  0.9880 -2.2507
  106OSM   C17F10888   4.437   6.716   8.908 -0.8774 -0.4396 -0.1807
  106OSM   H17F10889   4.471   6.622   8.861 -3.4150 -1.6546  0.2154
  106OSM   H17G10890   4.514   6.793   8.887 -1.6088 -0.3054 -2.6760
  106OSM   C18F10891   4.316   6.779   8.847  0.0745  0.0999 -0.6567
  106OSM   H18F10892   4.230   6.708   8.844 -2.1169  2.6103 -0.3807
  106OSM   H18G10893   4.342   6.809   8.743  1.9686 -1.7543 -0.8066
  106OSM   H18H10894   4.292   6.870   8.906  2.0819 -0.6408  1.4778
  107OSM      N10895   5.042   3.676  10.665  0.2812  0.1551  0.0760
  107OSM    C1510896   4.911   3.736  10.710  0.0585  0.2891 -0.3838
  107OSM   H15A10897   4.830   3.665  10.724  0.6237  0.0235  2.0421
  107OSM   H15B10898   4.882   3.814  10.640  3.5155  0.3211 -1.9675
  107OSM   H15C10899   4.920   3.791  10.803  0.3740  1.5261 -1.1137
  107OSM    C1410900   5.091   3.578  10.761  0.3624 -0.1850  0.3481
  107OSM   H14A10901   5.172   3.523  10.715  0.6867 -0.8627  1.6696
  107OSM   H14B10902   5.012   3.508  10.782 -0.1715  0.4619  0.5206
  107OSM   H14C10903   5.139   3.614  10.852  1.5842  1.2096 -0.7946
  107OSM    C1310904   5.021   3.608  10.536 -0.1063  0.0189 -0.3468
  107OSM   H13A10905   5.106   3.561  10.488 -1.4096 -3.2790  0.3341
  107OSM   H13B10906   4.992   3.681  10.463  1.0262  0.0973 -0.7378
  107OSM   H13C10907   4.946   3.531  10.546 -0.6151  0.2046 -2.4014
  107OSM    C1210908   5.148   3.789  10.660 -0.1399  0.2077  0.4604
  107OSM   H12A10909   5.118   3.868  10.593  1.7081  0.4239 -0.1512
  107OSM   H12B10910   5.232   3.745  10.609  0.2307 -0.7077  1.7964
  107OSM    C1110911   5.197   3.860  10.788 -0.4915  0.7429  0.4636
  107OSM   H11A10912   5.103   3.884  10.841 -1.6403 -3.3656  0.6675
  107OSM   H11B10913   5.241   3.959  10.764  0.3433  0.1946 -0.3355
  107OSM      P10914   5.426   3.803  10.887 -0.4538 -0.0396  0.3921
  107OSM    O1310915   5.443   3.903  10.999  0.0188 -0.0013 -0.4603
  107OSM    O1410916   5.493   3.673  10.907  0.0100  0.6666 -0.8844
  107OSM    O1110917   5.487   3.870  10.755 -0.2618 -0.0839 -0.9536
  107OSM    O1210918   5.276   3.771  10.869 -1.1367 -0.1327 -0.1330
  107OSM    C1S10919   5.507   3.788  10.639 -0.1918 -0.8850  0.3805
  107OSM    H1S10920   5.425   3.715  10.624 -0.5783 -0.8941  2.2904
  107OSM    H1T10921   5.607   3.739  10.639  0.9113  1.1723 -1.7297
  107OSM     NF10922   5.477   3.829  10.401  1.0154  0.3284  0.3358
  107OSM    HNF10923   5.548   3.850  10.335  1.5696 -0.0005  0.8256
  107OSM    C2S10924   5.495   3.897  10.525  0.1611 -0.2570 -0.4180
  107OSM    H2S10925   5.411   3.969  10.539 -0.7621 -1.6785  1.8210
  107OSM    C3S10926   5.616   3.989  10.529 -0.2009  0.2884 -0.1935
  107OSM    H3S10927   5.708   3.926  10.526 -0.3089  0.0204  1.4718
  107OSM     O310928   5.623   4.058  10.652  0.3742  0.1001 -0.1916
  107OSM    HO310929   5.588   4.003  10.722 -0.2364  1.2455  0.4448
  107OSM    C4S10930   5.626   4.097  10.424  0.0909  0.6668  0.8029
  107OSM    H4S10931   5.541   4.168  10.428 -0.5767 -0.1258  1.0720
  107OSM    C5S10932   5.716   4.131  10.332  0.2197 -0.7013  0.3537
  107OSM    H5S10933   5.815   4.082  10.341  1.6231  2.3773  4.8294
  107OSM    C6S10934   5.687   4.249  10.236 -0.5982  0.1716 -0.5185
  107OSM    H6S10935   5.782   4.294  10.201  0.1625 -1.4311 -0.5968
  107OSM    H6T10936   5.631   4.331  10.287  0.4661 -0.7387  2.2784
  107OSM    C7S10937   5.624   4.216  10.103 -0.3913 -0.3330  0.7574
  107OSM    H7S10938   5.525   4.170  10.121 -0.0108 -2.3103 -1.5504
  107OSM    H7T10939   5.686   4.135  10.059 -2.2500 -1.6073  0.3702
  107OSM    C8S10940   5.632   4.334  10.004 -0.4364  0.5145 -0.2073
  107OSM    H8S10941   5.738   4.357   9.984 -0.3649  0.4579  0.1029
  107OSM    H8T10942   5.586   4.417  10.063 -0.0436  0.4669  0.1668
  107OSM    C9S10943   5.547   4.311   9.876  0.3291 -0.0057  0.0428
  107OSM    H9S10944   5.447   4.275   9.905 -0.5955  1.4355 -1.1950
  107OSM    H9T10945   5.592   4.225   9.823  3.6190  1.5913 -0.0389
  107OSM   C10S10946   5.526   4.437   9.793  0.4529  0.2862  0.1514
  107OSM   H10S10947   5.619   4.498   9.785  0.0439  0.8026 -0.8398
  107OSM   H10T10948   5.448   4.500   9.840 -0.5677 -0.0581 -1.0546
  107OSM   C11S10949   5.463   4.406   9.648 -0.4344 -0.5005 -0.2671
  107OSM   H11S10950   5.438   4.505   9.603 -0.3638  0.1773  1.1097
  107OSM   H11T10951   5.364   4.357   9.649 -0.9685  0.4251 -2.2307
  107OSM   C12S10952   5.566   4.343   9.543 -0.0601 -0.1314 -0.6662
  107OSM   H12S10953   5.610   4.245   9.569 -1.7251 -0.6384  0.4069
  107OSM   H12T10954   5.651   4.414   9.538 -0.6966  0.7511  0.4993
  107OSM   C13S10955   5.494   4.326   9.410 -0.3370  0.6716  0.1973
  107OSM   H13S10956   5.498   4.419   9.349  0.8688  0.9889  0.7210
  107OSM   H13T10957   5.392   4.286   9.425  0.2760  0.1526  3.8196
  107OSM   C14S10958   5.570   4.229   9.308  0.5282 -0.2963  0.3111
  107OSM   H14S10959   5.558   4.123   9.339  0.2388  0.3570  2.6714
  107OSM   H14T10960   5.676   4.256   9.324  0.7038  1.3478 -2.9612
  107OSM   C15S10961   5.548   4.259   9.160 -0.0649  0.5316  0.3615
  107OSM   H15S10962   5.593   4.360   9.154  0.3859  0.4383  1.8955
  107OSM   H15T10963   5.440   4.277   9.137  0.2465  0.3187 -1.4563
  107OSM   C16S10964   5.615   4.165   9.062  0.3760 -0.2881  0.6504
  107OSM   H16S10965   5.581   4.059   9.069  0.2568 -0.2703  0.3642
  107OSM   H16T10966   5.725   4.162   9.076  0.3303 -0.4180  0.9848
  107OSM   C17S10967   5.604   4.214   8.918  0.2560 -0.2866 -0.0078
  107OSM   H17S10968   5.639   4.319   8.924 -1.1801  0.1174  3.0376
  107OSM   H17T10969   5.497   4.211   8.887 -0.0240  1.4940  0.7158
  107OSM   C18S10970   5.689   4.138   8.814  0.4955  0.2448 -0.8205
  107OSM   H18S10971   5.796   4.127   8.842  0.5109  2.9541  0.4606
  107OSM   H18T10972   5.693   4.193   8.717 -0.4744  0.1284 -0.9365
  107OSM   H18U10973   5.650   4.034   8.805  1.8059 -0.1915 -1.6956
  107OSM    C1F10974   5.381   3.746  10.360  0.5698 -0.1207 -0.4007
  107OSM     OF10975   5.279   3.739  10.421  0.2258 -0.1275  0.1941
  107OSM    C2F10976   5.392   3.678  10.226 -0.4893  0.0592  0.5724
  107OSM    H2F10977   5.483   3.614  10.216 -1.0046 -0.5274 -0.7524
  107OSM    H2G10978   5.404   3.758  10.150 -0.3134  0.3091  0.8629
  107OSM    C3F10979   5.282   3.576  10.184 -0.0594  0.1537  0.0515
  107OSM    H3F10980   5.177   3.612  10.194 -0.2446 -0.7530  1.7308
  107OSM    H3G10981   5.293   3.495  10.260  1.1077  0.0597 -0.2051
  107OSM    C4F10982   5.314   3.509  10.053  0.3283  1.2678 -0.2280
  107OSM    H4F10983   5.230   3.439  10.030  0.6392  0.7397  0.1964
  107OSM    H4G10984   5.404   3.448  10.075  0.0465  0.1246 -2.0495
  107OSM    C5F10985   5.331   3.588   9.928  0.2902  0.5689  0.2813
  107OSM    H5F10986   5.404   3.667   9.954  0.9555  0.4912 -1.2482
  107OSM    H5G10987   5.238   3.624   9.879  0.2968 -1.0694 -1.0179
  107OSM    C6F10988   5.392   3.507   9.813  0.2815 -0.1722 -0.8154
  107OSM    H6F10989   5.338   3.411   9.815  0.4988 -0.3097 -1.5178
  107OSM    H6G10990   5.499   3.484   9.834  0.1362 -1.4479 -1.4278
  107OSM    C7F10991   5.382   3.570   9.676  0.5085  0.7446  0.2776
  107OSM    H7F10992   5.418   3.676   9.678  0.2846  0.8664  3.2887
  107OSM    H7G10993   5.276   3.571   9.643  0.0678  1.0831  1.6468
  107OSM    C8F10994   5.460   3.502   9.564 -0.1971 -0.2158 -0.1515
  107OSM    H8F10995   5.568   3.525   9.577 -0.6966  0.7730  3.0462
  107OSM    H8G10996   5.435   3.532   9.460 -1.2974  1.2425  0.4893
  107OSM    C9F10997   5.445   3.352   9.567 -0.2355  1.0373  0.1709
  107OSM    H9F10998   5.422   3.302   9.661  1.8956  0.3972  0.4031
  107OSM   C10F10999   5.485   3.271   9.462 -0.2742 -0.5077  0.5669
  107OSM   H10F11000   5.476   3.162   9.468  1.1580 -0.6717  0.1527
  107OSM   C11F11001   5.547   3.323   9.328  0.2304  0.2437  0.2788
  107OSM   H11F11002   5.642   3.270   9.305 -0.5574 -0.3184 -1.9345
  107OSM   H11G11003   5.557   3.434   9.321 -1.1542  0.2935 -2.1313
  107OSM   C12F11004   5.448   3.309   9.206  0.1979 -0.0582 -0.1967
  107OSM   H12F11005   5.358   3.371   9.224  1.0450  1.4457 -1.0106
  107OSM   H12G11006   5.405   3.207   9.194 -0.6351  0.5291 -2.7697
  107OSM   C13F11007   5.519   3.348   9.067  0.5177  0.1981  0.4824
  107OSM   H13F11008   5.599   3.274   9.043 -0.1864 -0.3161 -0.3690
  107OSM   H13G11009   5.567   3.447   9.077 -1.0040  0.8488  1.7771
  107OSM   C14F11010   5.417   3.342   8.953  0.1537 -0.3397  0.9461
  107OSM   H14F11011   5.361   3.437   8.945  0.0980 -0.4493 -0.0699
  107OSM   H14G11012   5.347   3.257   8.967  3.3073 -4.7914 -5.1192
  107OSM   C15F11013   5.477   3.313   8.815  0.0608 -0.5801 -0.6562
  107OSM   H15F11014   5.396   3.323   8.740 -0.2323 -0.5401 -0.3317
  107OSM   H15G11015   5.503   3.205   8.815 -3.1304 -1.4778 -2.7311
  107OSM   C16F11016   5.600   3.400   8.766  0.8654  0.2598 -0.3620
  107OSM   H16F11017   5.692   3.369   8.822  0.1210  0.9591  1.3171
  107OSM   H16G11018   5.566   3.502   8.793  1.6782  0.1762  1.0852
  107OSM   C17F11019   5.623   3.375   8.614 -0.3690  0.2900  0.1747
  107OSM   H17F11020   5.537   3.425   8.564 -0.0652  1.4418  0.7747
  107OSM   H17G11021   5.628   3.264   8.603 -0.4544  0.1070  1.7686
  107OSM   C18F11022   5.752   3.443   8.556 -0.8625  0.9040 -0.2185
  107OSM   H18F11023   5.838   3.400   8.611 -0.1887  1.4043 -0.8530
  107OSM   H18G11024   5.741   3.553   8.567 -2.3726  0.7008  0.5814
  107OSM   H18H11025   5.763   3.422   8.447 -0.2246 -1.8237  0.3034
  108OSM      N11026   4.964   4.859  10.641  0.1339 -0.4855 -0.1212
  108OSM    C1511027   5.091   4.938  10.677  0.8540  0.1815 -0.7019
  108OSM   H15A11028   5.142   4.982  10.593 -1.1537  0.9861 -1.5568
  108OSM   H15B11029   5.155   4.874  10.736 -1.0500 -2.9160 -1.7602
  108OSM   H15C11030   5.073   5.029  10.733  1.6306  0.7760 -1.3902
  108OSM    C1411031   4.998   4.732  10.583 -0.5272  0.4095 -0.4060
  108OSM   H14A11032   4.912   4.674  10.553 -0.4610 -1.7241  2.9743
  108OSM   H14B11033   5.049   4.666  10.651 -0.0962  2.5461  1.4661
  108OSM   H14C11034   5.060   4.727  10.495 -0.2347  0.3956 -0.2019
  108OSM    C1311035   4.897   4.832  10.769 -0.0060 -0.5038 -0.2341
  108OSM   H13A11036   4.855   4.926  10.803 -2.3959 -1.7256  0.4947
  108OSM   H13B11037   4.964   4.795  10.845  0.8206  0.3575 -0.5184
  108OSM   H13C11038   4.809   4.770  10.761 -1.5490  1.5712 -0.1394
  108OSM    C1211039   4.868   4.939  10.548  0.2842 -0.5865 -0.3315
  108OSM   H12A11040   4.781   4.878  10.528  0.1176 -0.6048  0.4378
  108OSM   H12B11041   4.910   4.946  10.449  0.3295 -1.4730 -0.3776
  108OSM    C1111042   4.834   5.088  10.601  0.3363  0.4267  0.4002
  108OSM   H11A11043   4.770   5.139  10.527  1.1440  0.2853 -0.4041
  108OSM   H11B11044   4.930   5.143  10.590  1.9554 -2.1006  1.2309
  108OSM      P11045   4.635   5.093  10.763  0.0864 -0.0890 -0.5189
  108OSM    O1311046   4.586   4.957  10.746  0.5526  0.2393 -0.1876
  108OSM    O1411047   4.607   5.163  10.888 -0.4201 -0.0792  0.2385
  108OSM    O1111048   4.578   5.176  10.641  0.1983  0.1235  0.0268
  108OSM    O1211049   4.794   5.104  10.736 -0.3186 -0.0114  0.2851
  108OSM    C1S11050   4.432   5.196  10.626 -0.3908  0.0008 -1.0868
  108OSM    H1S11051   4.395   5.278  10.691 -2.6089  1.3843 -3.8489
  108OSM    H1T11052   4.372   5.107  10.654  0.1040 -0.4868 -1.5450
  108OSM     NF11053   4.253   5.292  10.478  0.2098 -0.3396  0.1881
  108OSM    HNF11054   4.177   5.233  10.452 -0.9258  0.9639  0.4248
  108OSM    C2S11055   4.387   5.229  10.481 -0.4885 -0.6272  0.9020
  108OSM    H2S11056   4.464   5.301  10.446 -0.3210 -2.1937 -2.3162
  108OSM    C3S11057   4.407   5.105  10.399  0.6250  1.3726  0.3249
  108OSM    H3S11058   4.339   5.029  10.441  0.8570  0.7035 -0.4871
  108OSM     O311059   4.536   5.043  10.416 -0.2138  0.1306  0.5756
  108OSM    HO311060   4.582   5.102  10.477  0.3125  0.1925  0.1219
  108OSM    C4S11061   4.368   5.128  10.252 -0.0314  0.4630  1.1248
  108OSM    H4S11062   4.261   5.144  10.231 -0.0956 -1.9745 -0.8626
  108OSM    C5S11063   4.445   5.116  10.135  0.1947 -0.8088 -0.1303
  108OSM    H5S11064   4.552   5.092  10.148  0.4587 -0.3468 -1.2929
  108OSM    C6S11065   4.397   5.155   9.993 -0.2457 -0.0088 -1.2558
  108OSM    H6S11066   4.338   5.250  10.000  2.4724  1.7271  4.2935
  108OSM    H6T11067   4.331   5.072   9.963 -0.0488 -0.5716 -0.1831
  108OSM    C7S11068   4.495   5.160   9.886  0.4178 -0.1177 -0.0145
  108OSM    H7S11069   4.527   5.058   9.858 -0.9586 -1.3069  2.4447
  108OSM    H7T11070   4.578   5.231   9.910  0.2428  0.2517 -0.5005
  108OSM    C8S11071   4.429   5.211   9.758  0.0604 -0.2017 -0.1095
  108OSM    H8S11072   4.381   5.308   9.782  0.6804 -0.0390  0.5004
  108OSM    H8T11073   4.352   5.136   9.730  1.1329 -0.5043 -2.5553
  108OSM    C9S11074   4.523   5.243   9.646 -0.7669  0.1723  0.1446
  108OSM    H9S11075   4.603   5.166   9.646  0.6034  1.5348 -0.5389
  108OSM    H9T11076   4.558   5.347   9.658  0.9294 -0.2065 -1.1557
  108OSM   C10S11077   4.453   5.232   9.508 -0.0004 -0.6794 -0.1281
  108OSM   H10S11078   4.409   5.332   9.486  1.2849 -0.5571 -2.5237
  108OSM   H10T11079   4.381   5.148   9.515  0.4179 -1.1541 -1.2319
  108OSM   C11S11080   4.553   5.200   9.397  0.1019 -0.2256  0.3654
  108OSM   H11S11081   4.586   5.094   9.401  0.5358 -0.0656  3.3190
  108OSM   H11T11082   4.631   5.279   9.398 -3.2995  3.5099 -1.1063
  108OSM   C12S11083   4.485   5.221   9.257  1.1640 -0.0049 -0.3034
  108OSM   H12S11084   4.454   5.327   9.245  0.9576 -0.1255 -0.8738
  108OSM   H12T11085   4.394   5.157   9.269  0.2833  1.4507  1.2375
  108OSM   C13S11086   4.565   5.167   9.134 -0.2313  0.1162 -0.2361
  108OSM   H13S11087   4.494   5.186   9.051  0.4000  1.3364 -0.5195
  108OSM   H13T11088   4.586   5.060   9.156  0.1503  0.4013  0.8608
  108OSM   C14S11089   4.698   5.233   9.097  0.5707  0.3528 -0.8515
  108OSM   H14S11090   4.757   5.232   9.191 -1.2962 -0.9085  0.3566
  108OSM   H14T11091   4.684   5.339   9.067 -1.1613  0.4476  0.2166
  108OSM   C15S11092   4.767   5.168   8.984  1.2431 -0.2438  0.0457
  108OSM   H15S11093   4.700   5.178   8.895  2.0820  0.7415 -0.5001
  108OSM   H15T11094   4.789   5.062   9.008 -0.7705 -0.7907 -0.3395
  108OSM   C16S11095   4.892   5.256   8.958 -1.2587 -0.1515 -0.4062
  108OSM   H16S11096   4.963   5.232   9.040 -3.1031 -0.5905  1.1243
  108OSM   H16T11097   4.872   5.364   8.975 -1.2317 -0.4800  2.1083
  108OSM   C17S11098   4.950   5.248   8.814 -0.4179  0.0930  0.3061
  108OSM   H17S11099   4.975   5.142   8.790  0.3492  0.7231 -1.8859
  108OSM   H17T11100   5.046   5.304   8.816 -1.5440  2.1345 -0.3816
  108OSM   C18S11101   4.863   5.297   8.703  0.4517  0.4140  0.4783
  108OSM   H18S11102   4.797   5.218   8.661  0.0419 -0.4197  2.5605
  108OSM   H18T11103   4.933   5.337   8.626 -0.9395  0.7560 -0.6468
  108OSM   H18U11104   4.791   5.377   8.729 -0.4872  0.6423 -2.5452
  108OSM    C1F11105   4.237   5.402  10.537 -0.4705  0.0136  0.9394
  108OSM     OF11106   4.326   5.488  10.535  0.4428  0.6330 -0.4153
  108OSM    C2F11107   4.113   5.410  10.621 -0.2186 -0.6493  0.4671
  108OSM    H2F11108   4.144   5.449  10.721  0.8951  0.4237 -0.2624
  108OSM    H2G11109   4.068   5.310  10.634  0.4270 -0.6408  3.8841
  108OSM    C3F11110   4.010   5.503  10.563  0.9760  0.8551  0.6600
  108OSM    H3F11111   4.057   5.602  10.544 -0.6901  2.5743  4.3470
  108OSM    H3G11112   3.936   5.511  10.646 -0.7578 -0.7859 -0.6314
  108OSM    C4F11113   3.927   5.462  10.434  0.2699  0.4138  0.2473
  108OSM    H4F11114   3.851   5.387  10.466  2.3292 -1.2730  1.4898
  108OSM    H4G11115   3.993   5.419  10.356  1.6104 -0.5246  1.8342
  108OSM    C5F11116   3.847   5.577  10.374 -0.2095 -0.1376 -0.3257
  108OSM    H5F11117   3.899   5.673  10.351 -0.5788 -0.3049 -1.9754
  108OSM    H5G11118   3.786   5.612  10.460  0.6851 -0.1937  0.3493
  108OSM    C6F11119   3.751   5.536  10.261 -0.0142 -0.7313 -0.7244
  108OSM    H6F11120   3.689   5.624  10.236  1.5517  0.7362  0.3036
  108OSM    H6G11121   3.686   5.456  10.301 -0.6145 -0.1232 -0.4808
  108OSM    C7F11122   3.824   5.484  10.131 -0.1960 -0.7531  0.6588
  108OSM    H7F11123   3.899   5.406  10.151  1.6477  0.3916 -1.3279
  108OSM    H7G11124   3.882   5.565  10.081 -2.0271 -0.3825 -1.0237
  108OSM    C8F11125   3.732   5.422  10.029  0.0637 -0.4325  0.1691
  108OSM    H8F11126   3.662   5.350  10.077  1.0485 -0.4383  1.6526
  108OSM    H8G11127   3.778   5.368   9.943 -5.0865 -1.7657 -2.1609
  108OSM    C9F11128   3.643   5.527   9.965  0.5255  0.2129 -0.1896
  108OSM    H9F11129   3.587   5.587  10.039 -0.4838 -1.8834  0.8408
  108OSM   C10F11130   3.625   5.551   9.834 -0.3504 -0.0750  0.2585
  108OSM   H10F11131   3.567   5.639   9.802  2.0933  2.1891  1.5883
  108OSM   C11F11132   3.704   5.489   9.728 -0.1678 -0.5916  1.1115
  108OSM   H11F11133   3.768   5.400   9.749  0.3346 -0.4948  0.0364
  108OSM   H11G11134   3.777   5.567   9.699 -0.1098 -0.7237  0.9042
  108OSM   C12F11135   3.606   5.439   9.616  0.1150  0.0700 -0.4584
  108OSM   H12F11136   3.514   5.501   9.613 -0.7433 -1.1749 -0.6496
  108OSM   H12G11137   3.564   5.341   9.649  1.0075 -0.2232 -0.1744
  108OSM   C13F11138   3.678   5.434   9.479  0.6968  0.0369 -0.8897
  108OSM   H13F11139   3.734   5.339   9.482 -2.3039 -1.8666  0.4849
  108OSM   H13G11140   3.753   5.515   9.468  1.1792 -0.3422 -0.4663
  108OSM   C14F11141   3.576   5.441   9.367  0.0357 -0.4711  0.4457
  108OSM   H14F11142   3.528   5.541   9.359  0.4987 -0.3862 -1.7350
  108OSM   H14G11143   3.506   5.358   9.390  0.8085 -0.8723  1.4793
  108OSM   C15F11144   3.655   5.419   9.236  0.9654 -1.0186 -0.6407
  108OSM   H15F11145   3.687   5.315   9.255 -1.1944 -1.4091  1.3592
  108OSM   H15G11146   3.742   5.488   9.230  0.5986 -0.4463  0.3594
  108OSM   C16F11147   3.570   5.449   9.105  0.3566 -0.0342 -0.6495
  108OSM   H16F11148   3.559   5.560   9.103 -0.9206  0.0121  2.7669
  108OSM   H16G11149   3.470   5.400   9.112 -0.4958  1.1863 -3.0280
  108OSM   C17F11150   3.638   5.378   8.988  0.6621 -0.7305 -0.5103
  108OSM   H17F11151   3.560   5.375   8.909 -0.0467  1.2349  0.0373
  108OSM   H17G11152   3.655   5.278   9.033  1.6955  0.0104  0.8084
  108OSM   C18F11153   3.758   5.451   8.927  0.2869  0.7875 -0.2303
  108OSM   H18F11154   3.732   5.531   8.855 -0.3545  0.1001 -0.7754
  108OSM   H18G11155   3.828   5.375   8.887  0.7047  0.0219  1.8073
  108OSM   H18H11156   3.818   5.499   9.008 -1.2323  1.4104  0.5664
  109OSM      N11157   0.804   2.882  10.869  0.6779  0.3141 -0.0908
  109OSM    C1511158   0.864   3.024  10.850  0.1902 -0.1654  0.0129
  109OSM   H15A11159   0.880   3.036  10.744  0.7082 -1.3612 -0.0676
  109OSM   H15B11160   0.962   3.027  10.895  1.1845  0.6752 -2.0832
  109OSM   H15C11161   0.805   3.103  10.895  0.1198 -0.4589  0.4446
  109OSM    C1411162   0.705   2.868  10.754  0.0637  0.7782 -0.5066
  109OSM   H14A11163   0.657   2.771  10.757  1.3814 -0.0709 -3.5557
  109OSM   H14B11164   0.754   2.882  10.659  0.7939 -0.1638 -0.2855
  109OSM   H14C11165   0.637   2.951  10.762 -0.1544  0.5144  0.5588
  109OSM    C1311166   0.913   2.784  10.853 -0.4791  0.3660 -0.5182
  109OSM   H13A11167   0.982   2.794  10.935  0.5070 -2.1628 -0.9632
  109OSM   H13B11168   0.972   2.798  10.763 -0.7215 -3.7089 -1.5151
  109OSM   H13C11169   0.884   2.680  10.850  1.5655 -0.2557 -0.1516
  109OSM    C1211170   0.733   2.864  10.994 -0.2182 -0.3800 -0.5868
  109OSM   H12A11171   0.803   2.856  11.076  0.3636 -0.7223 -1.1167
  109OSM   H12B11172   0.685   2.768  11.006 -0.0734 -0.4221 -0.3403
  109OSM    C1111173   0.617   2.964  11.024  0.0584  0.2914  0.1058
  109OSM   H11A11174   0.589   2.911  11.118  1.5828  0.0863  0.4826
  109OSM   H11B11175   0.536   2.965  10.949 -1.5183  0.5003  1.7397
  109OSM      P11176   0.572   3.210  11.080 -0.0199 -0.1571 -0.4186
  109OSM    O1311177   0.464   3.173  11.178  0.3573 -0.1071 -0.3460
  109OSM    O1411178   0.645   3.336  11.105 -0.3002 -0.0808  0.2442
  109OSM    O1111179   0.500   3.225  10.938 -0.0685 -0.3653 -0.0507
  109OSM    O1211180   0.671   3.097  11.051  0.4523  0.1038  0.2970
  109OSM    C1S11181   0.562   3.302  10.831  0.5534 -0.3342  0.6000
  109OSM    H1S11182   0.657   3.245  10.816  1.5622  0.3383  3.6728
  109OSM    H1T11183   0.593   3.407  10.854  2.3157 -0.4167 -1.1779
  109OSM     NF11184   0.540   3.366  10.604  0.1850 -0.8289  0.6183
  109OSM    HNF11185   0.500   3.451  10.571 -0.2460 -1.6924 -1.1969
  109OSM    C2S11186   0.472   3.306  10.708  0.4142  0.1929  0.3494
  109OSM    H2S11187   0.448   3.203  10.675 -2.7808  1.7429 -2.8949
  109OSM    C3S11188   0.329   3.366  10.731  0.0668 -0.2515 -0.2594
  109OSM    H3S11189   0.348   3.476  10.723 -1.6763  0.0914  0.0252
  109OSM     O311190   0.270   3.348  10.862 -0.6470  0.2278  0.7069
  109OSM    HO311191   0.337   3.307  10.916  1.2844 -0.0352 -1.7150
  109OSM    C4S11192   0.233   3.328  10.627  0.4988  0.0271  0.1658
  109OSM    H4S11193   0.220   3.412  10.556  0.7740 -0.5714 -0.6057
  109OSM    C5S11194   0.155   3.214  10.617  0.1291 -0.4318 -0.3591
  109OSM    H5S11195   0.159   3.129  10.686 -1.2894  0.0795  0.3768
  109OSM    C6S11196   0.054   3.179  10.515  0.0729  0.6269 -0.1735
  109OSM    H6S11197   0.003   3.273  10.487  1.4270  1.6646  0.7554
  109OSM    H6T11198  -0.021   3.108  10.556  2.0741 -2.8803 -2.0426
  109OSM    C7S11199   0.104   3.106  10.391  0.7037  0.1113  0.1095
  109OSM    H7S11200   0.026   3.104  10.312 -0.0703 -1.5967  0.8711
  109OSM    H7T11201   0.117   2.998  10.409  2.9545  0.0050 -1.7641
  109OSM    C8S11202   0.233   3.154  10.323  0.1202  0.6311 -0.2123
  109OSM    H8S11203   0.310   3.159  10.404 -0.2682  0.5497  0.1668
  109OSM    H8T11204   0.218   3.249  10.267  0.3923 -0.0471 -1.4446
  109OSM    C9S11205   0.272   3.051  10.210  0.2183 -0.1949  0.2461
  109OSM    H9S11206   0.183   3.057  10.143  0.2912 -0.0035  0.1670
  109OSM    H9T11207   0.286   2.950  10.254  3.0583  0.7981  1.8457
  109OSM   C10S11208   0.391   3.105  10.128  0.2581 -0.0369  0.8582
  109OSM   H10S11209   0.475   3.123  10.199 -1.8516 -0.2452  3.5391
  109OSM   H10T11210   0.361   3.202  10.083  0.7914 -0.5861 -0.7813
  109OSM   C11S11211   0.436   2.994  10.031  1.1550  0.4024 -0.2329
  109OSM   H11S11212   0.442   2.897  10.086 -1.3259  1.0339  1.2930
  109OSM   H11T11213   0.538   3.031  10.005  0.8903  3.1244  2.1228
  109OSM   C12S11214   0.350   2.985   9.904 -0.0367 -0.3674  0.3324
  109OSM   H12S11215   0.324   3.089   9.878 -1.3067 -1.1970 -1.9879
  109OSM   H12T11216   0.249   2.948   9.931  0.0063 -0.0198  0.9853
  109OSM   C13S11217   0.413   2.916   9.788 -0.0831 -0.3498 -0.4034
  109OSM   H13S11218   0.409   2.813   9.828  3.2976 -0.0689  0.9762
  109OSM   H13T11219   0.520   2.945   9.774  0.0923 -0.5838  0.3747
  109OSM   C14S11220   0.337   2.926   9.657 -0.1132  0.2916  0.1618
  109OSM   H14S11221   0.320   3.032   9.630  0.5237  0.3511 -0.0124
  109OSM   H14T11222   0.240   2.877   9.682  1.5548 -2.3859  1.9170
  109OSM   C15S11223   0.405   2.839   9.546  0.0640 -0.5220 -0.2004
  109OSM   H15S11224   0.425   2.734   9.575  1.3523 -0.5391 -1.0762
  109OSM   H15T11225   0.505   2.883   9.526  0.4383 -2.4770 -3.3004
  109OSM   C16S11226   0.321   2.849   9.420 -0.0789 -0.4646 -0.1515
  109OSM   H16S11227   0.298   2.953   9.390  0.6987 -0.1224  0.4364
  109OSM   H16T11228   0.219   2.806   9.433 -0.2467  0.6371  2.8149
  109OSM   C17S11229   0.385   2.777   9.298 -0.7808  0.0285  0.0199
  109OSM   H17S11230   0.410   2.669   9.305  0.8774  0.3146 -1.0289
  109OSM   H17T11231   0.482   2.818   9.263 -0.8306 -1.5118 -2.1530
  109OSM   C18S11232   0.302   2.790   9.170 -0.2575  0.7458 -0.2764
  109OSM   H18S11233   0.344   2.738   9.081  0.9442 -0.3999  0.9133
  109OSM   H18T11234   0.271   2.895   9.152  1.0058  1.1634 -0.0796
  109OSM   H18U11235   0.214   2.724   9.187  1.9721 -2.5901 -0.6165
  109OSM    C1F11236   0.643   3.322  10.535  0.2026  0.3324  0.0644
  109OSM     OF11237   0.698   3.215  10.553 -0.2201  0.3025 -0.0278
  109OSM    C2F11238   0.690   3.406  10.422 -0.1164 -0.0120 -0.5263
  109OSM    H2F11239   0.666   3.513  10.439  1.6670  0.1172  1.5840
  109OSM    H2G11240   0.640   3.375  10.327 -0.5065  1.1602 -0.7247
  109OSM    C3F11241   0.841   3.392  10.400 -0.5653  0.0835  0.0002
  109OSM    H3F11242   0.880   3.291  10.376 -1.1113  0.0920 -1.0273
  109OSM    H3G11243   0.891   3.426  10.493 -2.2014  0.1715  0.8815
  109OSM    C4F11244   0.892   3.480  10.280 -0.1256 -0.3131 -0.6660
  109OSM    H4F11245   0.860   3.585  10.295  1.9676  0.2767 -0.0646
  109OSM    H4G11246   0.856   3.447  10.181  1.3637  1.7084 -1.9410
  109OSM    C5F11247   1.043   3.469  10.272  0.0627  0.5069 -0.1491
  109OSM    H5F11248   1.065   3.360  10.272 -1.3311  0.1479  2.3969
  109OSM    H5G11249   1.090   3.518  10.360 -0.7207  2.6383 -0.8572
  109OSM    C6F11250   1.107   3.536  10.156  0.2649 -0.6414  1.1981
  109OSM    H6F11251   1.217   3.548  10.167  0.4823 -0.9412 -0.4525
  109OSM    H6G11252   1.059   3.636  10.149 -0.2009 -0.8554  1.3320
  109OSM    C7F11253   1.076   3.471  10.022  0.0915 -0.0896 -0.3036
  109OSM    H7F11254   0.967   3.452  10.009 -0.3297 -2.5574  4.5668
  109OSM    H7G11255   1.124   3.370  10.018  1.9314  0.7719 -1.2910
  109OSM    C8F11256   1.115   3.548   9.890 -1.1080  0.3403 -0.0458
  109OSM    H8F11257   1.076   3.652   9.887  0.2273  0.8531 -0.9839
  109OSM    H8G11258   1.061   3.506   9.802 -0.9217 -2.1778  0.9637
  109OSM    C9F11259   1.259   3.552   9.854 -0.2990 -0.3287 -0.6781
  109OSM    H9F11260   1.331   3.543   9.936  0.8290  0.4313 -1.5540
  109OSM   C10F11261   1.301   3.580   9.733  0.1206  0.5459  0.4407
  109OSM   H10F11262   1.410   3.570   9.722  0.0535  0.6935 -0.4915
  109OSM   C11F11263   1.226   3.608   9.610  0.6746  0.2804 -0.4896
  109OSM   H11F11264   1.245   3.715   9.590  1.5083  0.1014 -0.6712
  109OSM   H11G11265   1.116   3.589   9.613  0.9824 -1.5540  0.7015
  109OSM   C12F11266   1.272   3.547   9.482 -0.1397 -0.1786 -0.3567
  109OSM   H12F11267   1.218   3.451   9.466  0.3603 -0.4159 -0.6550
  109OSM   H12G11268   1.383   3.553   9.477 -0.0588 -0.0179  1.2895
  109OSM   C13F11269   1.251   3.632   9.355 -0.0089 -0.0101 -1.1724
  109OSM   H13F11270   1.285   3.738   9.361 -0.2821  0.1278 -1.8911
  109OSM   H13G11271   1.141   3.641   9.340 -0.4495 -0.2695  1.5250
  109OSM   C14F11272   1.317   3.574   9.231 -0.3125 -0.5013 -0.3621
  109OSM   H14F11273   1.285   3.471   9.207 -0.6884 -0.1172 -1.5587
  109OSM   H14G11274   1.427   3.575   9.241 -0.3446 -1.0517  0.0783
  109OSM   C15F11275   1.283   3.643   9.101  0.1721  0.6433 -0.3316
  109OSM   H15F11276   1.178   3.632   9.068 -0.1699  0.5520  0.7478
  109OSM   H15G11277   1.352   3.598   9.026  2.2360  1.1366  1.1711
  109OSM   C16F11278   1.312   3.794   9.106  0.1711 -0.4598  0.4220
  109OSM   H16F11279   1.415   3.801   9.147  0.2786 -3.5077  0.8742
  109OSM   H16G11280   1.243   3.854   9.168  0.1986  0.4736 -0.4167
  109OSM   C17F11281   1.314   3.863   8.970 -0.3062  0.6354  0.0382
  109OSM   H17F11282   1.393   3.806   8.918  1.7592  1.0067  2.5889
  109OSM   H17G11283   1.343   3.967   8.998 -3.6938  1.4792  1.0115
  109OSM   C18F11284   1.191   3.866   8.875 -0.0724  0.1012  0.1630
  109OSM   H18F11285   1.116   3.932   8.923 -0.4623  1.5145 -2.2350
  109OSM   H18G11286   1.144   3.767   8.860 -1.3728  0.7685 -0.2715
  109OSM   H18H11287   1.205   3.915   8.777  1.0034  0.4447  0.4692
  110OSM      N11288   1.829   3.832  11.077  0.0400  0.2966 -0.4692
  110OSM    C1511289   1.723   3.790  11.174  0.0839  0.0277  0.1431
  110OSM   H15A11290   1.715   3.857  11.258 -0.2074  0.8222 -0.4935
  110OSM   H15B11291   1.756   3.700  11.222  0.7172 -0.7642 -1.6856
  110OSM   H15C11292   1.626   3.773  11.130 -0.2547  1.2119  0.3884
  110OSM    C1411293   1.774   3.963  11.022  0.7488  0.1118  1.1328
  110OSM   H14A11294   1.751   4.032  11.102  1.3135 -0.4716  1.8192
  110OSM   H14B11295   1.682   3.941  10.970 -0.4336  0.0382  3.1633
  110OSM   H14C11296   1.839   4.012  10.951 -0.3683  0.2660  0.1816
  110OSM    C1311297   1.963   3.861  11.155  0.0140 -0.5163  0.3607
  110OSM   H13A11298   2.005   3.768  11.191  2.2868  0.4378  0.3835
  110OSM   H13B11299   1.950   3.934  11.233 -2.7519  0.6086 -1.0389
  110OSM   H13C11300   2.043   3.885  11.085 -0.6236 -2.0260 -0.9710
  110OSM    C1211301   1.854   3.726  10.967  0.1103  0.3433  0.5853
  110OSM   H12A11302   1.919   3.760  10.887  1.3469  0.3972  1.5757
  110OSM   H12B11303   1.760   3.710  10.916  0.9400 -0.0199 -0.9161
  110OSM    C1111304   1.900   3.587  11.008  0.1451  0.4082  0.2890
  110OSM   H11A11305   1.982   3.596  11.083  0.1884  1.9158  0.0949
  110OSM   H11B11306   1.948   3.531  10.925 -0.9756  0.3566 -0.3416
  110OSM      P11307   1.676   3.458  10.975  0.3003 -0.3824 -0.1958
  110OSM    O1311308   1.636   3.321  11.009  0.5115 -0.4334 -0.9950
  110OSM    O1411309   1.573   3.563  10.982  0.6102 -0.0370 -0.2363
  110OSM    O1111310   1.723   3.465  10.826  0.0261  0.4097  0.0564
  110OSM    O1211311   1.799   3.506  11.064 -0.1899  0.2875  0.7389
  110OSM    C1S11312   1.772   3.353  10.756 -0.6696  0.0553 -0.1595
  110OSM    H1S11313   1.728   3.255  10.786  0.6300 -0.2446  0.8469
  110OSM    H1T11314   1.881   3.342  10.772 -0.6871 -0.5679 -0.4438
  110OSM     NF11315   1.762   3.228  10.543 -0.1964 -0.1013 -0.3474
  110OSM    HNF11316   1.852   3.215  10.502  1.4902  3.2255  1.9338
  110OSM    C2S11317   1.748   3.361  10.610  0.0632  0.5249 -0.2253
  110OSM    H2S11318   1.642   3.393  10.608 -0.1515 -0.1840 -1.3299
  110OSM    C3S11319   1.824   3.476  10.548 -0.1261 -0.2847  0.1217
  110OSM    H3S11320   1.932   3.469  10.572  0.0704  1.3164 -0.1521
  110OSM     O311321   1.789   3.605  10.600  0.0116 -0.3949  0.0135
  110OSM    HO311322   1.715   3.602  10.662 -1.0352  1.7610 -1.0335
  110OSM    C4S11323   1.812   3.467  10.393 -0.0458  0.1427  0.2466
  110OSM    H4S11324   1.867   3.384  10.346  1.0140  0.5203  0.7794
  110OSM    C5S11325   1.735   3.547  10.311 -0.1837  0.6208  0.1140
  110OSM    H5S11326   1.673   3.616  10.369 -2.1857 -0.2915 -0.8606
  110OSM    C6S11327   1.724   3.537  10.160 -0.2449  0.2446 -0.3260
  110OSM    H6S11328   1.780   3.622  10.115 -1.2453  1.3128  0.3868
  110OSM    H6T11329   1.618   3.553  10.129 -0.4595 -1.4530 -0.5448
  110OSM    C7S11330   1.783   3.407  10.095 -0.0188  0.5299 -0.2177
  110OSM    H7S11331   1.715   3.322  10.117  2.0286 -1.4017 -1.0304
  110OSM    H7T11332   1.885   3.395  10.137 -0.7123  0.5752  1.5746
  110OSM    C8S11333   1.816   3.413   9.943 -0.2752  0.1649 -0.5924
  110OSM    H8S11334   1.734   3.450   9.878 -0.5000  0.3393 -0.2135
  110OSM    H8T11335   1.832   3.309   9.908  0.7584  0.0555  0.1339
  110OSM    C9S11336   1.937   3.497   9.909 -0.3465 -0.1674 -0.2874
  110OSM    H9S11337   2.018   3.485   9.983 -0.1215  1.5334 -0.2163
  110OSM    H9T11338   1.914   3.605   9.920  3.5391  0.9404 -1.4994
  110OSM   C10S11339   1.989   3.479   9.770  0.6257  0.0601  0.1681
  110OSM   H10S11340   2.057   3.563   9.746  0.5504 -0.2193 -1.0870
  110OSM   H10T11341   1.913   3.476   9.690  2.0615 -0.5630 -1.2255
  110OSM   C11S11342   2.068   3.344   9.764 -0.4924  0.3957  0.4373
  110OSM   H11S11343   2.006   3.252   9.753  3.3739 -2.8273  2.5683
  110OSM   H11T11344   2.126   3.340   9.860 -0.5224  2.6180  0.5945
  110OSM   C12S11345   2.176   3.330   9.656 -0.2850  0.3497 -0.2174
  110OSM   H12S11346   2.243   3.242   9.664  0.4183  0.9051  0.1410
  110OSM   H12T11347   2.244   3.417   9.668 -1.2488  1.3160 -1.4962
  110OSM   C13S11348   2.133   3.341   9.513 -0.2436 -0.8577 -0.0918
  110OSM   H13S11349   2.223   3.346   9.448 -1.1914 -4.1674 -1.8853
  110OSM   H13T11350   2.078   3.432   9.481  0.7010 -0.2398 -0.0168
  110OSM   C14S11351   2.054   3.216   9.459  0.1773 -0.2285  0.7687
  110OSM   H14S11352   1.982   3.188   9.539  1.0751  1.3103  2.1847
  110OSM   H14T11353   2.129   3.135   9.468 -0.0394 -0.6654 -1.0073
  110OSM   C15S11354   1.998   3.224   9.317 -0.3814  0.2703 -0.9821
  110OSM   H15S11355   1.914   3.297   9.312 -1.0331 -0.5488 -2.8849
  110OSM   H15T11356   1.965   3.123   9.286 -1.6223  0.1442  0.6414
  110OSM   C16S11357   2.107   3.277   9.221  0.6282  0.1991  0.1686
  110OSM   H16S11358   2.204   3.241   9.259 -0.7619 -0.3781  3.5465
  110OSM   H16T11359   2.101   3.387   9.207 -2.2263  0.2217  0.9507
  110OSM   C17S11360   2.090   3.233   9.076  0.3605  1.0170  0.2250
  110OSM   H17S11361   2.164   3.295   9.020  0.2649  1.1400  0.2344
  110OSM   H17T11362   1.986   3.257   9.046  0.5660 -0.3423 -1.7242
  110OSM   C18S11363   2.128   3.084   9.052 -0.1996 -0.2590 -0.0096
  110OSM   H18S11364   2.050   3.024   9.105 -0.6352 -1.6661 -2.1232
  110OSM   H18T11365   2.232   3.067   9.085  0.5315  0.0094 -2.0802
  110OSM   H18U11366   2.125   3.056   8.945  0.2992 -1.2059  0.2215
  110OSM    C1F11367   1.682   3.122  10.570  0.0177  0.1460  0.7038
  110OSM     OF11368   1.577   3.144  10.631  0.0198  0.1546  0.4817
  110OSM    C2F11369   1.717   2.989  10.510  0.1717 -0.3114 -0.1696
  110OSM    H2F11370   1.688   2.918  10.590 -0.8519 -1.1320 -1.2358
  110OSM    H2G11371   1.826   2.993  10.490  0.1163  1.5103 -0.2752
  110OSM    C3F11372   1.625   2.951  10.393  0.1271  0.6385  0.6471
  110OSM    H3F11373   1.660   3.015  10.309  0.0962  1.7465  1.4533
  110OSM    H3G11374   1.522   2.983  10.420  0.4028  2.0567  0.1021
  110OSM    C4F11375   1.622   2.805  10.358  0.3321 -0.2714  0.1256
  110OSM    H4F11376   1.569   2.757  10.443  2.4977  1.1661  2.4451
  110OSM    H4G11377   1.718   2.752  10.341 -0.9087 -3.2961  1.6893
  110OSM    C5F11378   1.533   2.772  10.232 -0.2515 -0.3584 -0.4936
  110OSM    H5F11379   1.516   2.865  10.173 -3.0878 -0.4421  0.0460
  110OSM    H5G11380   1.431   2.741  10.261 -0.4170  0.4352 -0.2125
  110OSM    C6F11381   1.590   2.661  10.135 -0.0087  0.3821  0.4380
  110OSM    H6F11382   1.501   2.648  10.070 -1.8559 -1.5633  3.1238
  110OSM    H6G11383   1.609   2.565  10.188  1.5989  1.2710  1.5682
  110OSM    C7F11384   1.713   2.699  10.056  0.4932 -0.1306  0.1333
  110OSM    H7F11385   1.789   2.738  10.128  0.7522  0.6752 -0.5554
  110OSM    H7G11386   1.694   2.779   9.981  2.6587 -1.4741 -1.9757
  110OSM    C8F11387   1.784   2.587   9.978 -0.2567 -0.0046  0.3763
  110OSM    H8F11388   1.816   2.510  10.052 -1.2608 -0.3090  0.4991
  110OSM    H8G11389   1.874   2.634   9.933 -0.6270 -0.0468 -0.4179
  110OSM    C9F11390   1.714   2.502   9.870 -0.7522 -0.1610  0.2552
  110OSM    H9F11391   1.694   2.404   9.916 -0.4140  0.7930  2.5850
  110OSM   C10F11392   1.677   2.533   9.745 -0.5238  0.3402  1.2479
  110OSM   H10F11393   1.627   2.445   9.700 -0.2983 -0.6586  2.8821
  110OSM   C11F11394   1.693   2.659   9.662 -0.3993  0.3410  0.0345
  110OSM   H11F11395   1.722   2.742   9.730  1.3043  1.1244 -1.5755
  110OSM   H11G11396   1.598   2.690   9.613 -0.1794 -0.3970 -0.8880
  110OSM   C12F11397   1.809   2.650   9.559 -0.0265  0.4902  0.7269
  110OSM   H12F11398   1.891   2.582   9.589 -0.9388 -0.6337  0.7042
  110OSM   H12G11399   1.850   2.752   9.539 -0.9959  0.8822  0.6855
  110OSM   C13F11400   1.756   2.595   9.420  0.9605 -0.7783 -0.2642
  110OSM   H13F11401   1.672   2.662   9.392  1.0398 -0.8974 -0.7965
  110OSM   H13G11402   1.713   2.498   9.453  2.3642 -0.9121  1.3477
  110OSM   C14F11403   1.854   2.568   9.298  0.2656 -0.2465 -0.2557
  110OSM   H14F11404   1.809   2.501   9.222  1.3673 -0.4131 -0.7714
  110OSM   H14G11405   1.937   2.516   9.350  1.7555  2.8649  0.7601
  110OSM   C15F11406   1.913   2.696   9.235 -0.3049 -0.4839 -0.5442
  110OSM   H15F11407   1.986   2.663   9.157  2.1219  1.4066  0.7756
  110OSM   H15G11408   1.967   2.738   9.322 -0.7111  1.8736 -1.3686
  110OSM   C16F11409   1.812   2.802   9.180 -0.3192  0.2426  0.2256
  110OSM   H16F11410   1.875   2.890   9.154 -0.4295  0.1001 -0.5456
  110OSM   H16G11411   1.742   2.840   9.258 -2.0423  0.8423 -1.5321
  110OSM   C17F11412   1.717   2.763   9.063  0.0573 -0.2054 -0.2583
  110OSM   H17F11413   1.634   2.837   9.056  1.3122  1.3927  0.8322
  110OSM   H17G11414   1.673   2.662   9.078  0.7312 -0.4335  0.3013
  110OSM   C18F11415   1.801   2.772   8.932 -0.1535  0.4482 -0.2082
  110OSM   H18F11416   1.881   2.696   8.942 -1.2869 -0.7459 -0.0111
  110OSM   H18G11417   1.854   2.870   8.922 -0.3480  0.9459  2.7702
  110OSM   H18H11418   1.733   2.762   8.845  0.8819 -1.2291 -0.8833
  111OSM      N11419   3.807   5.877  10.860 -0.3122 -0.2865  0.2196
  111OSM    C1511420   3.882   5.747  10.877 -0.2403 -0.1016  0.2030
  111OSM   H15A11421   3.833   5.668  10.821 -2.3496 -1.1329  3.2465
  111OSM   H15B11422   3.881   5.720  10.981 -0.4916  0.2257  0.2862
  111OSM   H15C11423   3.985   5.765  10.850 -0.4973  1.3094  0.0985
  111OSM    C1411424   3.787   5.889  10.711 -0.1084 -0.1584 -0.1166
  111OSM   H14A11425   3.740   5.980  10.678  0.8330  0.2809 -0.2709
  111OSM   H14B11426   3.730   5.806  10.672 -0.2373 -0.2167  0.1927
  111OSM   H14C11427   3.881   5.896  10.658  0.5193 -1.3085  0.7875
  111OSM    C1311428   3.680   5.865  10.938 -0.4387  0.5266  0.5856
  111OSM   H13A11429   3.639   5.766  10.923  0.6833 -0.1495  1.7352
  111OSM   H13B11430   3.614   5.942  10.901  1.0663  1.1129 -1.0397
  111OSM   H13C11431   3.695   5.891  11.042  1.7998  0.8847  0.2244
  111OSM    C1211432   3.888   5.994  10.910 -0.2967  0.6425 -0.0874
  111OSM   H12A11433   3.990   5.983  10.875 -0.1830 -0.7798  0.6120
  111OSM   H12B11434   3.907   6.000  11.017 -1.1405  3.3909 -0.0271
  111OSM    C1111435   3.838   6.131  10.877 -0.2931 -1.1344 -0.3209
  111OSM   H11A11436   3.739   6.151  10.923 -1.4047 -0.7898 -2.6989
  111OSM   H11B11437   3.827   6.138  10.767  1.4919  0.2677 -0.4533
  111OSM      P11438   4.016   6.319  10.855 -0.0733 -0.1581  0.0281
  111OSM    O1311439   3.957   6.448  10.883 -0.9192 -0.3606  0.0484
  111OSM    O1411440   4.160   6.306  10.888 -0.0376  1.3434 -0.4627
  111OSM    O1111441   3.991   6.289  10.701 -0.2927 -0.5554 -0.1829
  111OSM    O1211442   3.939   6.212  10.936 -0.6489  0.1382 -0.1757
  111OSM    C1S11443   4.094   6.211  10.638  0.8642  0.0166  0.2132
  111OSM    H1S11444   4.096   6.108  10.679  1.5914  0.6137  1.7323
  111OSM    H1T11445   4.196   6.256  10.638  0.5309  0.8607 -1.4029
  111OSM     NF11446   4.140   6.086  10.420  1.0761 -0.5155  0.5045
  111OSM    HNF11447   4.224   6.117  10.376  1.8928  0.8670  2.8387
  111OSM    C2S11448   4.061   6.193  10.480  0.2919 -0.4511 -0.3213
  111OSM    H2S11449   3.952   6.180  10.461  0.1888 -0.5912  0.3410
  111OSM    C3S11450   4.090   6.330  10.412 -0.0125 -0.5199  0.9914
  111OSM    H3S11451   4.200   6.343  10.405 -0.2321  0.6494 -0.9287
  111OSM     O311452   4.053   6.449  10.489  0.3036 -0.5650 -0.0094
  111OSM    HO311453   4.012   6.411  10.567  0.4378  0.6874  0.7051
  111OSM    C4S11454   4.027   6.332  10.277 -0.4103  0.5280  0.4364
  111OSM    H4S11455   3.920   6.358  10.281 -1.0142 -1.7047  0.7228
  111OSM    C5S11456   4.088   6.306  10.156 -0.3104  0.2250 -0.7328
  111OSM    H5S11457   4.193   6.275  10.165 -1.5078 -4.1234  1.1008
  111OSM    C6S11458   4.016   6.320  10.023 -0.6754  0.1273  0.4614
  111OSM    H6S11459   4.086   6.384   9.967  0.5211 -1.8586 -0.4206
  111OSM    H6T11460   3.922   6.379  10.030  0.4005  1.9892 -0.2015
  111OSM    C7S11461   3.988   6.183   9.946 -0.4670 -0.5401 -0.5063
  111OSM    H7S11462   3.902   6.140  10.000 -0.7241  0.1860 -0.3305
  111OSM    H7T11463   4.071   6.110   9.959  0.2005  0.2432 -0.2637
  111OSM    C8S11464   3.944   6.201   9.803 -0.3204  1.3372 -0.4290
  111OSM    H8S11465   4.044   6.232   9.764  0.8562 -1.3270  0.2972
  111OSM    H8T11466   3.850   6.261   9.800 -0.8590  0.5297  0.1285
  111OSM    C9S11467   3.899   6.069   9.731 -0.5065 -0.6381 -0.7057
  111OSM    H9S11468   3.800   6.037   9.771 -0.9705  2.5917  1.0485
  111OSM    H9T11469   3.967   5.987   9.763 -0.6552  0.4765  2.8808
  111OSM   C10S11470   3.903   6.104   9.585  0.3588  0.1181  0.7233
  111OSM   H10S11471   4.008   6.118   9.549 -0.5571  1.0205 -1.7945
  111OSM   H10T11472   3.857   6.204   9.578  0.6981  0.2723  0.6460
  111OSM   C11S11473   3.841   5.995   9.504  0.1802 -0.8641  0.1849
  111OSM   H11S11474   3.731   6.011   9.501  0.3586  2.0339  3.0576
  111OSM   H11T11475   3.865   5.900   9.555  1.3035 -0.7578 -0.1239
  111OSM   C12S11476   3.901   5.988   9.367 -0.2343 -0.4171  0.8234
  111OSM   H12S11477   3.923   5.889   9.323 -1.8924  0.1182 -1.4072
  111OSM   H12T11478   4.003   6.024   9.392 -1.7556  3.1170  2.8002
  111OSM   C13S11479   3.843   6.081   9.259  0.1788 -0.2473 -0.0329
  111OSM   H13S11480   3.921   6.103   9.183  0.3188 -1.0640 -0.1352
  111OSM   H13T11481   3.829   6.176   9.315  0.1688 -0.4648  0.3363
  111OSM   C14S11482   3.723   6.022   9.183 -0.3529 -0.2101  0.1691
  111OSM   H14S11483   3.673   6.102   9.124 -2.6564 -1.2725  0.5510
  111OSM   H14T11484   3.646   6.003   9.261 -0.2963 -1.3748 -0.0322
  111OSM   C15S11485   3.754   5.917   9.074  0.6492 -0.0136  0.0189
  111OSM   H15S11486   3.763   5.816   9.118 -0.0018  0.5756  1.6303
  111OSM   H15T11487   3.858   5.946   9.048  0.1444  1.3501 -0.5896
  111OSM   C16S11488   3.655   5.930   8.963  0.3274 -0.2682 -0.1246
  111OSM   H16S11489   3.679   6.013   8.893 -0.3765  1.4012  1.5126
  111OSM   H16T11490   3.557   5.962   9.003 -0.5275  0.7901 -2.8100
  111OSM   C17S11491   3.625   5.810   8.875  0.3502  0.2113  0.3506
  111OSM   H17S11492   3.527   5.830   8.826 -0.2325 -2.6361  0.1891
  111OSM   H17T11493   3.606   5.726   8.945 -0.9602  1.0139  0.9916
  111OSM   C18S11494   3.737   5.773   8.779 -0.3575 -0.3218 -0.6614
  111OSM   H18S11495   3.776   5.863   8.727  0.9910  0.0642  0.9356
  111OSM   H18T11496   3.699   5.696   8.708  3.0558 -1.4502 -1.4974
  111OSM   H18U11497   3.826   5.727   8.827 -0.0860  0.5817 -0.2847
  111OSM    C1F11498   4.121   5.958  10.463  0.4520 -0.2743 -0.1588
  111OSM     OF11499   4.018   5.926  10.520  0.2232 -0.3248  0.0653
  111OSM    C2F11500   4.224   5.854  10.445 -0.9770 -0.9616 -0.1205
  111OSM    H2F11501   4.215   5.793  10.537 -0.2370  1.5612  1.7560
  111OSM    H2G11502   4.323   5.905  10.440 -0.7593 -1.2186  1.3226
  111OSM    C3F11503   4.205   5.776  10.314  0.1205  0.2200  0.2781
  111OSM    H3F11504   4.117   5.708  10.309  1.0269 -0.9308 -0.9776
  111OSM    H3G11505   4.296   5.712  10.306  1.6704  2.2494  1.0633
  111OSM    C4F11506   4.188   5.868  10.192 -0.7658 -0.0001  0.7895
  111OSM    H4F11507   4.264   5.948  10.182  0.6933 -1.3760  0.3337
  111OSM    H4G11508   4.090   5.919  10.191  0.4238  2.4554 -1.4069
  111OSM    C5F11509   4.215   5.784  10.066 -0.3151  0.1342 -0.4192
  111OSM    H5F11510   4.156   5.690  10.078 -0.9130  0.2760 -1.9555
  111OSM    H5G11511   4.322   5.754  10.065 -0.0629  1.0224 -1.3727
  111OSM    C6F11512   4.174   5.850   9.931  0.1620 -0.5513 -0.8217
  111OSM    H6F11513   4.258   5.907   9.887  0.4501  0.2719  0.7368
  111OSM    H6G11514   4.082   5.907   9.950 -1.4431 -3.3919  0.6062
  111OSM    C7F11515   4.124   5.748   9.823  0.1368  0.0323  0.5128
  111OSM    H7F11516   4.096   5.800   9.729  1.4676  0.2387  0.2166
  111OSM    H7G11517   4.037   5.704   9.877 -0.0699  0.3259  0.4252
  111OSM    C8F11518   4.226   5.632   9.797 -0.4051 -0.7136 -0.4102
  111OSM    H8F11519   4.267   5.593   9.892 -0.6254 -1.7454 -0.7301
  111OSM    H8G11520   4.305   5.677   9.732 -0.2859 -1.2569 -0.6501
  111OSM    C9F11521   4.174   5.515   9.713 -0.6802 -0.0495 -0.5550
  111OSM    H9F11522   4.131   5.433   9.774 -1.8710 -0.1973 -1.5470
  111OSM   C10F11523   4.179   5.495   9.582 -0.2268 -0.4234  0.9943
  111OSM   H10F11524   4.136   5.407   9.532 -1.3879  1.5405 -1.7573
  111OSM   C11F11525   4.234   5.596   9.486 -0.1889 -0.2896 -0.5794
  111OSM   H11F11526   4.318   5.558   9.423  1.0026  2.6793 -0.9583
  111OSM   H11G11527   4.261   5.689   9.539  0.0759 -1.8121  2.1504
  111OSM   C12F11528   4.107   5.642   9.404  0.3656 -0.3364 -0.5235
  111OSM   H12F11529   4.132   5.736   9.351 -2.0551  3.6342  4.4474
  111OSM   H12G11530   4.039   5.678   9.485 -0.2250 -2.4531  0.0165
  111OSM   C13F11531   4.029   5.529   9.329 -0.9382 -0.2840 -0.1313
  111OSM   H13F11532   3.960   5.582   9.260 -1.2337 -0.5562 -0.0518
  111OSM   H13G11533   3.965   5.467   9.396  0.7787 -2.8248 -0.6812
  111OSM   C14F11534   4.120   5.443   9.236 -0.5887 -0.4727 -0.2304
  111OSM   H14F11535   4.054   5.360   9.203 -1.6489 -0.6941  2.2562
  111OSM   H14G11536   4.198   5.397   9.299  0.6352  2.0958  0.2910
  111OSM   C15F11537   4.174   5.535   9.126  0.1347 -0.0615  0.2642
  111OSM   H15F11538   4.265   5.589   9.162  0.5688 -0.4731 -0.1864
  111OSM   H15G11539   4.097   5.607   9.091 -0.0209 -0.6563 -0.6631
  111OSM   C16F11540   4.234   5.436   9.016 -0.2121 -0.0597 -0.0732
  111OSM   H16F11541   4.149   5.371   8.987  0.4881 -0.8386 -0.4210
  111OSM   H16G11542   4.303   5.369   9.071 -1.1022 -1.6470 -0.8227
  111OSM   C17F11543   4.297   5.489   8.889  0.2274 -0.3109 -0.0568
  111OSM   H17F11544   4.378   5.561   8.914  1.7521 -2.6436  2.2258
  111OSM   H17G11545   4.214   5.536   8.832 -1.9939 -0.7239  2.6274
  111OSM   C18F11546   4.352   5.380   8.800 -0.5782  0.0361 -0.1350
  111OSM   H18F11547   4.356   5.416   8.695 -2.1717  1.6283  0.2985
  111OSM   H18G11548   4.283   5.294   8.813 -0.0641 -0.1994  1.2804
  111OSM   H18H11549   4.451   5.355   8.844 -0.8248 -1.9968 -0.6401
  112OSM      N11550   2.619   5.817  11.050  0.0648  0.9332  0.0358
  112OSM    C1511551   2.652   5.830  10.909  0.2252 -0.1253  0.7051
  112OSM   H15A11552   2.617   5.927  10.876  3.5553  0.3825 -1.8649
  112OSM   H15B11553   2.604   5.747  10.859 -2.3355  0.6054  1.7404
  112OSM   H15C11554   2.759   5.833  10.899  0.2749  2.0759  1.2913
  112OSM    C1411555   2.671   5.936  11.128  0.1103  0.1129 -0.0206
  112OSM   H14A11556   2.649   5.935  11.234 -0.0812 -0.0907 -0.0626
  112OSM   H14B11557   2.628   6.029  11.093 -1.9813 -1.3584 -1.6273
  112OSM   H14C11558   2.776   5.949  11.105 -0.1854 -1.7313 -2.9574
  112OSM    C1311559   2.469   5.803  11.067  0.0367 -0.0027  0.3857
  112OSM   H13A11560   2.435   5.718  11.009 -1.5453  1.7063 -1.3682
  112OSM   H13B11561   2.420   5.891  11.027 -1.2079 -1.3213 -1.1296
  112OSM   H13C11562   2.452   5.790  11.173  0.3705 -1.4352  0.2883
  112OSM    C1211563   2.690   5.694  11.109  0.7183 -0.8965  0.2448
  112OSM   H12A11564   2.663   5.602  11.058 -0.5231 -0.9932  1.0273
  112OSM   H12B11565   2.641   5.691  11.205 -4.7620 -0.6443 -2.1333
  112OSM    C1111566   2.849   5.695  11.116 -0.1207 -0.2050 -0.5822
  112OSM   H11A11567   2.874   5.606  11.177  0.3265  1.8966  2.5898
  112OSM   H11B11568   2.879   5.780  11.181 -0.6545  1.0821 -1.9622
  112OSM      P11569   3.005   5.600  10.934 -0.6711 -0.0505  0.1378
  112OSM    O1311570   3.132   5.655  10.872  0.1711  0.2773 -0.3463
  112OSM    O1411571   3.024   5.496  11.037 -0.7593  0.0530 -0.2684
  112OSM    O1111572   2.912   5.537  10.819 -0.4615  0.6919 -0.0206
  112OSM    O1211573   2.917   5.713  10.991 -0.3497  0.1475 -0.2778
  112OSM    C1S11574   2.878   5.625  10.709  0.7232 -0.0884 -0.2679
  112OSM    H1S11575   2.963   5.685  10.669 -0.2101  0.3429 -1.6843
  112OSM    H1T11576   2.790   5.687  10.737  1.6875 -0.3059  3.8769
  112OSM     NF11577   2.819   5.621  10.472  0.1690  0.4414 -0.0075
  112OSM    HNF11578   2.726   5.631  10.440 -0.7076 -2.5100  1.2423
  112OSM    C2S11579   2.835   5.537  10.594 -0.2816 -0.0750 -0.3951
  112OSM    H2S11580   2.920   5.467  10.578  1.1154  2.0642 -3.0872
  112OSM    C3S11581   2.709   5.456  10.627 -0.1136  0.5249  0.2104
  112OSM    H3S11582   2.618   5.519  10.641 -1.3680 -0.9740 -0.8815
  112OSM     O311583   2.717   5.378  10.750  0.6538  0.3061  0.2698
  112OSM    HO311584   2.803   5.403  10.785  1.5563 -1.1199 -0.8036
  112OSM    C4S11585   2.658   5.369  10.513  0.0677  0.3163 -0.0922
  112OSM    H4S11586   2.735   5.301  10.475  1.3223  0.5622  1.8888
  112OSM    C5S11587   2.532   5.357  10.450 -0.1604  0.6250  0.2471
  112OSM    H5S11588   2.445   5.416  10.482  0.3920  1.6781 -0.1571
  112OSM    C6S11589   2.507   5.277  10.321 -0.9749 -0.1181  0.5696
  112OSM    H6S11590   2.410   5.224  10.328 -0.2904 -1.2792  1.4822
  112OSM    H6T11591   2.592   5.209  10.300  1.1650  3.3124 -3.3666
  112OSM    C7S11592   2.515   5.361  10.197  0.2086  0.1558 -0.5736
  112OSM    H7S11593   2.611   5.410  10.174 -1.2327  3.1264 -0.7542
  112OSM    H7T11594   2.435   5.438  10.190  1.8351  1.9136 -0.4358
  112OSM    C8S11595   2.478   5.272  10.078 -0.4064  0.7612 -0.2352
  112OSM    H8S11596   2.371   5.252  10.096  0.2814 -0.8770  2.5800
  112OSM    H8T11597   2.538   5.178  10.075  0.0186  1.0389 -1.0941
  112OSM    C9S11598   2.477   5.344   9.943  0.4176  0.0345 -0.9961
  112OSM    H9S11599   2.580   5.342   9.901  0.3361 -0.3299 -1.1794
  112OSM    H9T11600   2.447   5.446   9.974 -1.6340  0.1781 -3.1493
  112OSM   C10S11601   2.377   5.284   9.849 -0.2927  0.2789  0.8850
  112OSM   H10S11602   2.275   5.308   9.884 -1.1102 -2.0372  0.3195
  112OSM   H10T11603   2.383   5.173   9.839 -0.9485  0.3636 -0.8618
  112OSM   C11S11604   2.395   5.351   9.707  0.2355 -0.2094 -0.0586
  112OSM   H11S11605   2.495   5.313   9.676  0.4462 -0.2004  0.6010
  112OSM   H11T11606   2.416   5.460   9.718 -0.0165 -0.2214  0.5825
  112OSM   C12S11607   2.275   5.335   9.605  0.9043  0.0283  0.1873
  112OSM   H12S11608   2.197   5.407   9.636  0.7978 -0.5802  1.4041
  112OSM   H12T11609   2.228   5.237   9.624 -2.6058  1.4578 -0.4641
  112OSM   C13S11610   2.323   5.345   9.463 -0.7152  0.5939  0.2163
  112OSM   H13S11611   2.418   5.289   9.459 -0.7178  0.6101 -0.1640
  112OSM   H13T11612   2.362   5.447   9.441  1.0988 -0.2100 -0.4146
  112OSM   C14S11613   2.235   5.289   9.347  0.0687 -0.1618  0.3544
  112OSM   H14S11614   2.150   5.354   9.317  1.8396  1.8668 -0.5514
  112OSM   H14T11615   2.194   5.193   9.384 -1.2377 -0.5715 -1.9989
  112OSM   C15S11616   2.331   5.284   9.223 -0.4014  0.4392  0.3922
  112OSM   H15S11617   2.408   5.204   9.217 -1.4613 -0.4668 -2.5036
  112OSM   H15T11618   2.383   5.382   9.216  1.2058 -0.3833  0.3238
  112OSM   C16S11619   2.241   5.270   9.098  0.0550 -0.0829  0.1331
  112OSM   H16S11620   2.160   5.346   9.098 -1.5460 -1.7123 -0.5641
  112OSM   H16T11621   2.195   5.170   9.113  1.0313 -0.8498 -1.7196
  112OSM   C17S11622   2.312   5.263   8.962 -0.1241 -0.5177  0.7881
  112OSM   H17S11623   2.241   5.238   8.881 -0.3378  0.7703  0.5699
  112OSM   H17T11624   2.382   5.177   8.974 -0.2617 -0.7860 -0.2837
  112OSM   C18S11625   2.380   5.387   8.932  0.0215 -0.4492  0.3142
  112OSM   H18S11626   2.470   5.396   8.997  1.1987  0.4027 -1.3407
  112OSM   H18T11627   2.316   5.474   8.959 -0.7138 -0.9687  0.2615
  112OSM   H18U11628   2.409   5.385   8.824 -0.2024 -1.5893  0.2668
  112OSM    C1F11629   2.918   5.680  10.403 -0.2582 -0.1477  0.7589
  112OSM     OF11630   3.036   5.655  10.427 -0.3008  0.2747 -0.0052
  112OSM    C2F11631   2.876   5.757  10.281  0.4263 -0.0564 -0.4907
  112OSM    H2F11632   2.785   5.819  10.297 -0.5209 -1.9250  1.9648
  112OSM    H2G11633   2.847   5.689  10.198  0.8203 -1.1470  0.2504
  112OSM    C3F11634   2.989   5.855  10.241  0.3541 -0.0651  0.5237
  112OSM    H3F11635   3.089   5.807  10.226  0.9806  1.5858 -0.9780
  112OSM    H3G11636   3.011   5.932  10.318 -1.7351  2.3395 -1.1261
  112OSM    C4F11637   2.959   5.944  10.111  0.2350  0.1964 -0.3078
  112OSM    H4F11638   2.859   5.991  10.122  1.3290  3.1254 -1.8651
  112OSM    H4G11639   2.935   5.866  10.035 -2.6090 -0.0655  0.7171
  112OSM    C5F11640   3.054   6.047  10.060 -0.2653  0.3518 -0.0744
  112OSM    H5F11641   3.154   5.999  10.059  0.3871  1.6655 -0.3698
  112OSM    H5G11642   3.060   6.131  10.133  2.3591  0.1567  0.0331
  112OSM    C6F11643   3.013   6.098   9.920 -0.2171  0.5091  0.6833
  112OSM    H6F11644   2.941   6.180   9.939 -0.3178  0.4286  0.6489
  112OSM    H6G11645   2.971   6.021   9.851 -0.3301  1.6762 -0.5984
  112OSM    C7F11646   3.127   6.171   9.844  0.8509  0.2742  0.1821
  112OSM    H7F11647   3.223   6.116   9.851 -0.4411 -2.1931 -0.2544
  112OSM    H7G11648   3.142   6.264   9.902  0.9805 -1.0734  2.4348
  112OSM    C8F11649   3.103   6.201   9.698 -0.2896  0.3016  0.3649
  112OSM    H8F11650   3.078   6.113   9.635 -3.8209  1.9499 -0.8534
  112OSM    H8G11651   3.199   6.245   9.664  0.6553 -0.3363  2.1271
  112OSM    C9F11652   2.995   6.299   9.680  0.1294 -0.1167  0.5208
  112OSM    H9F11653   2.991   6.382   9.752  1.8714  0.1872  0.2991
  112OSM   C10F11654   2.905   6.305   9.581  0.6510 -0.2548 -0.2196
  112OSM   H10F11655   2.820   6.373   9.590  0.5513 -0.6525  2.7494
  112OSM   C11F11656   2.902   6.218   9.453 -0.1504  0.1506  0.4080
  112OSM   H11F11657   2.798   6.178   9.446 -0.4805  1.2553 -1.5134
  112OSM   H11G11658   2.964   6.126   9.462  0.8713  0.8160  0.3825
  112OSM   C12F11659   2.927   6.300   9.330 -0.0502  0.4700  0.0680
  112OSM   H12F11660   3.026   6.349   9.339 -0.3462  0.9262  0.9084
  112OSM   H12G11661   2.853   6.379   9.307 -0.0653  0.4273 -0.0257
  112OSM   C13F11662   2.947   6.205   9.211  0.2885  0.5299  0.4016
  112OSM   H13F11663   2.843   6.175   9.189  0.9143 -1.2937 -0.2511
  112OSM   H13G11664   3.003   6.112   9.232 -0.5222  0.2137  1.2193
  112OSM   C14F11665   2.994   6.286   9.090  0.3241 -0.0750  0.5377
  112OSM   H14F11666   3.098   6.323   9.103  0.7943 -1.3548  0.6276
  112OSM   H14G11667   2.914   6.357   9.061 -1.1291 -2.1253 -0.7113
  112OSM   C15F11668   3.012   6.196   8.968  0.2350  0.0341 -0.0963
  112OSM   H15F11669   2.911   6.164   8.935 -0.8232  1.1285  1.9304
  112OSM   H15G11670   3.073   6.104   8.986 -2.6000 -1.5154  2.3857
  112OSM   C16F11671   3.078   6.269   8.851 -0.7257 -0.8226 -0.6777
  112OSM   H16F11672   3.180   6.293   8.887 -1.9744  0.8307  2.1137
  112OSM   H16G11673   3.021   6.364   8.842  1.1505  0.2104 -2.4226
  112OSM   C17F11674   3.070   6.185   8.724  0.3009 -0.0353 -0.8270
  112OSM   H17F11675   3.083   6.258   8.641  1.6214  1.1433  0.3407
  112OSM   H17G11676   2.975   6.127   8.730  1.0367 -1.1499  2.1633
  112OSM   C18F11677   3.186   6.090   8.724 -0.3609  0.4871  0.1793
  112OSM   H18F11678   3.158   6.007   8.655  2.9677  1.5026 -2.6497
  112OSM   H18G11679   3.199   6.037   8.821  0.0025  0.0498 -0.1031
  112OSM   H18H11680   3.280   6.127   8.677  0.5327 -2.3600 -0.4678
  113OSM      N11681   3.278   5.274  10.898  0.0414  0.3345  0.8983
  113OSM    C1511682   3.207   5.236  11.022  0.0122 -0.3405  0.4639
  113OSM   H15A11683   3.175   5.133  11.018  3.8870 -1.6919  0.8935
  113OSM   H15B11684   3.136   5.316  11.039  2.3152  2.9343 -3.5201
  113OSM   H15C11685   3.264   5.230  11.114  0.3239 -3.3615  0.1785
  113OSM    C1411686   3.332   5.408  10.905 -0.2872  0.6634 -0.6032
  113OSM   H14A11687   3.356   5.453  10.810 -2.0852  1.4603 -0.7148
  113OSM   H14B11688   3.416   5.395  10.971 -1.0527  0.6099  0.3831
  113OSM   H14C11689   3.263   5.479  10.948  0.1642  0.0304  1.2349
  113OSM    C1311690   3.394   5.176  10.878  0.3991 -0.1515 -1.0489
  113OSM   H13A11691   3.446   5.194  10.785  1.5755  0.5958 -0.2758
  113OSM   H13B11692   3.350   5.077  10.873 -0.6073  0.2702 -0.6005
  113OSM   H13C11693   3.460   5.182  10.964 -2.6408 -1.0553  1.5534
  113OSM    C1211694   3.181   5.266  10.780  0.5288 -0.1162  0.4565
  113OSM   H12A11695   3.232   5.301  10.692 -1.0551  0.3647 -0.3057
  113OSM   H12B11696   3.099   5.334  10.793 -1.0840 -1.2609 -2.6459
  113OSM    C1111697   3.125   5.129  10.752  0.2589 -0.4323 -0.0990
  113OSM   H11A11698   3.204   5.051  10.753  0.3390 -0.3693 -0.7561
  113OSM   H11B11699   3.091   5.131  10.646 -1.5666 -0.6204  0.4454
  113OSM      P11700   2.968   4.972  10.898  0.3048  0.2401  0.0971
  113OSM    O1311701   3.055   4.940  11.017 -0.1406  0.3380 -0.0709
  113OSM    O1411702   2.823   4.973  10.918 -0.1318  0.0352 -0.0417
  113OSM    O1111703   3.007   4.866  10.781  0.9520 -0.5884 -0.4836
  113OSM    O1211704   3.006   5.111  10.827  0.1827  0.3575  0.0259
  113OSM    C1S11705   2.912   4.808  10.692  0.1718  0.3639 -0.0491
  113OSM    H1S11706   2.803   4.821  10.711  0.0604 -1.9839  1.2764
  113OSM    H1T11707   2.917   4.697  10.694 -0.8768  0.3147  0.1045
  113OSM     NF11708   2.841   4.801  10.463 -0.2240 -0.0645  0.0728
  113OSM    HNF11709   2.825   4.708  10.431 -1.7530  0.4136 -0.7119
  113OSM    C2S11710   2.957   4.829  10.545 -0.3143  0.2678  0.0849
  113OSM    H2S11711   2.995   4.933  10.545 -2.0179  0.9274  1.0111
  113OSM    C3S11712   3.077   4.740  10.506  0.0861 -0.0308 -0.3405
  113OSM    H3S11713   3.052   4.632  10.511 -1.2080  0.3227  2.3879
  113OSM     O311714   3.176   4.745  10.614  0.0413  1.0372  0.1968
  113OSM    HO311715   3.133   4.783  10.691 -0.8107  0.0063  0.2452
  113OSM    C4S11716   3.142   4.767  10.369  0.5265  0.6187  0.2287
  113OSM    H4S11717   3.076   4.738  10.286  2.1017 -0.6422 -0.6529
  113OSM    C5S11718   3.261   4.805  10.331 -1.1363 -0.0189 -0.6615
  113OSM    H5S11719   3.335   4.826  10.409  0.1686  2.8380 -2.5133
  113OSM    C6S11720   3.315   4.835  10.194  0.4513 -0.1360  0.7216
  113OSM    H6S11721   3.411   4.782  10.178  0.3418  0.1222 -0.9387
  113OSM    H6T11722   3.331   4.944  10.182 -2.8592  0.2883 -0.9182
  113OSM    C7S11723   3.230   4.797  10.064 -0.1846  0.7647 -0.1466
  113OSM    H7S11724   3.130   4.838  10.089 -0.8899 -0.2017 -1.2543
  113OSM    H7T11725   3.215   4.687  10.057  2.0310  0.1499  2.8826
  113OSM    C8S11726   3.274   4.862   9.935  0.1149  0.3169  0.1850
  113OSM    H8S11727   3.369   4.814   9.906 -0.1421  0.8093 -1.6235
  113OSM    H8T11728   3.298   4.967   9.963 -1.9620  0.4139  1.9075
  113OSM    C9S11729   3.176   4.848   9.825  0.0111  0.3319  0.0835
  113OSM    H9S11730   3.083   4.885   9.872  0.0571  0.9103 -0.2678
  113OSM    H9T11731   3.167   4.740   9.802  0.3541  0.6089 -1.4574
  113OSM   C10S11732   3.218   4.914   9.692  0.2700 -0.5303  0.6187
  113OSM   H10S11733   3.311   4.860   9.666  1.0795 -0.2026  2.6886
  113OSM   H10T11734   3.252   5.015   9.723 -0.3754 -0.5141  1.2888
  113OSM   C11S11735   3.120   4.914   9.575 -0.1100 -0.3266 -0.0394
  113OSM   H11S11736   3.028   4.965   9.610 -0.7650 -1.3154 -0.2831
  113OSM   H11T11737   3.094   4.807   9.559  2.5345 -1.0164 -0.1175
  113OSM   C12S11738   3.165   4.986   9.448  0.5032 -0.2466 -0.0530
  113OSM   H12S11739   3.275   4.978   9.443  0.6098  0.4563  0.8305
  113OSM   H12T11740   3.166   5.093   9.478  1.2569 -0.7381  1.8507
  113OSM   C13S11741   3.096   4.954   9.314  0.7768  0.6381  0.1636
  113OSM   H13S11742   2.993   4.994   9.327  0.9045  0.4411  2.2675
  113OSM   H13T11743   3.089   4.843   9.313 -1.6443  0.7461 -0.8917
  113OSM   C14S11744   3.168   5.019   9.198 -0.0465  0.0179 -0.0928
  113OSM   H14S11745   3.276   5.000   9.215  0.1065 -0.7580 -1.8088
  113OSM   H14T11746   3.151   5.129   9.199 -1.1918 -0.1403  1.1082
  113OSM   C15S11747   3.138   4.962   9.058  0.3270 -0.2401  0.6056
  113OSM   H15S11748   3.030   4.976   9.035 -0.1600 -1.1732  2.1703
  113OSM   H15T11749   3.159   4.853   9.059 -0.5211 -0.4032  1.7695
  113OSM   C16S11750   3.223   5.034   8.954  0.1299 -0.1240  0.4447
  113OSM   H16S11751   3.333   5.027   8.969 -0.2178 -0.2866  3.5008
  113OSM   H16T11752   3.190   5.139   8.968 -1.8170 -0.5300 -0.7758
  113OSM   C17S11753   3.187   4.991   8.804 -0.2224  0.3736  0.2029
  113OSM   H17S11754   3.225   5.056   8.722  0.9916  0.4470  0.8024
  113OSM   H17T11755   3.078   5.003   8.788  0.2972  2.1783 -3.0443
  113OSM   C18S11756   3.233   4.850   8.762 -0.5851  0.1024  0.6910
  113OSM   H18S11757   3.164   4.809   8.684 -0.0771 -0.6095  0.6052
  113OSM   H18T11758   3.230   4.784   8.851  3.6521 -1.2863  0.0409
  113OSM   H18U11759   3.339   4.840   8.730 -0.9202  2.4752 -1.5094
  113OSM    C1F11760   2.743   4.890  10.456 -0.1177  0.0998  0.3498
  113OSM     OF11761   2.753   4.992  10.525 -0.5778  0.3464 -0.8514
  113OSM    C2F11762   2.622   4.870  10.367  0.0590  0.4077  0.5051
  113OSM    H2F11763   2.554   4.958  10.362 -2.0513 -1.1682  0.0977
  113OSM    H2G11764   2.562   4.790  10.414  2.3942  0.2383  3.4554
  113OSM    C3F11765   2.667   4.846  10.224 -0.5935 -0.1332  0.2794
  113OSM    H3F11766   2.577   4.821  10.163 -0.1989  2.8284 -1.7251
  113OSM    H3G11767   2.739   4.761  10.225 -0.1335  0.2608  1.1099
  113OSM    C4F11768   2.742   4.957  10.157 -0.1674 -0.4419 -0.2606
  113OSM    H4F11769   2.838   4.977  10.209 -0.5389  1.1042 -0.1335
  113OSM    H4G11770   2.687   5.052  10.171 -0.6981 -0.7827 -0.0008
  113OSM    C5F11771   2.784   4.928  10.012 -0.2213 -0.0686 -0.5392
  113OSM    H5F11772   2.789   4.819   9.995  2.1182 -0.2183  0.7319
  113OSM    H5G11773   2.889   4.961   9.994  1.2731 -2.9075  2.1137
  113OSM    C6F11774   2.679   4.979   9.912  0.6769  0.3066  0.2913
  113OSM    H6F11775   2.688   5.090   9.917 -0.5480  0.3659  3.1181
  113OSM    H6G11776   2.578   4.958   9.952  0.0903  2.1283 -0.1377
  113OSM    C7F11777   2.694   4.939   9.761 -0.3665  0.0012 -0.7744
  113OSM    H7F11778   2.683   4.829   9.751  0.2903 -0.0640 -0.8478
  113OSM    H7G11779   2.800   4.968   9.746  0.3558 -1.1591  1.6029
  113OSM    C8F11780   2.606   5.022   9.664  0.0740  0.2040 -0.1149
  113OSM    H8F11781   2.620   5.131   9.679 -0.2569  0.5046 -1.7448
  113OSM    H8G11782   2.504   4.985   9.687 -0.6320  0.6112 -2.2977
  113OSM    C9F11783   2.649   4.975   9.528  0.0079 -0.3905  0.8885
  113OSM    H9F11784   2.751   4.934   9.518 -0.9749 -3.2216  1.5639
  113OSM   C10F11785   2.567   4.938   9.424  0.6059  0.3184  0.3404
  113OSM   H10F11786   2.610   4.901   9.330 -1.1397 -0.6794 -0.1112
  113OSM   C11F11787   2.411   4.940   9.419  0.2119 -0.4225  0.3785
  113OSM   H11F11788   2.401   5.017   9.340  2.1608 -0.1950  0.3009
  113OSM   H11G11789   2.358   4.971   9.511 -0.4544  1.4767 -0.5873
  113OSM   C12F11790   2.354   4.807   9.381  0.5383  0.1420 -0.0056
  113OSM   H12F11791   2.245   4.823   9.370  0.7016  2.7906  1.5633
  113OSM   H12G11792   2.369   4.737   9.466  0.4866  1.8625  1.4820
  113OSM   C13F11793   2.399   4.733   9.251 -0.8889 -0.4240 -0.2597
  113OSM   H13F11794   2.334   4.645   9.232  0.7784 -2.1321  1.4058
  113OSM   H13G11795   2.503   4.697   9.265 -1.0072 -0.0159  2.0999
  113OSM   C14F11796   2.403   4.821   9.124  0.7603  0.9057  0.1731
  113OSM   H14F11797   2.433   4.926   9.147  3.2787  0.4809 -0.8402
  113OSM   H14G11798   2.301   4.811   9.083  1.5423 -2.8173 -1.2838
  113OSM   C15F11799   2.502   4.782   9.018 -0.4596  1.2037 -0.4018
  113OSM   H15F11800   2.492   4.675   8.991  1.3556 -0.1333  3.5686
  113OSM   H15G11801   2.605   4.796   9.057  0.0083 -1.0110 -0.7031
  113OSM   C16F11802   2.493   4.871   8.895  0.3020  0.4710  0.7880
  113OSM   H16F11803   2.520   4.975   8.922  0.0265  0.7822 -0.1224
  113OSM   H16G11804   2.392   4.878   8.850 -0.0514  0.8936  1.6223
  113OSM   C17F11805   2.594   4.829   8.790  0.1590  0.9920  0.8603
  113OSM   H17F11806   2.581   4.724   8.757  1.4250  0.9068  0.5865
  113OSM   H17G11807   2.693   4.832   8.842  1.1662 -0.8544 -0.8341
  113OSM   C18F11808   2.587   4.908   8.665  0.1369  0.3815 -0.2972
  113OSM   H18F11809   2.483   4.902   8.629  0.2094 -1.2653 -0.3417
  113OSM   H18G11810   2.659   4.864   8.592  0.5513 -1.9653  1.3728
  113OSM   H18H11811   2.610   5.015   8.679 -4.9706  1.9764 -1.9104
  114OSM      N11812   4.459   1.733  11.159 -0.1309  0.2896 -0.2730
  114OSM    C1511813   4.505   1.599  11.200 -0.1958  0.5920  0.0872
  114OSM   H15A11814   4.562   1.560  11.118 -1.3954 -1.3746  0.1272
  114OSM   H15B11815   4.427   1.524  11.206 -0.6980  1.0998 -0.0333
  114OSM   H15C11816   4.576   1.598  11.282  0.2604 -1.3664 -0.2833
  114OSM    C1411817   4.419   1.715  11.020 -0.2998 -0.7382  0.1743
  114OSM   H14A11818   4.348   1.782  10.975 -0.5061 -1.8787 -1.3125
  114OSM   H14B11819   4.373   1.620  10.992  0.9497 -0.8459 -1.7491
  114OSM   H14C11820   4.508   1.719  10.959 -0.2133  3.3385  0.3516
  114OSM    C1311821   4.337   1.777  11.232 -0.5350  0.0516 -0.2555
  114OSM   H13A11822   4.335   1.885  11.240  1.7428  0.0399  1.1040
  114OSM   H13B11823   4.342   1.746  11.335  1.1759 -2.6522 -1.0649
  114OSM   H13C11824   4.240   1.750  11.191 -0.9633  2.0783 -0.6735
  114OSM    C1211825   4.571   1.840  11.181 -0.2419  0.1989  0.5571
  114OSM   H12A11826   4.531   1.926  11.129 -0.3498  1.2842  2.3656
  114OSM   H12B11827   4.651   1.799  11.120 -0.3606  0.1338  0.4442
  114OSM    C1111828   4.616   1.881  11.321 -0.0419 -0.2853  0.1424
  114OSM   H11A11829   4.525   1.929  11.363  0.9594 -0.0959  2.2276
  114OSM   H11B11830   4.697   1.954  11.303 -0.2571  0.0389  0.4777
  114OSM      P11831   4.802   1.703  11.369  0.1363 -0.4196  0.0531
  114OSM    O1311832   4.896   1.756  11.476 -0.4956  0.4337 -0.3306
  114OSM    O1411833   4.772   1.559  11.359  0.5509  0.6135 -0.0283
  114OSM    O1111834   4.851   1.768  11.230  0.3564 -1.1913 -0.0857
  114OSM    O1211835   4.662   1.779  11.406 -0.7355 -0.1237  0.4110
  114OSM    C1S11836   4.884   1.670  11.123 -0.2005  0.0226 -0.4461
  114OSM    H1S11837   4.786   1.623  11.098 -0.0572 -0.5581  0.0576
  114OSM    H1T11838   4.962   1.598  11.156 -0.0097  0.8710  1.0681
  114OSM     NF11839   4.902   1.679  10.886 -0.1930  0.3276  0.0853
  114OSM    HNF11840   4.978   1.623  10.852  1.4399  1.6714  1.3088
  114OSM    C2S11841   4.932   1.747  11.008 -0.4067  0.5069  0.4453
  114OSM    H2S11842   4.871   1.840  11.007 -2.3648 -0.7363  0.0909
  114OSM    C3S11843   5.082   1.785  11.027 -0.0815 -0.3489  0.3473
  114OSM    H3S11844   5.139   1.690  11.039  2.1049  0.6400 -1.4802
  114OSM     O311845   5.102   1.853  11.151 -0.7863 -0.1382 -0.1834
  114OSM    HO311846   5.021   1.846  11.202 -1.1454  0.7464 -0.6224
  114OSM    C4S11847   5.139   1.861  10.908  0.0150 -0.1949 -0.4629
  114OSM    H4S11848   5.121   1.799  10.819 -0.6959 -0.4827 -0.1234
  114OSM    C5S11849   5.181   1.988  10.901 -0.3581 -0.2546  0.3367
  114OSM    H5S11850   5.174   2.046  10.994  0.6742  2.6737 -1.2836
  114OSM    C6S11851   5.237   2.063  10.777  0.2038  0.8912 -0.3357
  114OSM    H6S11852   5.343   2.093  10.791  1.0332 -2.4811  1.5830
  114OSM    H6T11853   5.183   2.158  10.759 -4.4288 -0.9965  1.9752
  114OSM    C7S11854   5.222   1.995  10.643  0.2856  0.4293 -0.2107
  114OSM    H7S11855   5.116   2.000  10.611  0.2497  1.2859  0.0220
  114OSM    H7T11856   5.268   1.894  10.639 -0.7222 -0.0425 -0.3882
  114OSM    C8S11857   5.288   2.074  10.531 -0.1202 -0.1631  0.0003
  114OSM    H8S11858   5.399   2.064  10.523  0.2577  3.0895 -0.1839
  114OSM    H8T11859   5.281   2.183  10.549  1.0321 -0.0955  0.1045
  114OSM    C9S11860   5.234   2.044  10.394  0.0977  0.1264  0.4147
  114OSM    H9S11861   5.290   2.098  10.314 -0.6212 -1.5117 -1.2847
  114OSM    H9T11862   5.128   2.077  10.399  0.0339 -0.2227  1.7578
  114OSM   C10S11863   5.250   1.890  10.355 -0.6418 -0.5379  0.1203
  114OSM   H10S11864   5.195   1.822  10.424 -0.3263 -0.1584  0.7495
  114OSM   H10T11865   5.359   1.870  10.362 -0.6670 -0.3717  1.0609
  114OSM   C11S11866   5.193   1.871  10.214  0.1329 -0.6583 -0.2823
  114OSM   H11S11867   5.244   1.947  10.151 -1.6428 -0.6087 -1.7181
  114OSM   H11T11868   5.088   1.907  10.221  0.3849  0.1604 -0.5776
  114OSM   C12S11869   5.213   1.730  10.157 -0.2951 -0.0053 -0.1430
  114OSM   H12S11870   5.162   1.655  10.221 -0.9896  0.5799  0.0082
  114OSM   H12T11871   5.322   1.711  10.160 -0.5423 -1.6181 -0.2929
  114OSM   C13S11872   5.187   1.726  10.002 -0.1350 -0.8961  0.0766
  114OSM   H13S11873   5.229   1.823   9.970  1.4932 -1.5658  0.0774
  114OSM   H13T11874   5.082   1.729   9.968  0.4933  0.7303 -1.9003
  114OSM   C14S11875   5.262   1.618   9.926 -0.3215 -0.1780 -0.7665
  114OSM   H14S11876   5.228   1.515   9.951  0.5730 -0.5377 -0.9941
  114OSM   H14T11877   5.367   1.625   9.962 -0.3158 -1.6468 -0.4278
  114OSM   C15S11878   5.254   1.629   9.777  0.0798 -0.3284  0.0664
  114OSM   H15S11879   5.312   1.711   9.731 -1.1767 -0.7253 -2.3782
  114OSM   H15T11880   5.147   1.654   9.758  0.5263  0.4131 -1.6538
  114OSM   C16S11881   5.310   1.512   9.704  0.1070  0.5436  0.7333
  114OSM   H16S11882   5.234   1.432   9.718  0.0662  0.5000  0.2894
  114OSM   H16T11883   5.405   1.482   9.752  1.7563 -0.1903 -2.6626
  114OSM   C17S11884   5.330   1.524   9.556 -0.5123  0.2474 -1.3875
  114OSM   H17S11885   5.388   1.437   9.519  0.4353  0.7137 -1.0490
  114OSM   H17T11886   5.401   1.609   9.545 -1.0475  0.9643  0.3914
  114OSM   C18S11887   5.205   1.529   9.476 -0.0638  0.1516  0.1270
  114OSM   H18S11888   5.225   1.551   9.369 -0.2444 -0.1152  0.0367
  114OSM   H18T11889   5.141   1.609   9.519 -1.2706 -0.3564 -0.6529
  114OSM   H18U11890   5.154   1.432   9.496 -0.5118  0.6115  1.2545
  114OSM    C1F11891   4.770   1.674  10.843 -1.3652  1.0345  0.2997
  114OSM     OF11892   4.674   1.723  10.898 -0.1082  0.1181 -0.2825
  114OSM    C2F11893   4.748   1.580  10.714 -0.8011  0.2683 -0.0209
  114OSM    H2F11894   4.683   1.498  10.751 -1.6696  1.1474  0.4479
  114OSM    H2G11895   4.850   1.541  10.693 -0.4701  1.5895 -0.9821
  114OSM    C3F11896   4.702   1.657  10.594  0.3023 -0.3462 -0.0612
  114OSM    H3F11897   4.601   1.700  10.614  0.4218 -0.4817  0.8561
  114OSM    H3G11898   4.689   1.590  10.507  0.8522 -0.1443 -0.3041
  114OSM    C4F11899   4.797   1.760  10.533 -0.3165 -0.1053  0.1780
  114OSM    H4F11900   4.824   1.832  10.614  0.3567 -2.3286  2.0265
  114OSM    H4G11901   4.745   1.818  10.454 -0.1686 -0.7071 -0.3623
  114OSM    C5F11902   4.927   1.700  10.475  0.2595  0.3944  0.5938
  114OSM    H5F11903   4.994   1.655  10.551 -2.1111  0.6682  2.9771
  114OSM    H5G11904   4.977   1.793  10.439  1.3702 -0.6073 -0.5000
  114OSM    C6F11905   4.906   1.603  10.358 -0.0556  0.6466  0.2455
  114OSM    H6F11906   4.836   1.523  10.390 -1.1079  2.9168  4.2835
  114OSM    H6G11907   5.003   1.561  10.325 -0.3643 -0.8781  1.1860
  114OSM    C7F11908   4.834   1.668  10.238 -0.0531 -0.0696 -0.3332
  114OSM    H7F11909   4.893   1.753  10.197  0.3335 -0.3659 -0.3933
  114OSM    H7G11910   4.737   1.708  10.275 -0.3300  0.4505 -1.5570
  114OSM    C8F11911   4.812   1.560  10.129 -0.8486 -0.1464 -0.2356
  114OSM    H8F11912   4.793   1.458  10.168  0.3619 -0.6801 -0.9729
  114OSM    H8G11913   4.911   1.541  10.083  0.2335  2.0196  0.9939
  114OSM    C9F11914   4.706   1.596  10.029  0.4434 -0.4087 -0.3953
  114OSM    H9F11915   4.609   1.565  10.072  1.3282  1.7193  3.6759
  114OSM   C10F11916   4.711   1.663   9.916  0.0558  0.6763  0.0760
  114OSM   H10F11917   4.616   1.688   9.866  0.1053 -3.3553 -2.4598
  114OSM   C11F11918   4.826   1.736   9.861 -0.0445  0.7706  0.5298
  114OSM   H11F11919   4.909   1.665   9.843 -0.2500  0.4214  0.9290
  114OSM   H11G11920   4.852   1.795   9.952  1.4285 -0.7107  1.1233
  114OSM   C12F11921   4.824   1.831   9.732  0.6071 -0.2356 -0.0028
  114OSM   H12F11922   4.923   1.881   9.722 -0.0159  1.3559  1.3470
  114OSM   H12G11923   4.745   1.906   9.754  1.0981  0.9991 -2.1649
  114OSM   C13F11924   4.796   1.756   9.605  0.2222  0.3325 -0.0365
  114OSM   H13F11925   4.696   1.711   9.587  0.4776 -0.0912 -0.4174
  114OSM   H13G11926   4.873   1.676   9.611  0.3343  0.5551  1.8536
  114OSM   C14F11927   4.819   1.833   9.475  0.1271  0.3484  0.4963
  114OSM   H14F11928   4.909   1.897   9.475 -0.2693  0.9239  0.0384
  114OSM   H14G11929   4.733   1.901   9.452 -0.1750  0.0029  0.5899
  114OSM   C15F11930   4.814   1.739   9.356 -0.0590 -0.9371  0.1596
  114OSM   H15F11931   4.714   1.693   9.352 -0.5565 -0.2211  2.6372
  114OSM   H15G11932   4.894   1.663   9.369  0.4234 -0.4748 -0.0252
  114OSM   C16F11933   4.832   1.824   9.233 -0.0513 -0.6206 -0.0875
  114OSM   H16F11934   4.938   1.858   9.230  0.1270 -1.2317 -1.0549
  114OSM   H16G11935   4.775   1.919   9.235  0.3474 -0.3306  3.1379
  114OSM   C17F11936   4.811   1.754   9.102  0.3663  0.3718 -0.1405
  114OSM   H17F11937   4.707   1.717   9.107  0.7689 -0.7140  4.5537
  114OSM   H17G11938   4.870   1.661   9.082  0.8718  0.6332  0.0998
  114OSM   C18F11939   4.822   1.835   8.972  1.0808 -0.3439  0.7776
  114OSM   H18F11940   4.839   1.943   8.993  0.2993  0.2273 -1.2815
  114OSM   H18G11941   4.729   1.815   8.915  0.5111  0.0751  1.5514
  114OSM   H18H11942   4.903   1.794   8.907  1.4429  0.0251  0.9871
  115OSM      N11943   5.327   2.413   5.924  0.2884 -0.3817 -0.4293
  115OSM    C1511944   5.184   2.441   5.910  0.1552  0.1755  0.3090
  115OSM   H15A11945   5.168   2.453   5.804 -0.7733  2.1472  0.6294
  115OSM   H15B11946   5.151   2.529   5.963 -0.8818 -0.2682  0.4392
  115OSM   H15C11947   5.120   2.360   5.944  0.2800  0.5921  1.5823
  115OSM    C1411948   5.368   2.316   5.816  0.1902 -0.1204 -0.0292
  115OSM   H14A11949   5.342   2.351   5.718 -1.9377 -1.4343 -0.0030
  115OSM   H14B11950   5.321   2.221   5.834  1.4539 -0.2951  2.9442
  115OSM   H14C11951   5.475   2.302   5.818  0.1665 -0.2812  0.5247
  115OSM    C1311952   5.391   2.552   5.892 -0.7353  0.1055 -0.0838
  115OSM   H13A11953   5.497   2.539   5.908 -0.4577  0.6296 -1.3670
  115OSM   H13B11954   5.357   2.633   5.954  3.4274  1.0860  1.2754
  115OSM   H13C11955   5.376   2.583   5.790  2.6214  0.0178 -0.7106
  115OSM    C1211956   5.358   2.366   6.060  0.3812 -0.2592  0.1343
  115OSM   H12A11957   5.460   2.333   6.068  1.1558  2.0488  0.4626
  115OSM   H12B11958   5.302   2.275   6.075 -0.3847  0.4119  1.6279
  115OSM    C1111959   5.328   2.452   6.186 -0.3474  0.0532 -0.3642
  115OSM   H11A11960   5.359   2.558   6.175 -1.6615  0.2669 -2.4029
  115OSM   H11B11961   5.394   2.426   6.272 -0.9856  0.7728  0.3612
  115OSM      P11962   5.106   2.335   6.286 -0.0473 -0.3951 -0.2881
  115OSM    O1311963   4.965   2.360   6.263  0.1034  0.0403 -0.3863
  115OSM    O1411964   5.153   2.198   6.250 -0.7812  0.1071  0.3637
  115OSM    O1111965   5.135   2.357   6.434 -0.0422  0.3162  0.3415
  115OSM    O1211966   5.185   2.450   6.213  0.5084 -0.1777 -0.0165
  115OSM    C1S11967   5.115   2.487   6.488 -0.0572 -0.1726  0.3453
  115OSM    H1S11968   5.009   2.520   6.474 -0.2495 -0.6976  0.5355
  115OSM    H1T11969   5.180   2.556   6.431 -2.1307 -1.1858 -3.6672
  115OSM     NF11970   5.128   2.637   6.686  0.0061 -0.1217 -0.4572
  115OSM    HNF11971   5.193   2.713   6.683 -1.8109  1.5085 -0.1210
  115OSM    C2S11972   5.173   2.505   6.633  0.0479  0.6154 -0.0836
  115OSM    H2S11973   5.120   2.423   6.687  0.4722  0.7994  0.6223
  115OSM    C3S11974   5.329   2.495   6.629  0.4087  0.4360  0.0629
  115OSM    H3S11975   5.366   2.577   6.564 -2.8456  1.6893 -0.4011
  115OSM     O311976   5.377   2.378   6.568 -0.4906  1.1257 -0.0205
  115OSM    HO311977   5.301   2.331   6.532 -0.2248 -0.9637  1.9699
  115OSM    C4S11978   5.393   2.525   6.766 -0.1675 -0.0579  0.4978
  115OSM    H4S11979   5.440   2.624   6.770 -1.4617  0.7445 -1.8466
  115OSM    C5S11980   5.389   2.439   6.875 -0.5658  0.4603 -0.3107
  115OSM    H5S11981   5.338   2.341   6.875  1.7902 -0.8937 -2.6290
  115OSM    C6S11982   5.448   2.471   7.014  1.4903  0.0932  0.4797
  115OSM    H6S11983   5.545   2.418   7.026  1.3119 -0.0959  1.1572
  115OSM    H6T11984   5.388   2.428   7.098  2.2849 -0.5938  0.7178
  115OSM    C7S11985   5.474   2.613   7.053  0.7313  0.6464  0.7063
  115OSM    H7S11986   5.378   2.658   7.086  0.9886  2.5080 -0.9015
  115OSM    H7T11987   5.512   2.665   6.963 -1.5642  0.1706 -0.5972
  115OSM    C8S11988   5.573   2.625   7.162  0.2825 -0.3988  0.1607
  115OSM    H8S11989   5.611   2.729   7.174  1.5730 -0.9274  0.8587
  115OSM    H8T11990   5.660   2.559   7.140  0.7870 -0.0712  1.1089
  115OSM    C9S11991   5.515   2.596   7.303 -0.2275 -0.2374  0.2554
  115OSM    H9S11992   5.453   2.504   7.309  0.1846 -0.4606  1.3196
  115OSM    H9T11993   5.455   2.688   7.321 -2.3030 -1.4161 -0.2413
  115OSM   C10S11994   5.621   2.606   7.412 -0.2061 -0.2972  0.4376
  115OSM   H10S11995   5.684   2.692   7.380  1.2087 -0.8277  1.6777
  115OSM   H10T11996   5.684   2.515   7.417 -0.1795 -0.3948 -1.3035
  115OSM   C11S11997   5.571   2.635   7.547 -0.5791 -0.2348 -0.0538
  115OSM   H11S11998   5.506   2.551   7.578 -0.7156  0.2059  0.8791
  115OSM   H11T11999   5.511   2.728   7.549 -1.1995 -0.5617 -1.8266
  115OSM   C12S12000   5.687   2.640   7.644  0.1764 -0.2503  0.0578
  115OSM   H12S12001   5.778   2.696   7.615  0.6752  0.2361  2.3837
  115OSM   H12T12002   5.731   2.539   7.660 -1.3619 -0.6224  2.5352
  115OSM   C13S12003   5.634   2.691   7.780  0.1619 -0.0413 -0.0490
  115OSM   H13S12004   5.534   2.645   7.797 -0.6109  1.8210  0.7329
  115OSM   H13T12005   5.614   2.801   7.781 -0.9401 -0.2070 -1.0409
  115OSM   C14S12006   5.724   2.660   7.902 -0.2373 -0.8103 -0.7225
  115OSM   H14S12007   5.806   2.735   7.900 -0.4670 -0.5085  0.4270
  115OSM   H14T12008   5.756   2.555   7.884  0.6983 -1.1029  2.1156
  115OSM   C15S12009   5.673   2.661   8.045  0.7557  0.0963  0.6069
  115OSM   H15S12010   5.588   2.590   8.057  1.0970 -0.3783  0.2714
  115OSM   H15T12011   5.639   2.765   8.063  1.2480  0.3204  0.2491
  115OSM   C16S12012   5.772   2.626   8.150 -0.4162 -0.3505  0.2986
  115OSM   H16S12013   5.853   2.702   8.147  0.1120 -0.9379 -0.6468
  115OSM   H16T12014   5.814   2.525   8.133 -0.8312 -0.5493  0.4349
  115OSM   C17S12015   5.716   2.628   8.298  0.3062 -0.1232 -0.7781
  115OSM   H17S12016   5.630   2.558   8.294  2.5596 -3.2528  0.9286
  115OSM   H17T12017   5.672   2.728   8.318 -0.1981 -0.6624  0.9658
  115OSM   C18S12018   5.824   2.585   8.402 -0.2275 -0.2561 -0.2770
  115OSM   H18S12019   5.876   2.493   8.371  1.3215 -0.1732  1.8415
  115OSM   H18T12020   5.779   2.560   8.501 -0.2055 -1.4286 -0.5543
  115OSM   H18U12021   5.900   2.664   8.420 -2.4355  1.7219  0.9490
  115OSM    C1F12022   4.993   2.653   6.709 -0.4645  0.0510 -0.0503
  115OSM     OF12023   4.909   2.560   6.709 -0.0847  0.5368 -0.3639
  115OSM    C2F12024   4.958   2.799   6.728  0.7939 -0.8839 -0.5168
  115OSM    H2F12025   4.894   2.826   6.641  0.1134 -0.9326 -0.0427
  115OSM    H2G12026   5.053   2.857   6.727  0.0165  0.4940  1.2688
  115OSM    C3F12027   4.904   2.813   6.872  1.0646 -0.0579  0.4691
  115OSM    H3F12028   4.806   2.760   6.878  0.4690  0.0729 -4.3407
  115OSM    H3G12029   4.870   2.918   6.887 -1.0347 -0.7768  1.1791
  115OSM    C4F12030   4.993   2.767   6.987  0.2788  0.2488 -0.4526
  115OSM    H4F12031   5.090   2.822   6.980  1.5978 -1.8449  0.4339
  115OSM    H4G12032   4.993   2.657   6.977 -1.5400 -0.0617  1.9991
  115OSM    C5F12033   4.933   2.792   7.128 -0.1250 -0.2219 -0.9387
  115OSM    H5F12034   4.959   2.699   7.184  0.5693 -0.2714 -1.3338
  115OSM    H5G12035   4.823   2.808   7.121 -0.2454 -0.1046  0.7442
  115OSM    C6F12036   5.003   2.913   7.202  0.5026 -0.0526  0.4122
  115OSM    H6F12037   4.959   2.919   7.304  0.0212 -1.1771  0.2841
  115OSM    H6G12038   4.963   3.004   7.152 -0.1005 -0.5935 -0.1291
  115OSM    C7F12039   5.156   2.894   7.228 -0.6053  0.5882  0.6710
  115OSM    H7F12040   5.207   2.929   7.136  0.1412 -0.7343  0.5652
  115OSM    H7G12041   5.180   2.786   7.239  3.4387  1.2114 -0.4484
  115OSM    C8F12042   5.213   2.963   7.360  0.5231 -0.9568  0.5265
  115OSM    H8F12043   5.309   2.910   7.377  0.0754 -1.9537  0.0691
  115OSM    H8G12044   5.146   2.935   7.444 -1.3532  0.9295 -0.2646
  115OSM    C9F12045   5.206   3.114   7.342 -0.8975  0.4661 -0.2320
  115OSM    H9F12046   5.133   3.144   7.265 -0.5696 -2.2066 -1.7208
  115OSM   C10F12047   5.260   3.210   7.422 -0.8546  0.1375  0.3868
  115OSM   H10F12048   5.238   3.317   7.409 -1.2221  0.2002  1.3954
  115OSM   C11F12049   5.337   3.170   7.546 -0.1947 -0.0350 -0.2522
  115OSM   H11F12050   5.392   3.260   7.580 -0.9121  0.3186 -0.0208
  115OSM   H11G12051   5.410   3.088   7.524  0.5000  0.2716  0.8559
  115OSM   C12F12052   5.247   3.120   7.659  0.5250 -0.1533  0.5488
  115OSM   H12F12053   5.189   3.031   7.627  1.8442 -0.4257 -1.2379
  115OSM   H12G12054   5.170   3.198   7.677  0.0503 -0.6282  0.6207
  115OSM   C13F12055   5.320   3.080   7.788 -0.3930  0.4028  0.0432
  115OSM   H13F12056   5.384   3.165   7.822 -0.8890  0.2834  1.3321
  115OSM   H13G12057   5.382   2.993   7.758 -1.4271 -0.2141 -0.3530
  115OSM   C14F12058   5.221   3.039   7.896 -0.2666  0.3296 -0.2481
  115OSM   H14F12059   5.171   2.943   7.870 -1.5334  0.7990  0.3983
  115OSM   H14G12060   5.142   3.116   7.888 -2.2965 -1.7838 -2.2110
  115OSM   C15F12061   5.284   3.017   8.035  0.2787 -0.3955 -0.3729
  115OSM   H15F12062   5.323   3.116   8.066 -0.0605 -0.4370  0.2075
  115OSM   H15G12063   5.359   2.935   8.033 -0.7420 -1.4929  1.6397
  115OSM   C16F12064   5.181   2.980   8.138 -0.0285  0.2810  0.0305
  115OSM   H16F12065   5.151   2.878   8.108  0.5910  0.0950  0.0221
  115OSM   H16G12066   5.092   3.045   8.133  0.1609  0.6472  1.0696
  115OSM   C17F12067   5.236   2.989   8.283  0.1974 -0.1408 -0.1122
  115OSM   H17F12068   5.261   3.093   8.312 -0.3942 -0.1079  0.2912
  115OSM   H17G12069   5.321   2.918   8.278  0.4672  0.2674 -2.8048
  115OSM   C18F12070   5.134   2.935   8.384  0.2098 -0.0577 -0.2613
  115OSM   H18F12071   5.055   3.008   8.411 -0.4883 -0.5840 -0.8623
  115OSM   H18G12072   5.188   2.897   8.473  0.2517 -0.8167 -0.6021
  115OSM   H18H12073   5.084   2.850   8.334  1.6771 -0.4158 -1.1902
  116OSM      N12074   5.131   1.000   6.088 -0.3740 -0.2461  0.8051
  116OSM    C1512075   5.075   0.877   6.019  0.1138  0.5266  0.3289
  116OSM   H15A12076   5.139   0.791   6.033 -2.2893 -1.8317 -1.9267
  116OSM   H15B12077   5.061   0.893   5.913  0.8299  1.0290  0.3056
  116OSM   H15C12078   4.988   0.825   6.057  0.6652 -0.2639  0.5535
  116OSM    C1412079   5.271   1.046   6.048  0.5317 -0.8770 -0.5175
  116OSM   H14A12080   5.341   0.970   6.079 -0.0445 -0.9131  0.7953
  116OSM   H14B12081   5.294   1.144   6.087  1.2725 -0.7729 -1.1916
  116OSM   H14C12082   5.260   1.055   5.941 -0.8420 -2.0954 -0.5084
  116OSM    C1312083   5.041   1.120   6.070  0.6609  0.5629  0.6806
  116OSM   H13A12084   5.071   1.205   6.129  0.6400  1.4853 -0.5910
  116OSM   H13B12085   4.940   1.090   6.091  1.0273 -0.8840  0.4911
  116OSM   H13C12086   5.034   1.141   5.964 -0.4821  2.6413  1.1367
  116OSM    C1212087   5.147   0.975   6.237 -0.4261  0.1281 -0.0389
  116OSM   H12A12088   5.050   0.990   6.281  0.2176  1.7588  0.9106
  116OSM   H12B12089   5.195   1.058   6.285  1.4960  0.1780 -1.9256
  116OSM    C1112090   5.225   0.847   6.288 -0.2665 -0.0447  0.0620
  116OSM   H11A12091   5.175   0.771   6.226  0.0489  0.9942 -1.5243
  116OSM   H11B12092   5.207   0.826   6.396  0.4405  0.7062  0.3374
  116OSM      P12093   5.442   0.716   6.263 -0.4128  0.0503 -0.1890
  116OSM    O1312094   5.365   0.614   6.189 -0.3595 -0.3937 -0.0665
  116OSM    O1412095   5.586   0.735   6.230 -0.3700  0.2031 -0.2178
  116OSM    O1112096   5.426   0.691   6.417  0.2309 -0.5786 -0.2728
  116OSM    O1212097   5.370   0.855   6.265  0.3898  0.3254  0.3659
  116OSM    C1S12098   5.513   0.608   6.488 -0.3501  0.4713 -0.0698
  116OSM    H1S12099   5.612   0.656   6.507  0.0268 -0.5584  0.6767
  116OSM    H1T12100   5.530   0.513   6.434 -0.8719  0.7937 -0.8163
  116OSM     NF12101   5.555   0.541   6.725  0.0657  0.8348 -0.4157
  116OSM    HNF12102   5.549   0.442   6.738 -3.1948  0.6714 -2.1165
  116OSM    C2S12103   5.446   0.574   6.629  0.3568 -0.2564 -0.2849
  116OSM    H2S12104   5.402   0.667   6.669 -0.0328 -0.0347 -1.2059
  116OSM    C3S12105   5.330   0.474   6.612  0.3098  0.2368  0.7857
  116OSM    H3S12106   5.377   0.381   6.572  0.3941  0.8510 -0.6200
  116OSM     O312107   5.225   0.521   6.519 -0.1197  0.0604  0.3319
  116OSM    HO312108   5.273   0.581   6.460 -0.1707 -2.0071 -1.9458
  116OSM    C4S12109   5.273   0.436   6.750  0.3334 -0.4173  0.4273
  116OSM    H4S12110   5.325   0.351   6.796  0.6027 -1.0852 -1.0529
  116OSM    C5S12111   5.167   0.491   6.814  0.5707 -0.0280  0.4461
  116OSM    H5S12112   5.101   0.560   6.759  0.3433 -1.2926 -0.9409
  116OSM    C6S12113   5.117   0.464   6.952 -0.4026 -0.3850  0.0957
  116OSM    H6S12114   5.192   0.393   6.994 -0.3007 -1.6716 -2.1259
  116OSM    H6T12115   5.018   0.414   6.958 -0.3527 -0.3668  1.5016
  116OSM    C7S12116   5.133   0.595   7.039 -0.2293  1.1758  0.6739
  116OSM    H7S12117   5.061   0.673   7.005  1.3145  1.4724 -2.1964
  116OSM    H7T12118   5.230   0.633   7.001 -0.4348  1.2943  0.2626
  116OSM    C8S12119   5.129   0.579   7.186 -0.1923  0.1361 -0.5174
  116OSM    H8S12120   5.210   0.513   7.222  1.0039  1.9832  0.3001
  116OSM    H8T12121   5.037   0.521   7.212 -0.8629  1.0239 -0.8427
  116OSM    C9S12122   5.132   0.712   7.261  0.5992  0.0248 -0.1331
  116OSM    H9S12123   5.060   0.775   7.206  1.5359  0.9597 -0.3296
  116OSM    H9T12124   5.227   0.766   7.241 -0.0341  0.9369 -0.6982
  116OSM   C10S12125   5.105   0.700   7.410 -0.5694  0.3800 -0.5128
  116OSM   H10S12126   5.170   0.623   7.457  0.1515  1.2616 -0.0253
  116OSM   H10T12127   5.002   0.659   7.422  0.2031 -1.3631  0.6281
  116OSM   C11S12128   5.108   0.836   7.478 -0.1048 -0.3663 -0.6612
  116OSM   H11S12129   5.045   0.908   7.421 -0.7068  0.0923  0.5648
  116OSM   H11T12130   5.210   0.881   7.473  0.0665 -0.7213 -0.4291
  116OSM   C12S12131   5.061   0.819   7.622 -0.6128 -0.5422 -0.3355
  116OSM   H12S12132   5.138   0.753   7.668 -0.7015  1.1246  2.4375
  116OSM   H12T12133   4.963   0.767   7.619 -0.6257 -0.4831 -3.2081
  116OSM   C13S12134   5.040   0.941   7.703  0.6682 -0.0688 -0.8032
  116OSM   H13S12135   5.002   0.914   7.805 -0.0544  0.1202 -1.0137
  116OSM   H13T12136   4.964   1.003   7.650  0.0477 -1.6056 -1.7662
  116OSM   C14S12137   5.163   1.035   7.725  0.1420 -0.1932  0.3284
  116OSM   H14S12138   5.228   1.029   7.635  0.2701 -0.9997  0.4653
  116OSM   H14T12139   5.233   0.985   7.795 -0.0039 -1.2913 -0.2838
  116OSM   C15S12140   5.141   1.172   7.794 -0.0365 -0.3832  0.1456
  116OSM   H15S12141   5.051   1.182   7.858 -0.4300 -2.2887 -0.0500
  116OSM   H15T12142   5.143   1.229   7.699  1.1244  0.5928  0.7350
  116OSM   C16S12143   5.256   1.220   7.883 -0.1430 -0.8584 -0.3891
  116OSM   H16S12144   5.350   1.235   7.826 -0.5094  4.0074 -0.1533
  116OSM   H16T12145   5.267   1.150   7.968 -1.1573  1.0806  1.4592
  116OSM   C17S12146   5.227   1.363   7.945 -0.3556  1.0661  0.4594
  116OSM   H17S12147   5.140   1.359   8.014 -1.6602 -0.3620 -1.1825
  116OSM   H17T12148   5.195   1.424   7.858 -2.0920 -0.3359  0.0666
  116OSM   C18S12149   5.345   1.431   8.014 -0.6709  0.1123  0.0006
  116OSM   H18S12150   5.403   1.360   8.078 -0.3950  0.7167  0.4301
  116OSM   H18T12151   5.313   1.520   8.072  0.4657  0.8570 -0.4684
  116OSM   H18U12152   5.418   1.458   7.935 -0.8640 -1.0666 -0.6050
  116OSM    C1F12153   5.640   0.624   6.779  0.1315 -0.3785 -0.2214
  116OSM     OF12154   5.648   0.739   6.742 -0.1914  0.1888  0.3741
  116OSM    C2F12155   5.736   0.565   6.884  0.4009 -0.7338 -0.0326
  116OSM    H2F12156   5.840   0.578   6.848  1.1729  0.0281  2.3317
  116OSM    H2G12157   5.723   0.455   6.881 -0.8140 -0.5976 -0.3981
  116OSM    C3F12158   5.692   0.611   7.022  0.2022  0.4598 -0.6359
  116OSM    H3F12159   5.665   0.718   7.015 -1.3527  0.2403  1.0329
  116OSM    H3G12160   5.769   0.607   7.101 -0.8332  0.5481  0.4122
  116OSM    C4F12161   5.584   0.520   7.082  0.0927 -0.1545  0.2317
  116OSM    H4F12162   5.639   0.431   7.120  2.7537  0.3415 -2.1622
  116OSM    H4G12163   5.512   0.493   7.002  1.4965  0.9106 -1.4511
  116OSM    C5F12164   5.506   0.595   7.195 -0.4979 -0.0474  1.4091
  116OSM    H5F12165   5.418   0.534   7.222  0.3933 -0.8755  2.5186
  116OSM    H5G12166   5.464   0.690   7.155  2.5945  0.5373 -0.8858
  116OSM    C6F12167   5.580   0.620   7.326  0.5124  0.1539 -0.0917
  116OSM    H6F12168   5.676   0.677   7.321  0.4408  0.4712  1.5910
  116OSM    H6G12169   5.603   0.519   7.366 -1.5351 -0.6754 -0.9064
  116OSM    C7F12170   5.495   0.694   7.434 -0.0057  0.4073  0.1778
  116OSM    H7F12171   5.388   0.669   7.417  0.3065 -1.5397  0.8191
  116OSM    H7G12172   5.510   0.803   7.420  1.1097  0.3289  0.6993
  116OSM    C8F12173   5.508   0.642   7.580  0.3632  0.1191 -0.0781
  116OSM    H8F12174   5.524   0.532   7.584 -0.8262 -0.0632 -0.1609
  116OSM    H8G12175   5.416   0.652   7.641  0.8529  0.1982  0.6692
  116OSM    C9F12176   5.618   0.716   7.654 -0.0503 -0.0150  0.1498
  116OSM    H9F12177   5.720   0.691   7.624 -0.2107 -0.0045 -0.4234
  116OSM   C10F12178   5.594   0.790   7.763 -0.9990  0.3363 -0.3053
  116OSM   H10F12179   5.683   0.822   7.820 -1.7820  0.4881  0.8632
  116OSM   C11F12180   5.472   0.827   7.842 -0.0161 -0.0701  0.4133
  116OSM   H11F12181   5.391   0.850   7.770  1.0909 -1.6704 -1.4603
  116OSM   H11G12182   5.503   0.917   7.899  0.2143 -0.3797  0.7825
  116OSM   C12F12183   5.437   0.712   7.937  0.1541 -0.3177 -0.0701
  116OSM   H12F12184   5.504   0.696   8.024  0.1406 -2.7831 -0.4325
  116OSM   H12G12185   5.427   0.616   7.881 -0.5896  1.2014 -2.6889
  116OSM   C13F12186   5.298   0.728   7.994  0.1967 -0.1912 -0.0115
  116OSM   H13F12187   5.276   0.645   8.065  1.1250 -0.7672 -0.3701
  116OSM   H13G12188   5.220   0.733   7.914 -1.3852 -0.4435  1.4450
  116OSM   C14F12189   5.299   0.858   8.079  0.0495  0.6356 -0.0512
  116OSM   H14F12190   5.335   0.943   8.017  0.6775 -0.3456 -1.0681
  116OSM   H14G12191   5.372   0.843   8.161  0.4555 -0.6931 -0.6242
  116OSM   C15F12192   5.161   0.888   8.131 -0.6148  0.3574  0.0525
  116OSM   H15F12193   5.143   0.809   8.207 -1.4471  0.4557 -0.0349
  116OSM   H15G12194   5.088   0.869   8.050 -1.2522  1.4277  0.3595
  116OSM   C16F12195   5.126   1.019   8.197 -0.1597 -0.0116  0.6381
  116OSM   H16F12196   5.020   1.008   8.225  0.2677 -2.5960  1.5223
  116OSM   H16G12197   5.140   1.097   8.119 -1.6858 -1.0876 -0.7794
  116OSM   C17F12198   5.211   1.049   8.324  0.1491  0.9360 -0.6669
  116OSM   H17F12199   5.179   1.146   8.368 -3.0123 -0.0448 -0.5762
  116OSM   H17G12200   5.315   1.058   8.285  0.1632 -1.3499 -1.2530
  116OSM   C18F12201   5.212   0.950   8.429 -0.5168  0.6925  0.0072
  116OSM   H18F12202   5.128   0.944   8.501 -0.4975  0.5954  0.0228
  116OSM   H18G12203   5.298   0.978   8.494  0.1743 -0.6541 -0.2702
  116OSM   H18H12204   5.234   0.846   8.394 -1.6232  0.3807  0.1936
  117OSM      N12205   2.729   3.496   6.484  0.0590  0.3746 -0.3933
  117OSM    C1512206   2.725   3.559   6.608  0.4890 -0.2148 -0.6926
  117OSM   H15A12207   2.823   3.572   6.650  1.0094 -1.5730 -1.4275
  117OSM   H15B12208   2.683   3.494   6.683  1.4128 -0.2621 -0.2025
  117OSM   H15C12209   2.664   3.648   6.610 -2.4519 -2.0800 -0.4636
  117OSM    C1412210   2.591   3.448   6.442 -0.1550 -0.2101  0.8052
  117OSM   H14A12211   2.524   3.531   6.430  2.1269  1.6865  0.3034
  117OSM   H14B12212   2.554   3.376   6.513 -0.3796 -0.2163  0.6811
  117OSM   H14C12213   2.599   3.404   6.343 -0.4880  0.8183  0.3093
  117OSM    C1312214   2.771   3.589   6.370 -0.2674  0.0266 -0.3931
  117OSM   H13A12215   2.705   3.674   6.359  1.2275  1.1531 -1.0094
  117OSM   H13B12216   2.774   3.526   6.282  0.7177 -2.7935  1.5147
  117OSM   H13C12217   2.872   3.623   6.384  0.5063 -2.3719  0.3906
  117OSM    C1212218   2.823   3.375   6.487 -0.2859  0.4149 -0.4984
  117OSM   H12A12219   2.924   3.415   6.484  1.2622 -3.0296  0.2324
  117OSM   H12B12220   2.814   3.316   6.397  1.4093  0.5701 -0.8169
  117OSM    C1112221   2.818   3.281   6.612 -0.0277 -0.0219 -0.3295
  117OSM   H11A12222   2.822   3.348   6.700  0.2057  1.6508 -1.5625
  117OSM   H11B12223   2.908   3.217   6.619 -0.9597 -1.3136  0.1584
  117OSM      P12224   2.673   3.071   6.523 -0.2819 -0.4067  0.4483
  117OSM    O1312225   2.531   3.072   6.479  0.4226  0.4668  0.2406
  117OSM    O1412226   2.773   3.064   6.412 -0.3622  0.3118  0.3601
  117OSM    O1112227   2.688   2.957   6.623 -0.6085  0.0629  0.1482
  117OSM    O1212228   2.696   3.209   6.605  0.0811 -0.4747  0.2643
  117OSM    C1S12229   2.802   2.923   6.712  0.0056  0.7044  0.5588
  117OSM    H1S12230   2.901   2.969   6.690  0.5853 -1.2414 -1.1653
  117OSM    H1T12231   2.828   2.816   6.701 -0.9308  0.6789 -2.0201
  117OSM     NF12232   2.888   2.960   6.940 -0.0755 -0.1783  0.3195
  117OSM    HNF12233   2.921   2.872   6.975  0.9509 -0.0951 -0.3733
  117OSM    C2S12234   2.768   2.945   6.860 -0.0210 -0.0370  1.1177
  117OSM    H2S12235   2.720   3.045   6.862 -0.0550  0.0421 -0.9722
  117OSM    C3S12236   2.658   2.843   6.907  0.0008 -0.5381  0.0052
  117OSM    H3S12237   2.692   2.740   6.884  0.2326 -0.0775 -1.8154
  117OSM     O312238   2.547   2.846   6.821 -0.0064  0.1497  0.1209
  117OSM    HO312239   2.576   2.898   6.744  0.2118 -1.4638 -0.9339
  117OSM    C4S12240   2.618   2.853   7.051  0.0484  0.0428 -0.3977
  117OSM    H4S12241   2.566   2.948   7.067  2.1084  1.1528  0.0512
  117OSM    C5S12242   2.636   2.753   7.137 -0.4798  0.5836 -0.1104
  117OSM    H5S12243   2.687   2.664   7.099 -2.7087 -1.0940  0.6297
  117OSM    C6S12244   2.612   2.775   7.281 -0.1153  0.1243  0.0709
  117OSM    H6S12245   2.590   2.677   7.329  0.0996  0.6333  1.2364
  117OSM    H6T12246   2.526   2.843   7.297  1.2245  1.6978  0.9633
  117OSM    C7S12247   2.716   2.865   7.360  0.1842  0.4685  0.0766
  117OSM    H7S12248   2.735   2.956   7.300 -0.1811  0.4400 -0.0856
  117OSM    H7T12249   2.807   2.801   7.367  1.5371  2.4482  1.3819
  117OSM    C8S12250   2.668   2.911   7.504 -0.2029 -0.7961  0.2852
  117OSM    H8S12251   2.633   2.826   7.565  0.4151 -1.6185 -0.4695
  117OSM    H8T12252   2.587   2.986   7.496 -0.4860 -1.2000 -0.9558
  117OSM    C9S12253   2.788   2.977   7.577  0.5986 -0.1140  0.6121
  117OSM    H9S12254   2.803   3.070   7.517 -0.4368 -0.0737  0.3879
  117OSM    H9T12255   2.877   2.912   7.566  0.5096 -0.4521  1.8122
  117OSM   C10S12256   2.755   3.021   7.719  1.3937  0.3869  0.0284
  117OSM   H10S12257   2.668   3.089   7.713  1.2416  0.0738 -1.5961
  117OSM   H10T12258   2.821   3.098   7.763  0.6900  1.6100 -1.0077
  117OSM   C11S12259   2.738   2.898   7.821 -0.0510 -0.6640 -0.0047
  117OSM   H11S12260   2.843   2.865   7.836  0.6051  1.2862 -0.1017
  117OSM   H11T12261   2.671   2.818   7.782 -1.5571  0.4001  0.2936
  117OSM   C12S12262   2.694   2.949   7.958 -0.6444 -0.3669  0.1317
  117OSM   H12S12263   2.596   3.002   7.949 -0.7698 -0.8718 -1.9336
  117OSM   H12T12264   2.766   3.022   8.000 -1.3750  1.5452 -1.7499
  117OSM   C13S12265   2.671   2.840   8.065 -0.5241  0.6059 -0.0349
  117OSM   H13S12266   2.750   2.766   8.040 -0.6036  0.2011  0.8947
  117OSM   H13T12267   2.567   2.802   8.053 -0.7340  1.2135 -0.1803
  117OSM   C14S12268   2.692   2.893   8.208  0.5074 -0.0463  0.1736
  117OSM   H14S12269   2.744   2.991   8.214  0.6678 -0.2006  1.7333
  117OSM   H14T12270   2.755   2.825   8.269  1.5264  1.1056  0.4583
  117OSM   C15S12271   2.564   2.909   8.289  0.1916 -0.0352 -0.9092
  117OSM   H15S12272   2.515   2.813   8.317 -3.0174  2.0760  1.4882
  117OSM   H15T12273   2.480   2.970   8.248  0.0145  1.0308  0.9254
  117OSM   C16S12274   2.595   2.966   8.427  0.4490 -0.6852  0.0800
  117OSM   H16S12275   2.633   3.070   8.417 -0.8659 -0.0817  1.0255
  117OSM   H16T12276   2.673   2.908   8.480  0.6307 -1.6207 -1.1518
  117OSM   C17S12277   2.481   2.990   8.522 -0.4600 -0.1438  0.0963
  117OSM   H17S12278   2.427   2.894   8.530 -2.9649  1.0402 -1.1971
  117OSM   H17T12279   2.403   3.049   8.469 -0.2619 -0.5744 -0.6892
  117OSM   C18S12280   2.521   3.045   8.654 -0.4199 -0.4561  0.0924
  117OSM   H18S12281   2.615   2.997   8.688 -0.7847 -0.3689  1.2448
  117OSM   H18T12282   2.443   3.027   8.731  0.5391  0.2425  1.2597
  117OSM   H18U12283   2.537   3.155   8.657 -1.0900 -0.3722  2.4209
  117OSM    C1F12284   2.941   3.086   6.967  0.3632  0.7397  0.8173
  117OSM     OF12285   2.883   3.190   6.959  0.5309  0.3639 -0.0037
  117OSM    C2F12286   3.081   3.085   7.014 -0.0466 -0.0937 -0.3628
  117OSM    H2F12287   3.148   3.139   6.945 -2.0958  1.7068 -1.0546
  117OSM    H2G12288   3.115   2.980   7.024  1.2923  0.2876 -0.6426
  117OSM    C3F12289   3.095   3.150   7.150  0.2774 -0.5786 -0.0248
  117OSM    H3F12290   3.064   3.256   7.147 -0.1336 -0.6991 -0.1058
  117OSM    H3G12291   3.201   3.170   7.178 -0.3612  2.9687  0.2889
  117OSM    C4F12292   3.031   3.068   7.266 -0.0698 -0.2843 -0.4900
  117OSM    H4F12293   3.074   2.965   7.267 -0.6770 -0.5429 -0.4336
  117OSM    H4G12294   2.923   3.042   7.265 -0.4998  1.3574  0.0102
  117OSM    C5F12295   3.054   3.129   7.406  0.2027 -0.1702 -0.2676
  117OSM    H5F12296   3.002   3.068   7.482  0.0537  1.8464  1.3355
  117OSM    H5G12297   3.005   3.229   7.401 -0.3601 -0.4842 -1.7141
  117OSM    C6F12298   3.201   3.135   7.455  0.8521  0.0238 -0.6807
  117OSM    H6F12299   3.269   3.189   7.386  1.7743 -0.4711 -0.1824
  117OSM    H6G12300   3.240   3.031   7.460  0.2854 -0.2912 -2.2612
  117OSM    C7F12301   3.204   3.194   7.598 -0.7949 -0.4481  0.4126
  117OSM    H7F12302   3.137   3.140   7.667 -1.9678  1.5118  0.8952
  117OSM    H7G12303   3.157   3.295   7.597 -0.1794 -0.1516  0.1236
  117OSM    C8F12304   3.343   3.198   7.651 -0.0141 -0.8417 -0.5790
  117OSM    H8F12305   3.352   3.277   7.728  0.5984 -1.5942  0.1233
  117OSM    H8G12306   3.414   3.237   7.575  0.7565 -0.2100  0.4435
  117OSM    C9F12307   3.382   3.063   7.708  1.1238  0.1170 -0.3771
  117OSM    H9F12308   3.355   2.979   7.641 -0.5270 -0.6763  1.2023
  117OSM   C10F12309   3.448   3.044   7.822 -0.1567  0.8865  0.6006
  117OSM   H10F12310   3.473   2.943   7.856  0.7531  1.2012  0.8871
  117OSM   C11F12311   3.504   3.146   7.917  0.1474 -0.0904 -0.5001
  117OSM   H11F12312   3.502   3.250   7.877 -1.9175  1.1371  2.4213
  117OSM   H11G12313   3.612   3.119   7.919  0.0902 -0.4261 -1.5165
  117OSM   C12F12314   3.441   3.126   8.057  0.0452  0.0217  0.0461
  117OSM   H12F12315   3.464   3.024   8.094 -1.0751 -0.3861 -0.3401
  117OSM   H12G12316   3.330   3.122   8.050 -0.0640 -3.7052  1.5043
  117OSM   C13F12317   3.488   3.227   8.167 -0.4288 -0.5682  0.3326
  117OSM   H13F12318   3.468   3.330   8.130 -0.6066 -0.7552 -0.0891
  117OSM   H13G12319   3.599   3.221   8.164  0.1528  4.8917 -2.3239
  117OSM   C14F12320   3.441   3.207   8.310  0.4698 -0.2610 -0.0458
  117OSM   H14F12321   3.472   3.108   8.351  0.9058 -0.0123  0.2303
  117OSM   H14G12322   3.330   3.208   8.311  0.3172 -2.3755 -2.7968
  117OSM   C15F12323   3.486   3.320   8.402 -0.1257 -0.5418 -0.3162
  117OSM   H15F12324   3.464   3.408   8.337  0.2767 -0.2830 -0.1070
  117OSM   H15G12325   3.596   3.320   8.416 -0.2273 -2.3729  0.7899
  117OSM   C16F12326   3.414   3.326   8.533 -0.6611  0.0105  0.0286
  117OSM   H16F12327   3.408   3.221   8.569  0.6737  0.1681  0.7840
  117OSM   H16G12328   3.307   3.355   8.526 -0.3618  1.7122  1.5713
  117OSM   C17F12329   3.467   3.425   8.639 -0.0431  0.7558  0.1388
  117OSM   H17F12330   3.500   3.518   8.589  0.9983  0.4529  0.2389
  117OSM   H17G12331   3.375   3.443   8.698  0.0325 -1.5966  1.1018
  117OSM   C18F12332   3.569   3.368   8.736  1.0824  0.2603 -0.5063
  117OSM   H18F12333   3.538   3.271   8.779  0.7674  0.2174 -0.8178
  117OSM   H18G12334   3.579   3.434   8.825  1.9193  1.2841 -1.3223
  117OSM   H18H12335   3.671   3.363   8.692  1.2392  2.2405 -0.4607
  118OSM      N12336   4.762   5.055   6.562 -0.8750  0.7634 -0.4374
  118OSM    C1512337   4.766   5.180   6.643  0.4792  0.0682 -0.5927
  118OSM   H15A12338   4.702   5.256   6.601  1.7860  0.4221 -2.0332
  118OSM   H15B12339   4.869   5.211   6.638  0.0397  2.0128  1.0812
  118OSM   H15C12340   4.724   5.160   6.741 -1.8172  0.5451 -1.4278
  118OSM    C1412341   4.830   4.938   6.634 -0.0776 -0.5454 -0.8060
  118OSM   H14A12342   4.809   4.846   6.580 -3.0591  0.8094 -2.1836
  118OSM   H14B12343   4.770   4.924   6.723 -1.5928 -1.0418 -1.8681
  118OSM   H14C12344   4.932   4.965   6.656 -0.4962  0.8081 -0.4247
  118OSM    C1312345   4.622   5.016   6.532 -1.2882 -0.4913  0.4863
  118OSM   H13A12346   4.610   4.932   6.465 -0.5345  1.4914 -2.3124
  118OSM   H13B12347   4.560   5.095   6.493 -1.8394 -1.4397 -0.5976
  118OSM   H13C12348   4.568   4.995   6.623 -4.0742  1.0418 -0.7156
  118OSM    C1212349   4.841   5.077   6.436 -0.6247  0.7784  0.4943
  118OSM   H12A12350   4.788   5.157   6.387 -2.3824  0.5239  1.8836
  118OSM   H12B12351   4.834   4.984   6.381 -1.1569  1.1848 -0.1275
  118OSM    C1112352   4.990   5.127   6.443  0.1399  0.3313  0.4109
  118OSM   H11A12353   5.032   5.138   6.341 -2.4457 -1.5835 -0.9644
  118OSM   H11B12354   5.048   5.045   6.492 -1.1468 -1.9248 -1.6379
  118OSM      P12355   5.130   5.282   6.588 -0.2347  0.0109 -0.2005
  118OSM    O1312356   5.259   5.255   6.511 -0.0808 -0.3160  1.0518
  118OSM    O1412357   5.123   5.426   6.626 -0.3074 -0.1634  0.0956
  118OSM    O1112358   5.111   5.182   6.707 -0.0151 -0.1324  0.4041
  118OSM    O1212359   5.006   5.248   6.506  0.6642 -0.4057 -0.1840
  118OSM    C1S12360   5.196   5.071   6.729  0.4392 -0.4966 -0.0439
  118OSM    H1S12361   5.300   5.083   6.692 -0.1082  0.3320 -1.3829
  118OSM    H1T12362   5.149   4.984   6.679 -2.4216  1.2949 -0.7190
  118OSM     NF12363   5.288   4.920   6.909  0.4021 -0.3983  0.0533
  118OSM    HNF12364   5.251   4.828   6.921  1.8759 -0.8934  1.1382
  118OSM    C2S12365   5.196   5.026   6.884  0.2517 -0.7272  0.0034
  118OSM    H2S12366   5.222   5.115   6.946  0.2078  0.0197 -1.0313
  118OSM    C3S12367   5.045   4.999   6.934  0.2551  0.4524 -0.1538
  118OSM    H3S12368   5.015   4.903   6.887 -0.6163  0.3820  0.5259
  118OSM     O312369   4.958   5.100   6.897 -0.0698 -0.3478 -0.5871
  118OSM    HO312370   5.008   5.160   6.841  0.0934 -0.4208 -0.5205
  118OSM    C4S12371   5.040   4.985   7.084  0.2847  0.2405  0.4601
  118OSM    H4S12372   5.014   5.071   7.148  1.7036  0.9140  0.1543
  118OSM    C5S12373   5.048   4.861   7.135  0.4753  0.8959 -0.6774
  118OSM    H5S12374   5.057   4.778   7.063  1.0890 -0.6958  1.1413
  118OSM    C6S12375   5.035   4.826   7.282 -0.8232  0.2494  0.2182
  118OSM    H6S12376   4.975   4.733   7.294  1.5756 -1.2605  1.3141
  118OSM    H6T12377   4.980   4.894   7.349 -1.0785 -2.4186  2.9355
  118OSM    C7S12378   5.172   4.811   7.349 -1.0192 -0.1488 -0.8350
  118OSM    H7S12379   5.220   4.910   7.355  0.2842 -0.8583  1.8838
  118OSM    H7T12380   5.243   4.748   7.290  0.7767  2.4478 -1.6014
  118OSM    C8S12381   5.152   4.749   7.490  0.2583  0.4489 -0.0444
  118OSM    H8S12382   5.096   4.658   7.462  0.2825 -0.3898  2.3812
  118OSM    H8T12383   5.089   4.819   7.550 -0.2181 -0.2642  0.3007
  118OSM    C9S12384   5.289   4.729   7.562 -0.1797  0.0258 -0.6631
  118OSM    H9S12385   5.361   4.813   7.566 -0.7485  0.4955 -0.1208
  118OSM    H9T12386   5.339   4.642   7.514 -0.1363  0.4462 -1.3934
  118OSM   C10S12387   5.279   4.685   7.710  0.2991  0.1574  0.1667
  118OSM   H10S12388   5.362   4.613   7.728 -0.3267 -1.1348 -1.7929
  118OSM   H10T12389   5.186   4.629   7.732 -0.2647  0.9352 -0.1964
  118OSM   C11S12390   5.278   4.809   7.805 -0.9276  0.9806  0.0426
  118OSM   H11S12391   5.194   4.877   7.782 -1.5916 -0.1500 -0.9973
  118OSM   H11T12392   5.367   4.867   7.772 -0.8259 -0.1173 -1.7483
  118OSM   C12S12393   5.287   4.774   7.951 -0.4783  1.0476 -0.7948
  118OSM   H12S12394   5.373   4.704   7.964 -1.1876  0.2349 -0.3591
  118OSM   H12T12395   5.197   4.715   7.979  1.4926 -2.2241 -0.7951
  118OSM   C13S12396   5.300   4.902   8.032  0.2000 -0.2216  0.5793
  118OSM   H13S12397   5.213   4.968   8.013 -0.2043 -0.8507  0.2256
  118OSM   H13T12398   5.390   4.950   7.988 -0.0742 -0.0802  0.1682
  118OSM   C14S12399   5.331   4.879   8.182  0.4185 -0.7958 -0.8004
  118OSM   H14S12400   5.420   4.813   8.192 -0.5493 -2.2269 -1.2344
  118OSM   H14T12401   5.249   4.822   8.232  0.8120  0.1951  1.0400
  118OSM   C15S12402   5.380   5.008   8.246 -0.7715 -0.5838 -0.3180
  118OSM   H15S12403   5.296   5.080   8.243  0.6975  1.2435  0.4163
  118OSM   H15T12404   5.461   5.055   8.186  0.3711  0.8208  2.1697
  118OSM   C16S12405   5.428   4.984   8.395 -0.6893 -0.2365 -0.1187
  118OSM   H16S12406   5.462   5.081   8.436 -0.6965 -0.5281  0.5948
  118OSM   H16T12407   5.528   4.935   8.389 -0.9734 -0.8144 -0.2026
  118OSM   C17S12408   5.326   4.916   8.486  0.1647  0.2403 -0.1269
  118OSM   H17S12409   5.269   4.835   8.434  1.3500  1.4063 -3.5707
  118OSM   H17T12410   5.243   4.983   8.515  0.5357  0.8709 -0.4973
  118OSM   C18S12411   5.388   4.873   8.625 -0.6934  0.6751 -0.1899
  118OSM   H18S12412   5.463   4.798   8.592 -1.8289  0.5119 -2.5927
  118OSM   H18T12413   5.311   4.830   8.692 -0.8399  1.0981 -0.0811
  118OSM   H18U12414   5.445   4.955   8.674 -1.4932 -0.5637  3.0842
  118OSM    C1F12415   5.421   4.934   6.915  0.0218 -0.1269  0.1983
  118OSM     OF12416   5.470   5.042   6.880  0.0435 -0.3418 -0.0404
  118OSM    C2F12417   5.502   4.814   6.954 -0.3885  0.0270  0.0996
  118OSM    H2F12418   5.538   4.744   6.876 -1.6832 -1.3050  0.6598
  118OSM    H2G12419   5.432   4.749   7.012 -0.6028 -2.2593 -2.5316
  118OSM    C3F12420   5.615   4.852   7.050 -0.7698  0.5434 -0.0141
  118OSM    H3F12421   5.690   4.922   7.006  0.4192 -0.3885  0.4441
  118OSM    H3G12422   5.669   4.756   7.069 -1.0391  0.3578 -0.1847
  118OSM    C4F12423   5.579   4.895   7.189  0.1357 -0.3283  0.1546
  118OSM    H4F12424   5.481   4.847   7.209 -0.1364  0.2592  0.2705
  118OSM    H4G12425   5.564   5.004   7.205  0.2600 -0.5505  1.9858
  118OSM    C5F12426   5.677   4.856   7.301  0.2494  0.1922 -0.1052
  118OSM    H5F12427   5.777   4.892   7.269  0.3719  0.6243  0.7161
  118OSM    H5G12428   5.682   4.746   7.314  0.4326 -0.0429 -1.9283
  118OSM    C6F12429   5.648   4.933   7.433 -0.7764 -0.1252  0.3969
  118OSM    H6F12430   5.550   4.903   7.474 -0.8197 -0.8377 -0.2112
  118OSM    H6G12431   5.629   5.038   7.402 -2.3797 -0.8556 -1.2632
  118OSM    C7F12432   5.754   4.920   7.543  0.1540  0.0548  0.0799
  118OSM    H7F12433   5.854   4.946   7.501  0.0427  0.4399  0.0424
  118OSM    H7G12434   5.768   4.815   7.577  0.5551 -0.2829 -1.0823
  118OSM    C8F12435   5.735   5.015   7.668 -0.0124  0.0658 -0.1795
  118OSM    H8F12436   5.695   5.113   7.634 -0.5348  0.5615  1.7326
  118OSM    H8G12437   5.837   5.042   7.704  0.4145 -2.2468  0.4876
  118OSM    C9F12438   5.635   4.968   7.769  0.2412 -0.7678  0.0048
  118OSM    H9F12439   5.529   4.962   7.742  0.4666 -4.2266 -0.5541
  118OSM   C10F12440   5.679   4.897   7.875 -0.3326  0.3430 -0.6180
  118OSM   H10F12441   5.604   4.870   7.951  0.9870  0.2132  0.6954
  118OSM   C11F12442   5.824   4.876   7.918 -0.3643 -0.2383  1.3407
  118OSM   H11F12443   5.886   4.967   7.903 -0.0054 -0.3934  1.8632
  118OSM   H11G12444   5.865   4.796   7.852 -1.3584  1.4057 -1.4499
  118OSM   C12F12445   5.830   4.816   8.061 -0.0188 -0.1852  0.0286
  118OSM   H12F12446   5.938   4.809   8.087  0.8133 -2.2518 -3.2986
  118OSM   H12G12447   5.781   4.717   8.065 -1.4363  0.4231 -1.3626
  118OSM   C13F12448   5.776   4.917   8.164  0.7890  0.3299 -1.1469
  118OSM   H13F12449   5.666   4.934   8.166  0.5516 -1.1488 -0.0859
  118OSM   H13G12450   5.829   5.014   8.158 -1.7092  2.0798  1.9523
  118OSM   C14F12451   5.818   4.873   8.305  0.6754  0.7636 -0.8756
  118OSM   H14F12452   5.803   4.958   8.375  1.4540 -0.8992  1.4412
  118OSM   H14G12453   5.926   4.850   8.310  0.7004 -0.0692 -3.7694
  118OSM   C15F12454   5.747   4.752   8.362 -0.0517 -0.5084 -0.1302
  118OSM   H15F12455   5.798   4.662   8.323  2.6436  0.4738  0.9262
  118OSM   H15G12456   5.641   4.744   8.330  0.1717  2.1672 -1.9100
  118OSM   C16F12457   5.763   4.732   8.515 -0.5444 -0.2003 -0.6227
  118OSM   H16F12458   5.707   4.799   8.584  1.5229  1.5554 -0.5547
  118OSM   H16G12459   5.869   4.761   8.531 -0.4017 -0.0998 -1.7108
  118OSM   C17F12460   5.731   4.590   8.558  0.4439 -0.4822  0.0221
  118OSM   H17F12461   5.783   4.518   8.492  0.0485  0.6143 -1.5283
  118OSM   H17G12462   5.626   4.579   8.524  0.0192  2.0062  0.3589
  118OSM   C18F12463   5.748   4.554   8.707 -0.0574  0.9212 -0.7447
  118OSM   H18F12464   5.676   4.604   8.775  1.1493  0.2626  1.1045
  118OSM   H18G12465   5.846   4.595   8.740  0.3097  0.2664 -1.0030
  118OSM   H18H12466   5.732   4.446   8.728  2.2874  1.0496  2.6138
  119OSM      N12467   5.424   3.510   5.677 -0.4206  0.5157  0.5236
  119OSM    C1512468   5.433   3.370   5.618 -0.5173 -0.3163  0.2531
  119OSM   H15A12469   5.511   3.370   5.543 -1.4260  1.4870 -0.7564
  119OSM   H15B12470   5.336   3.343   5.578 -0.8696 -1.5221  1.8383
  119OSM   H15C12471   5.460   3.297   5.693  0.2230 -0.8556 -0.5101
  119OSM    C1412472   5.363   3.601   5.575  0.4975  0.7695 -0.7407
  119OSM   H14A12473   5.277   3.540   5.552  1.0033 -0.7709  1.1171
  119OSM   H14B12474   5.418   3.613   5.484 -0.3576 -0.8047 -1.5057
  119OSM   H14C12475   5.334   3.694   5.622  1.4584 -0.0231  1.5603
  119OSM    C1312476   5.318   3.510   5.783  0.1939 -0.8859 -0.1189
  119OSM   H13A12477   5.222   3.478   5.745  1.0738 -1.4416 -1.9782
  119OSM   H13B12478   5.310   3.610   5.824 -1.4916 -0.3446 -1.6374
  119OSM   H13C12479   5.340   3.460   5.876 -1.1457 -0.6629  0.3281
  119OSM    C1212480   5.555   3.577   5.717  0.6911  0.1361  0.5088
  119OSM   H12A12481   5.532   3.683   5.718 -2.3801 -0.4030 -0.7674
  119OSM   H12B12482   5.628   3.576   5.638  1.0784  0.7424  0.8514
  119OSM    C1112483   5.615   3.535   5.848  0.0632 -0.6488 -0.4141
  119OSM   H11A12484   5.720   3.562   5.874 -0.3236  0.3025  0.1873
  119OSM   H11B12485   5.636   3.425   5.848 -0.0883 -0.7053  1.3158
  119OSM      P12486   5.542   3.710   6.006  0.3443  0.3369 -0.1328
  119OSM    O1312487   5.680   3.745   6.034 -0.3519  0.0064 -0.1484
  119OSM    O1412488   5.461   3.790   5.906 -0.0911  0.6363 -0.2756
  119OSM    O1112489   5.458   3.709   6.134  0.1122  0.4322  0.2489
  119OSM    O1212490   5.535   3.560   5.963  0.9130  0.6677  0.2913
  119OSM    C1S12491   5.483   3.605   6.231 -0.9642 -0.2421  0.7646
  119OSM    H1S12492   5.581   3.556   6.214  0.6392  3.4664 -2.1586
  119OSM    H1T12493   5.401   3.530   6.221 -0.5486 -0.6698  0.5746
  119OSM     NF12494   5.521   3.579   6.479  0.0267 -0.1302  0.1357
  119OSM    HNF12495   5.439   3.548   6.527  0.0411  0.0008  0.2463
  119OSM    C2S12496   5.488   3.665   6.372 -0.2677  0.1926  0.0324
  119OSM    H2S12497   5.578   3.731   6.376  0.4804 -0.8451  2.3999
  119OSM    C3S12498   5.354   3.746   6.396  0.5488 -0.0112 -0.5154
  119OSM    H3S12499   5.273   3.670   6.400 -0.0856  0.7054  0.8488
  119OSM     O312500   5.308   3.833   6.297 -0.2744 -0.3352 -0.0400
  119OSM    HO312501   5.367   3.810   6.225  0.7086  0.4210  0.5037
  119OSM    C4S12502   5.363   3.835   6.522 -0.3375 -0.6789  0.0909
  119OSM    H4S12503   5.401   3.937   6.504  0.0045 -0.5745  1.2783
  119OSM    C5S12504   5.321   3.808   6.645  0.2691  0.5504  0.0609
  119OSM    H5S12505   5.271   3.711   6.663  2.6679 -1.2000 -1.9141
  119OSM    C6S12506   5.328   3.908   6.758  0.0793  0.7546 -0.1911
  119OSM    H6S12507   5.225   3.922   6.798  0.3791  0.1017  0.8546
  119OSM    H6T12508   5.353   4.007   6.712  0.8889  0.0523 -1.3146
  119OSM    C7S12509   5.434   3.866   6.856 -0.8734  0.3664 -0.4841
  119OSM    H7S12510   5.534   3.899   6.819  0.3671 -0.7542  1.6689
  119OSM    H7T12511   5.446   3.756   6.863 -0.7332  0.4676  2.1085
  119OSM    C8S12512   5.412   3.922   6.999 -0.4256 -0.2430 -0.7172
  119OSM    H8S12513   5.318   3.886   7.046  1.0148  0.2848  2.9753
  119OSM    H8T12514   5.408   4.033   6.988  1.5403 -0.2281 -1.7334
  119OSM    C9S12515   5.533   3.898   7.099 -0.2989  0.1769  1.0746
  119OSM    H9S12516   5.627   3.943   7.062  0.8862 -1.9423  1.3354
  119OSM    H9T12517   5.557   3.790   7.115  0.6336  0.3534  0.9252
  119OSM   C10S12518   5.510   3.965   7.236 -0.0724  0.4578  0.9482
  119OSM   H10S12519   5.410   3.928   7.268 -0.6608 -0.2476 -1.4545
  119OSM   H10T12520   5.508   4.074   7.215  4.4669  0.8198  1.4678
  119OSM   C11S12521   5.625   3.931   7.328 -0.4607 -0.1846 -0.7420
  119OSM   H11S12522   5.712   3.988   7.291 -0.8270  0.9567  0.0836
  119OSM   H11T12523   5.637   3.822   7.310  1.8321  0.1755 -1.6521
  119OSM   C12S12524   5.583   3.978   7.467  0.8349 -0.0821  0.1255
  119OSM   H12S12525   5.482   3.937   7.488  0.4199  1.7079  1.9237
  119OSM   H12T12526   5.563   4.087   7.476  0.5945  0.1368 -2.2945
  119OSM   C13S12527   5.690   3.926   7.570  0.6212 -0.5102  0.2216
  119OSM   H13S12528   5.791   3.941   7.525 -0.3059 -1.5070 -2.3644
  119OSM   H13T12529   5.662   3.819   7.579 -3.2479  0.4657  1.6388
  119OSM   C14S12530   5.659   3.981   7.706  0.4332 -0.0963  1.0449
  119OSM   H14S12531   5.556   3.953   7.738 -0.1949 -0.6307 -1.2409
  119OSM   H14T12532   5.675   4.090   7.704 -1.6339  0.2523  0.9056
  119OSM   C15S12533   5.753   3.932   7.811  0.0978  0.2933  1.2598
  119OSM   H15S12534   5.859   3.959   7.791  0.1740 -0.6627  0.3044
  119OSM   H15T12535   5.742   3.823   7.832  2.5962  0.1712  2.3544
  119OSM   C16S12536   5.712   3.998   7.942  0.3512  0.1037  0.0513
  119OSM   H16S12537   5.688   4.106   7.944  1.2804  0.3077  0.7826
  119OSM   H16T12538   5.804   3.986   8.003  1.1479  0.3216 -1.0799
  119OSM   C17S12539   5.592   3.931   8.006 -1.2390  0.9016  0.7998
  119OSM   H17S12540   5.610   3.821   8.006 -0.7511  0.8263 -3.3123
  119OSM   H17T12541   5.507   3.951   7.938 -0.3372  2.3361  0.0262
  119OSM   C18S12542   5.558   3.979   8.140 -0.2466 -0.0064  0.3894
  119OSM   H18S12543   5.477   3.925   8.193  0.5254 -0.8464  0.7444
  119OSM   H18T12544   5.533   4.086   8.123  1.3480  0.1022 -1.7399
  119OSM   H18U12545   5.644   3.968   8.209 -1.2180  1.0091  1.8118
  119OSM    C1F12546   5.641   3.522   6.486  0.0293  0.5046 -0.7717
  119OSM     OF12547   5.734   3.556   6.412  0.0922  0.0403 -0.0656
  119OSM    C2F12548   5.662   3.420   6.596  0.5118 -0.3588  0.1915
  119OSM    H2F12549   5.770   3.393   6.598  0.2664 -1.3685  1.8898
  119OSM    H2G12550   5.607   3.329   6.566 -0.0296  0.0702 -0.1488
  119OSM    C3F12551   5.635   3.491   6.726 -0.0263  0.2444  0.2803
  119OSM    H3F12552   5.526   3.484   6.748 -0.2415  1.4162 -0.3420
  119OSM    H3G12553   5.661   3.599   6.728  2.8705 -0.3849  0.8245
  119OSM    C4F12554   5.722   3.437   6.845  0.3008  0.0064 -0.3916
  119OSM    H4F12555   5.831   3.444   6.827  0.7016  1.3934  2.0731
  119OSM    H4G12556   5.689   3.332   6.862 -1.2063  0.3620 -0.9526
  119OSM    C5F12557   5.682   3.511   6.972  0.1175  0.6276  0.1365
  119OSM    H5F12558   5.573   3.489   6.978  0.0194  0.6387 -1.2763
  119OSM    H5G12559   5.693   3.621   6.963 -1.2834  0.6800 -1.4529
  119OSM    C6F12560   5.761   3.471   7.091  0.0593  0.2532  0.4256
  119OSM    H6F12561   5.864   3.501   7.064  0.5470 -0.9289  0.9550
  119OSM    H6G12562   5.768   3.361   7.097 -1.1231  0.1393  0.0416
  119OSM    C7F12563   5.721   3.542   7.218  0.2168  0.3705 -0.2065
  119OSM    H7F12564   5.612   3.533   7.237 -0.3931  2.7704 -2.0875
  119OSM    H7G12565   5.728   3.652   7.204 -3.4021  0.8924  1.0926
  119OSM    C8F12566   5.812   3.490   7.330  0.3022  0.0220  0.4982
  119OSM    H8F12567   5.918   3.520   7.316 -0.1197  1.7124  0.6662
  119OSM    H8G12568   5.798   3.380   7.329  2.3456 -0.3170  1.9796
  119OSM    C9F12569   5.761   3.559   7.461  0.4282  0.7309 -0.5701
  119OSM    H9F12570   5.659   3.602   7.461 -0.3664 -0.8711  2.2691
  119OSM   C10F12571   5.834   3.576   7.575  0.2158  0.5257 -0.0452
  119OSM   H10F12572   5.789   3.609   7.669  0.5695 -0.8490  0.6385
  119OSM   C11F12573   5.977   3.538   7.584  0.5625 -0.9751  0.2909
  119OSM   H11F12574   6.040   3.582   7.504  0.9923  0.5914  1.4355
  119OSM   H11G12575   5.988   3.428   7.575 -1.4897 -1.1666 -0.1932
  119OSM   C12F12576   6.041   3.577   7.715 -0.5341  0.5712  0.1824
  119OSM   H12F12577   6.031   3.687   7.708  0.2096  0.5921 -0.8599
  119OSM   H12G12578   6.149   3.553   7.710 -1.1111 -2.2186 -0.2903
  119OSM   C13F12579   5.978   3.520   7.843  0.4018  0.2511  1.3335
  119OSM   H13F12580   6.002   3.412   7.858  0.0931  0.2838  2.1097
  119OSM   H13G12581   5.868   3.533   7.837  0.2197 -1.4345  0.3532
  119OSM   C14F12582   6.028   3.596   7.967 -0.4096 -0.4355 -0.7556
  119OSM   H14F12583   5.993   3.700   7.952 -0.9461  0.3621  4.3651
  119OSM   H14G12584   6.139   3.600   7.974 -0.0916  0.4116 -4.3414
  119OSM   C15F12585   5.953   3.563   8.093  0.5397  0.3759 -0.2999
  119OSM   H15F12586   5.956   3.454   8.116 -1.0231  0.1189 -1.1772
  119OSM   H15G12587   5.844   3.574   8.077  0.0496 -0.0777  2.3466
  119OSM   C16F12588   5.989   3.643   8.223 -0.4520  0.2669  0.0466
  119OSM   H16F12589   6.098   3.663   8.227 -0.3878  0.7959 -2.4405
  119OSM   H16G12590   5.965   3.590   8.317  1.4033  1.1660  1.0884
  119OSM   C17F12591   5.897   3.773   8.243 -0.2705 -0.0141  0.5004
  119OSM   H17F12592   5.896   3.792   8.353  0.6435 -0.3748  0.5767
  119OSM   H17G12593   5.798   3.760   8.194 -0.4235  1.3031  0.4436
  119OSM   C18F12594   5.961   3.894   8.174  0.1477  0.1123 -0.6012
  119OSM   H18F12595   5.908   3.989   8.195  1.9291  0.7622  1.3020
  119OSM   H18G12596   5.957   3.878   8.064  0.0578  0.4797 -0.6527
  119OSM   H18H12597   6.066   3.902   8.209 -0.6462  0.8239  1.7467
  120OSM      N12598   3.575   0.621   6.200  0.2536 -0.1641 -0.0379
  120OSM    C1512599   3.702   0.559   6.141  0.2169 -0.0804 -0.4787
  120OSM   H15A12600   3.770   0.634   6.102  1.9216  0.6225  3.3939
  120OSM   H15B12601   3.678   0.495   6.057  0.7258  0.4382 -1.0321
  120OSM   H15C12602   3.757   0.503   6.215 -0.6857  0.0154  0.2922
  120OSM    C1412603   3.506   0.699   6.095  0.4181  0.2017 -0.2907
  120OSM   H14A12604   3.475   0.653   6.002 -1.6471 -0.1221  0.5051
  120OSM   H14B12605   3.557   0.791   6.070  0.4654 -0.1096 -1.3986
  120OSM   H14C12606   3.406   0.733   6.118 -0.5692 -1.2486 -2.1701
  120OSM    C1312607   3.489   0.508   6.233  0.8076  0.1412  0.8166
  120OSM   H13A12608   3.472   0.447   6.146  0.4934 -0.7317  1.4727
  120OSM   H13B12609   3.394   0.542   6.272  1.3595  1.8477  0.7701
  120OSM   H13C12610   3.536   0.439   6.300 -0.2048 -2.0309 -0.6037
  120OSM    C1212611   3.601   0.699   6.330 -0.2832  0.2724 -0.0167
  120OSM   H12A12612   3.663   0.636   6.392  2.5542 -0.2900 -3.1879
  120OSM   H12B12613   3.505   0.717   6.378  0.5935  1.9831  1.1980
  120OSM    C1112614   3.685   0.833   6.335  0.9538 -0.4936 -0.2762
  120OSM   H11A12615   3.688   0.863   6.442  1.1692  0.1172 -0.4501
  120OSM   H11B12616   3.628   0.907   6.275  1.5176 -1.0848 -1.5842
  120OSM      P12617   3.954   0.808   6.316  0.2798 -0.1060 -0.3021
  120OSM    O1312618   4.040   0.733   6.220 -0.6326 -0.0446  0.2738
  120OSM    O1412619   4.001   0.951   6.349  0.2814  0.2586 -0.6695
  120OSM    O1112620   3.931   0.725   6.447  0.4593  0.3551 -0.1521
  120OSM    O1212621   3.812   0.825   6.268 -0.2009  0.3421  0.4444
  120OSM    C1S12622   4.030   0.661   6.519  0.8970  0.4835  0.5426
  120OSM    H1S12623   4.087   0.731   6.585 -0.7831  1.5090  0.9481
  120OSM    H1T12624   4.092   0.591   6.459  2.1420  0.5841  1.6558
  120OSM     NF12625   4.094   0.509   6.709  1.0952 -0.2149 -0.1413
  120OSM    HNF12626   4.110   0.412   6.698  2.7207  0.2151 -2.2441
  120OSM    C2S12627   3.978   0.559   6.630  0.4494 -0.3969  0.4456
  120OSM    H2S12628   3.907   0.607   6.700  0.1398  0.1334 -0.2216
  120OSM    C3S12629   3.892   0.452   6.560  0.1615 -0.0833  0.1524
  120OSM    H3S12630   3.935   0.400   6.472  0.8998 -0.9380  0.9948
  120OSM     O312631   3.770   0.515   6.515  0.4929  0.0049 -0.7312
  120OSM    HO312632   3.787   0.609   6.522  1.7338 -0.1906 -0.9165
  120OSM    C4S12633   3.854   0.347   6.664 -0.5027 -0.8914  0.6570
  120OSM    H4S12634   3.886   0.246   6.633  0.2903 -0.4049 -0.1497
  120OSM    C5S12635   3.812   0.362   6.791  1.0714  0.0871 -0.5896
  120OSM    H5S12636   3.790   0.464   6.828 -1.6831 -0.9100  0.8447
  120OSM    C6S12637   3.795   0.248   6.887  0.2243  0.2413 -0.3512
  120OSM    H6S12638   3.787   0.155   6.826  0.3202 -1.4786  2.1184
  120OSM    H6T12639   3.703   0.254   6.950 -0.8964  0.1249 -1.9113
  120OSM    C7S12640   3.919   0.234   6.983 -0.3115 -0.3617 -0.3486
  120OSM    H7S12641   4.011   0.234   6.921  0.1291 -1.8046  0.2498
  120OSM    H7T12642   3.908   0.133   7.029  1.3087 -1.0546 -1.4104
  120OSM    C8S12643   3.920   0.338   7.095  0.2482  0.6702  0.1926
  120OSM    H8S12644   3.921   0.441   7.055  0.1188  0.4293 -0.4455
  120OSM    H8T12645   4.008   0.309   7.157  0.2379 -2.7838 -1.1360
  120OSM    C9S12646   3.792   0.332   7.188  0.3421  0.1574 -0.2625
  120OSM    H9S12647   3.752   0.229   7.196  3.0134 -1.1113 -1.7461
  120OSM    H9T12648   3.716   0.401   7.145  0.2701 -0.5457 -1.3174
  120OSM   C10S12649   3.819   0.384   7.327 -0.2534  0.7521  0.5968
  120OSM   H10S12650   3.725   0.409   7.380  0.4421  2.2767  1.1525
  120OSM   H10T12651   3.880   0.475   7.309  1.2712 -0.8499 -3.7566
  120OSM   C11S12652   3.895   0.289   7.425 -0.4322 -0.0692  0.1581
  120OSM   H11S12653   3.988   0.256   7.374 -2.0050 -3.3385 -0.7952
  120OSM   H11T12654   3.825   0.204   7.438  0.9663 -1.2298  0.3762
  120OSM   C12S12655   3.944   0.359   7.549  0.5360  0.5514  0.9063
  120OSM   H12S12656   4.007   0.446   7.523 -0.1027  0.4890 -0.9916
  120OSM   H12T12657   4.005   0.286   7.606  0.6852  1.1872  1.5760
  120OSM   C13S12658   3.835   0.393   7.653 -0.0998  0.3788  0.2862
  120OSM   H13S12659   3.771   0.305   7.678  0.0562  0.0562 -0.4114
  120OSM   H13T12660   3.763   0.470   7.620  0.5601  0.5535 -0.7753
  120OSM   C14S12661   3.896   0.439   7.788 -0.4057  1.1698  0.2978
  120OSM   H14S12662   3.826   0.504   7.845 -0.9824  1.0286 -0.2259
  120OSM   H14T12663   3.987   0.495   7.760  0.2687  0.1881  0.4884
  120OSM   C15S12664   3.927   0.318   7.875 -0.4182 -0.3895  0.3072
  120OSM   H15S12665   3.997   0.256   7.816  0.0614  0.4235  0.0078
  120OSM   H15T12666   3.836   0.256   7.889 -0.0265 -0.6097  2.2622
  120OSM   C16S12667   3.985   0.370   8.007 -0.3383  0.2649  1.0081
  120OSM   H16S12668   3.914   0.445   8.046  0.4969  0.5373  2.0666
  120OSM   H16T12669   4.080   0.414   7.970 -1.6770  0.7161 -2.2652
  120OSM   C17S12670   4.019   0.269   8.122 -0.0442 -0.5979 -0.2162
  120OSM   H17S12671   3.921   0.241   8.167 -1.0934  2.6019 -0.2178
  120OSM   H17T12672   4.074   0.338   8.189 -1.1870  2.2618 -2.0123
  120OSM   C18S12673   4.098   0.146   8.080  0.2843  0.7290 -0.3563
  120OSM   H18S12674   4.134   0.093   8.171 -2.0397  0.5226  0.4956
  120OSM   H18T12675   4.192   0.166   8.024  0.9096 -0.7746  0.0842
  120OSM   H18U12676   4.029   0.077   8.027 -0.6437  0.4491  1.1560
  120OSM    C1F12677   4.156   0.584   6.800  0.6373 -0.1238  0.8680
  120OSM     OF12678   4.129   0.700   6.818  0.2882  0.2360 -0.0738
  120OSM    C2F12679   4.269   0.514   6.868 -0.1184  0.4414 -0.4454
  120OSM    H2F12680   4.343   0.497   6.786 -0.7712  0.2205 -0.9969
  120OSM    H2G12681   4.232   0.415   6.902 -0.5462  1.6817  3.0120
  120OSM    C3F12682   4.322   0.592   6.993  0.0877  0.5187  0.4462
  120OSM    H3F12683   4.353   0.694   6.961 -0.4759  0.4307 -0.4046
  120OSM    H3G12684   4.413   0.551   7.042 -1.2343 -0.2198  2.4017
  120OSM    C4F12685   4.224   0.606   7.107 -0.2081 -0.6306  0.0714
  120OSM    H4F12686   4.204   0.511   7.162  1.8496 -1.4106 -0.4265
  120OSM    H4G12687   4.128   0.640   7.062 -0.2970 -1.3365 -0.2962
  120OSM    C5F12688   4.279   0.716   7.207 -0.4543  0.5682  0.3461
  120OSM    H5F12689   4.215   0.800   7.171  0.9411  0.6747 -2.1551
  120OSM    H5G12690   4.378   0.746   7.168 -0.7122  0.2226 -0.6226
  120OSM    C6F12691   4.267   0.673   7.351 -0.4012 -0.3397 -0.9525
  120OSM    H6F12692   4.334   0.590   7.380 -2.3888 -1.4736  0.6822
  120OSM    H6G12693   4.166   0.631   7.373 -0.6484  0.3662 -0.7237
  120OSM    C7F12694   4.304   0.793   7.443  0.4372 -0.3893 -0.0108
  120OSM    H7F12695   4.229   0.873   7.430  0.1889  0.2999  4.2927
  120OSM    H7G12696   4.405   0.826   7.408  0.6981  0.0423  1.1075
  120OSM    C8F12697   4.323   0.755   7.589  0.6567  0.3517 -0.7983
  120OSM    H8F12698   4.399   0.818   7.641 -0.9760  1.8877 -0.1745
  120OSM    H8G12699   4.363   0.652   7.591  1.5801  0.7063  0.1919
  120OSM    C9F12700   4.203   0.750   7.670 -0.0119 -0.1018  0.0856
  120OSM    H9F12701   4.147   0.656   7.675  1.3378 -0.9306 -0.0732
  120OSM   C10F12702   4.150   0.854   7.736  0.8521 -0.3477  0.4019
  120OSM   H10F12703   4.055   0.849   7.792  0.5246 -0.9406 -0.2013
  120OSM   C11F12704   4.203   0.998   7.744  0.9632  0.1585  0.1924
  120OSM   H11F12705   4.144   1.070   7.684 -0.9055 -0.3604  1.3332
  120OSM   H11G12706   4.311   1.005   7.717  1.2988 -1.0298  1.1459
  120OSM   C12F12707   4.185   1.058   7.884 -0.3512 -0.1576 -0.7216
  120OSM   H12F12708   4.082   1.051   7.926  0.2463  0.2910  0.8665
  120OSM   H12G12709   4.219   1.161   7.860  2.8831 -0.8419  0.3481
  120OSM   C13F12710   4.272   0.997   7.994 -0.7100  0.8144  0.0730
  120OSM   H13F12711   4.377   1.031   7.990 -0.5261  0.3358  0.6209
  120OSM   H13G12712   4.252   0.887   7.988 -0.0924  0.7009  0.1175
  120OSM   C14F12713   4.234   1.051   8.133  0.9406 -0.2563  0.1513
  120OSM   H14F12714   4.124   1.063   8.137  0.4611 -3.9183  1.3265
  120OSM   H14G12715   4.277   1.153   8.147  3.0410 -0.5748 -2.9835
  120OSM   C15F12716   4.273   0.976   8.263  0.1871  0.0729 -0.5911
  120OSM   H15F12717   4.383   0.971   8.280 -0.0481 -0.3526  0.9383
  120OSM   H15G12718   4.239   0.871   8.252 -1.1568  0.4849 -0.5077
  120OSM   C16F12719   4.209   1.050   8.381 -0.5199 -0.1600  0.4052
  120OSM   H16F12720   4.099   1.036   8.388 -0.5495  0.7088  2.0076
  120OSM   H16G12721   4.238   1.156   8.369 -1.6113 -0.0400 -1.5859
  120OSM   C17F12722   4.249   0.995   8.516  0.1695 -0.7385  0.0627
  120OSM   H17F12723   4.261   0.886   8.497  0.1472 -0.4416 -1.8539
  120OSM   H17G12724   4.176   1.025   8.594  0.2800  0.3342 -0.2324
  120OSM   C18F12725   4.395   1.036   8.568  0.3446  0.5376  0.0356
  120OSM   H18F12726   4.400   1.143   8.599 -0.8581  0.4010  0.7475
  120OSM   H18G12727   4.468   1.035   8.484  1.3763 -1.0719  0.9064
  120OSM   H18H12728   4.425   0.975   8.656 -0.8395  0.2097  0.2216
  121OSM      N12729   6.211   2.218   5.890  0.0577 -0.7841 -0.4266
  121OSM    C1512730   6.200   2.197   5.748  0.6455 -0.2659  0.5853
  121OSM   H15A12731   6.175   2.294   5.707 -2.0763 -0.6407  1.1306
  121OSM   H15B12732   6.118   2.127   5.736  0.8580 -0.4903  0.4614
  121OSM   H15C12733   6.286   2.172   5.688 -0.4533  2.0570 -2.1486
  121OSM    C1412734   6.278   2.090   5.944  0.1877  0.1008  0.4548
  121OSM   H14A12735   6.309   2.115   6.044 -0.6366 -1.9476  1.2768
  121OSM   H14B12736   6.362   2.072   5.879  1.0307  1.0862  1.2468
  121OSM   H14C12737   6.209   2.007   5.934 -0.7325  1.0714 -2.3043
  121OSM    C1312738   6.299   2.337   5.909 -1.1620  0.1696  0.2216
  121OSM   H13A12739   6.402   2.329   5.877 -0.6680  2.1773  1.1320
  121OSM   H13B12740   6.305   2.362   6.014  0.6036  2.1087 -0.2656
  121OSM   H13C12741   6.266   2.421   5.851  1.6001  1.6091  0.5674
  121OSM    C1212742   6.079   2.241   5.954  0.2876 -0.4487  0.0437
  121OSM   H12A12743   6.017   2.162   5.914 -0.1200  0.0859 -0.3940
  121OSM   H12B12744   6.040   2.327   5.901 -0.2159 -1.4814 -1.3329
  121OSM    C1112745   6.067   2.254   6.106  0.3777 -0.3165  0.5512
  121OSM   H11A12746   6.097   2.157   6.151  0.2106 -1.1783 -1.1194
  121OSM   H11B12747   5.963   2.284   6.132  0.6940  1.2044  0.1726
  121OSM      P12748   6.141   2.473   6.237  0.2310 -0.0525 -0.0209
  121OSM    O1312749   6.274   2.546   6.250  0.3453  0.6421  0.3351
  121OSM    O1412750   6.031   2.559   6.192 -0.1059 -0.3821 -1.0335
  121OSM    O1112751   6.098   2.417   6.377  1.1146 -0.0317 -0.0445
  121OSM    O1212752   6.160   2.346   6.149 -0.2087 -0.2844  1.0206
  121OSM    C1S12753   6.196   2.342   6.457  0.2918  0.5963 -0.3280
  121OSM    H1S12754   6.297   2.387   6.467  0.4257  0.0207  1.1020
  121OSM    H1T12755   6.207   2.240   6.413 -0.8124  0.2758  0.1161
  121OSM     NF12756   6.234   2.280   6.696 -0.1996  0.3690 -0.9588
  121OSM    HNF12757   6.219   2.190   6.736 -0.0157  1.6674  2.3519
  121OSM    C2S12758   6.139   2.335   6.601  0.0348  0.2057 -0.6437
  121OSM    H2S12759   6.103   2.434   6.635 -0.7559 -0.6865  1.2875
  121OSM    C3S12760   6.003   2.253   6.607 -0.2119 -0.6159 -0.3269
  121OSM    H3S12761   6.015   2.143   6.593 -0.1605 -0.5574 -0.7475
  121OSM     O312762   5.907   2.292   6.518 -0.1348 -0.3294  0.2953
  121OSM    HO312763   5.954   2.354   6.463 -1.0659  1.4431  1.4090
  121OSM    C4S12764   5.943   2.268   6.747 -0.2148 -0.3641 -0.2858
  121OSM    H4S12765   5.968   2.183   6.812  2.3907  0.5122 -0.0608
  121OSM    C5S12766   5.878   2.366   6.805  0.3627 -0.4399 -0.0299
  121OSM    H5S12767   5.863   2.458   6.746 -0.3807  0.0506  0.8945
  121OSM    C6S12768   5.808   2.384   6.939 -0.3869  0.5951 -0.2377
  121OSM    H6S12769   5.717   2.446   6.919 -0.9446 -0.0639  0.2131
  121OSM    H6T12770   5.870   2.429   7.019  1.0739 -0.8729 -0.5016
  121OSM    C7S12771   5.773   2.256   7.018 -0.4975 -0.2003  0.2276
  121OSM    H7S12772   5.849   2.175   7.012 -0.1427  0.0364  1.3561
  121OSM    H7T12773   5.686   2.218   6.960 -0.1170  1.7860 -1.7656
  121OSM    C8S12774   5.736   2.276   7.164 -0.3260 -0.3850 -0.2301
  121OSM    H8S12775   5.637   2.325   7.180  0.3613  0.7978  0.5860
  121OSM    H8T12776   5.816   2.333   7.216 -1.8423  1.0728  0.6158
  121OSM    C9S12777   5.742   2.140   7.239  0.3738 -0.4071 -0.1982
  121OSM    H9S12778   5.834   2.090   7.204 -0.7075 -0.8686 -2.6221
  121OSM    H9T12779   5.669   2.069   7.196 -0.7502  0.5631  0.0354
  121OSM   C10S12780   5.737   2.158   7.392 -0.2681  0.6014  0.2552
  121OSM   H10S12781   5.791   2.250   7.421  0.3854 -0.0680  1.2382
  121OSM   H10T12782   5.794   2.086   7.455 -0.1371  1.6499  1.3707
  121OSM   C11S12783   5.594   2.174   7.451 -0.3147 -0.3158 -0.3991
  121OSM   H11S12784   5.534   2.082   7.433 -2.2405  1.0317 -1.2370
  121OSM   H11T12785   5.538   2.243   7.384  0.3512  1.1229  0.5028
  121OSM   C12S12786   5.584   2.228   7.595  0.4122  0.1399  0.1948
  121OSM   H12S12787   5.632   2.328   7.591  0.2939  0.2293  0.9394
  121OSM   H12T12788   5.631   2.158   7.667 -3.0987 -0.8483  1.7814
  121OSM   C13S12789   5.431   2.243   7.637  0.4295 -0.5812 -0.4217
  121OSM   H13S12790   5.387   2.141   7.637 -0.1416 -0.3378 -0.8451
  121OSM   H13T12791   5.383   2.315   7.567  1.5199  1.3627  0.7255
  121OSM   C14S12792   5.416   2.289   7.786  0.6780  0.0189  0.7976
  121OSM   H14S12793   5.474   2.384   7.792  1.4901 -0.5020  1.2670
  121OSM   H14T12794   5.465   2.219   7.857  1.5824 -0.4549 -0.2682
  121OSM   C15S12795   5.266   2.321   7.828  0.1537 -0.3489  0.2522
  121OSM   H15S12796   5.220   2.220   7.836 -3.2394  0.9402 -1.2628
  121OSM   H15T12797   5.230   2.366   7.734  1.2913 -0.8173 -0.4318
  121OSM   C16S12798   5.238   2.404   7.951  0.6190 -0.2544  0.0908
  121OSM   H16S12799   5.282   2.348   8.036  1.5822  1.7740  0.9722
  121OSM   H16T12800   5.131   2.411   7.983  1.5126  1.8390  2.9896
  121OSM   C17S12801   5.308   2.543   7.951  0.2833 -0.5765  0.1040
  121OSM   H17S12802   5.414   2.516   7.936 -0.2603 -2.1609 -1.2697
  121OSM   H17T12803   5.297   2.587   8.052  0.8012  0.6527 -0.3559
  121OSM   C18S12804   5.242   2.650   7.858  0.6266  0.4442 -0.2742
  121OSM   H18S12805   5.142   2.682   7.894 -0.4528 -3.6109  0.9558
  121OSM   H18T12806   5.231   2.602   7.758  2.4219  0.9834 -0.7623
  121OSM   H18U12807   5.297   2.746   7.854 -2.1187  2.0777 -1.0833
  121OSM    C1F12808   6.349   2.340   6.730  0.5443 -0.1955  0.0609
  121OSM     OF12809   6.385   2.445   6.680 -0.2957  0.2594 -0.0516
  121OSM    C2F12810   6.435   2.259   6.822 -0.1405 -0.3105 -0.2979
  121OSM    H2F12811   6.529   2.227   6.772  0.0747 -3.1103  1.6597
  121OSM    H2G12812   6.392   2.158   6.840 -0.7457  0.0677  0.4209
  121OSM    C3F12813   6.464   2.324   6.965 -0.2847 -0.6504 -0.2342
  121OSM    H3F12814   6.520   2.420   6.955  0.7585 -1.4725 -3.5549
  121OSM    H3G12815   6.535   2.258   7.018  0.0293  0.2630  0.5037
  121OSM    C4F12816   6.337   2.355   7.053 -0.6075 -0.6563 -0.1461
  121OSM    H4F12817   6.263   2.425   7.007  1.0584  2.0773  1.1061
  121OSM    H4G12818   6.372   2.402   7.147  0.5644 -1.7981 -0.0010
  121OSM    C5F12819   6.260   2.234   7.102  0.3908 -0.4905  0.3139
  121OSM    H5F12820   6.319   2.151   7.146  0.6837  0.5210  1.8815
  121OSM    H5G12821   6.203   2.203   7.011  0.9673  1.7426 -0.8691
  121OSM    C6F12822   6.155   2.279   7.210 -0.1126 -0.5534  1.0596
  121OSM    H6F12823   6.088   2.350   7.157  0.2494 -0.9528  0.0195
  121OSM    H6G12824   6.211   2.336   7.287  1.6930 -0.3823 -0.3028
  121OSM    C7F12825   6.094   2.166   7.281 -0.1421 -0.1745 -0.1802
  121OSM    H7F12826   6.033   2.107   7.209 -0.4039  2.9565 -2.7593
  121OSM    H7G12827   6.016   2.200   7.352  1.6471 -1.9349  2.8620
  121OSM    C8F12828   6.179   2.068   7.359 -0.5913  0.4070 -0.1510
  121OSM    H8F12829   6.247   2.016   7.288 -1.6570 -2.6670  0.9316
  121OSM    H8G12830   6.106   1.990   7.387 -0.7035  0.5701  0.0129
  121OSM    C9F12831   6.260   2.133   7.467 -0.0595 -0.2218  0.8622
  121OSM    H9F12832   6.333   2.208   7.433 -0.3508  0.4537  1.6652
  121OSM   C10F12833   6.249   2.114   7.600  0.2940  0.7257 -0.5982
  121OSM   H10F12834   6.315   2.163   7.673  0.4154  0.2228 -0.3701
  121OSM   C11F12835   6.152   2.007   7.655 -0.3285 -0.1012 -0.2747
  121OSM   H11F12836   6.204   1.913   7.683 -3.3706 -2.0539 -0.7077
  121OSM   H11G12837   6.064   1.981   7.593 -2.0011  3.8361  0.2015
  121OSM   C12F12838   6.077   2.053   7.775  0.3085  0.7149 -0.4733
  121OSM   H12F12839   6.140   2.086   7.861  0.1048  0.0069 -0.0449
  121OSM   H12G12840   6.025   1.962   7.812  1.7418  0.5721  1.3431
  121OSM   C13F12841   5.971   2.155   7.738 -0.3228  0.3352 -0.4311
  121OSM   H13F12842   5.892   2.096   7.688 -0.7652 -1.4875  2.2125
  121OSM   H13G12843   6.011   2.235   7.671  0.2376 -0.7296 -1.4076
  121OSM   C14F12844   5.910   2.225   7.871  0.3627 -0.7254 -0.0079
  121OSM   H14F12845   5.864   2.320   7.836 -2.5691 -1.3265  1.8700
  121OSM   H14G12846   5.991   2.267   7.934 -1.3881  0.9936  1.2115
  121OSM   C15F12847   5.807   2.139   7.951  0.2861 -0.3045 -0.2316
  121OSM   H15F12848   5.863   2.061   8.007 -1.4640 -0.3106  1.6304
  121OSM   H15G12849   5.740   2.074   7.890 -0.5698 -1.1723  1.5630
  121OSM   C16F12850   5.721   2.221   8.047 -0.0275 -0.1503 -0.2374
  121OSM   H16F12851   5.654   2.283   7.984 -0.2899  1.0913  1.2090
  121OSM   H16G12852   5.793   2.287   8.100 -1.1862  0.2049  0.9464
  121OSM   C17F12853   5.647   2.127   8.137 -0.3997 -0.2101 -0.2153
  121OSM   H17F12854   5.728   2.066   8.183  0.1632 -1.3293 -2.5329
  121OSM   H17G12855   5.585   2.056   8.078  0.7450 -0.5061 -1.0986
  121OSM   C18F12856   5.571   2.202   8.250 -0.0427 -0.8974 -0.2669
  121OSM   H18F12857   5.535   2.128   8.325  0.0208  0.5018  1.1978
  121OSM   H18G12858   5.485   2.252   8.198 -0.4903 -1.7120 -0.3196
  121OSM   H18H12859   5.639   2.275   8.298  0.6606  0.2537 -2.8155
  122OSM      N12860   5.074   5.520   6.230  0.5204 -0.0342  0.1510
  122OSM    C1512861   5.211   5.455   6.228  0.0255  0.4597  0.3586
  122OSM   H15A12862   5.219   5.377   6.153  2.7890  0.5036  0.4981
  122OSM   H15B12863   5.229   5.408   6.323  0.6508 -0.5722 -0.2568
  122OSM   H15C12864   5.283   5.535   6.219  1.5904 -0.8469  0.8833
  122OSM    C1412865   4.979   5.404   6.231 -0.1549 -0.3347  0.1794
  122OSM   H14A12866   4.991   5.352   6.137  0.6290 -0.9631  0.6213
  122OSM   H14B12867   4.877   5.440   6.227 -0.7613 -2.0325 -1.2333
  122OSM   H14C12868   4.992   5.331   6.309 -0.0602 -0.0811  0.4008
  122OSM    C1312869   5.071   5.592   6.354  0.6311 -0.0055 -0.1337
  122OSM   H13A12870   5.137   5.677   6.346 -1.1721  1.4521  0.0035
  122OSM   H13B12871   5.093   5.537   6.444 -0.3589 -1.5771 -0.8027
  122OSM   H13C12872   4.979   5.645   6.374  1.0791  0.8177 -0.2138
  122OSM    C1212873   5.050   5.620   6.117 -0.1659 -0.0744  0.3410
  122OSM   H12A12874   4.944   5.641   6.115 -0.0363  0.5602  0.1818
  122OSM   H12B12875   5.074   5.574   6.022  1.2812  0.6084  0.3469
  122OSM    C1112876   5.138   5.750   6.099 -0.0522  0.6434  0.3198
  122OSM   H11A12877   5.137   5.819   6.187 -1.9864  1.1316 -0.0434
  122OSM   H11B12878   5.118   5.817   6.013  2.8529  1.3690  0.0941
  122OSM      P12879   5.403   5.783   6.127  0.0584 -0.7001  0.1579
  122OSM    O1312880   5.521   5.695   6.142  0.2149 -0.7156 -0.1899
  122OSM    O1412881   5.420   5.898   6.031 -0.0109 -0.6346  0.3913
  122OSM    O1112882   5.351   5.840   6.267 -0.1422  0.0884  0.4645
  122OSM    O1212883   5.274   5.698   6.077 -0.3452 -0.6161  0.4142
  122OSM    C1S12884   5.413   5.783   6.383 -0.6116 -0.1000 -0.2496
  122OSM    H1S12885   5.523   5.800   6.378 -0.6938  0.5502  0.1357
  122OSM    H1T12886   5.393   5.674   6.392  0.0497 -0.2746 -0.7927
  122OSM     NF12887   5.473   5.793   6.624 -0.5523 -0.0206  0.2597
  122OSM    HNF12888   5.440   5.715   6.677  2.6414 -1.0387  0.9728
  122OSM    C2S12889   5.384   5.853   6.515 -0.2616 -0.4928  0.0146
  122OSM    H2S12890   5.425   5.956   6.503  1.6042 -1.5077 -3.9903
  122OSM    C3S12891   5.226   5.852   6.542 -0.0815 -0.2406 -0.4344
  122OSM    H3S12892   5.196   5.745   6.548  1.5307 -0.6383  1.7509
  122OSM     O312893   5.153   5.910   6.437 -0.1231 -0.1553 -0.4126
  122OSM    HO312894   5.223   5.924   6.373  2.4404  1.4484  2.4549
  122OSM    C4S12895   5.191   5.917   6.671 -0.3406  0.4046  0.4380
  122OSM    H4S12896   5.153   5.843   6.744 -1.7806 -0.7609 -1.3928
  122OSM    C5S12897   5.199   6.045   6.699 -0.0334 -0.2604 -0.7380
  122OSM    H5S12898   5.233   6.117   6.623 -0.7086 -0.3509 -1.1298
  122OSM    C6S12899   5.155   6.114   6.830 -0.4544 -0.3014  0.7285
  122OSM    H6S12900   5.070   6.185   6.819  2.4970  3.7235  1.3989
  122OSM    H6T12901   5.235   6.187   6.856 -1.3709  1.5954 -1.4572
  122OSM    C7S12902   5.129   6.040   6.962  0.1270  0.1335 -0.2829
  122OSM    H7S12903   5.225   5.994   6.994  0.1326  0.1602 -0.2636
  122OSM    H7T12904   5.064   5.953   6.936  0.1262 -1.0641  3.2353
  122OSM    C8S12905   5.073   6.132   7.066 -0.9378  0.0778 -1.0977
  122OSM    H8S12906   4.973   6.174   7.044 -1.9924 -0.3802  2.2884
  122OSM    H8T12907   5.147   6.214   7.083  0.0393 -1.0901  0.6452
  122OSM    C9S12908   5.060   6.056   7.199  0.3738  0.2468  0.4563
  122OSM    H9S12909   5.029   6.124   7.281  1.1517 -0.4064  1.3180
  122OSM    H9T12910   5.150   6.004   7.239 -0.7827 -0.8504  1.7468
  122OSM   C10S12911   4.950   5.957   7.202  0.1115  0.2252 -0.7740
  122OSM   H10S12912   4.993   5.876   7.139 -2.1028 -0.5220 -1.4281
  122OSM   H10T12913   4.853   5.977   7.151 -0.5067  1.1902  0.7159
  122OSM   C11S12914   4.909   5.908   7.342  0.4617 -0.2846 -0.2235
  122OSM   H11S12915   4.820   5.842   7.349  1.4147 -1.6250 -0.3822
  122OSM   H11T12916   4.885   6.003   7.394  1.7155  0.4469 -0.9184
  122OSM   C12S12917   5.028   5.860   7.427 -0.5047 -0.4672  0.3737
  122OSM   H12S12918   5.110   5.934   7.440 -0.7469 -0.4690  2.2144
  122OSM   H12T12919   5.069   5.768   7.380 -1.9201 -2.4195  2.6974
  122OSM   C13S12920   4.995   5.823   7.573 -0.7468  1.0375 -0.7479
  122OSM   H13S12921   5.077   5.771   7.625 -0.5524  2.3222  0.2973
  122OSM   H13T12922   4.914   5.748   7.585  1.0253 -0.9096 -0.6054
  122OSM   C14S12923   4.949   5.945   7.665  0.3215  0.0467 -0.1781
  122OSM   H14S12924   4.848   5.975   7.629 -0.3565  0.9570  2.2715
  122OSM   H14T12925   5.020   6.027   7.643 -0.7191  0.3768 -2.5789
  122OSM   C15S12926   4.959   5.906   7.814  0.1957  0.0683 -0.2197
  122OSM   H15S12927   5.059   5.922   7.858  0.3038  0.1854 -0.5072
  122OSM   H15T12928   4.939   5.796   7.815 -1.6859  0.3599 -0.5600
  122OSM   C16S12929   4.852   5.972   7.907 -0.1845 -0.0087 -0.6697
  122OSM   H16S12930   4.754   5.946   7.861 -0.9418  0.8338  0.4133
  122OSM   H16T12931   4.862   6.083   7.901  0.0495 -0.0148 -0.4019
  122OSM   C17S12932   4.861   5.920   8.053  0.1197 -0.6521 -0.0792
  122OSM   H17S12933   4.959   5.928   8.106 -0.4980 -3.0623  1.5942
  122OSM   H17T12934   4.848   5.811   8.037  2.8663 -0.7938 -1.9623
  122OSM   C18S12935   4.746   5.968   8.146 -0.4457 -0.4138  0.4522
  122OSM   H18S12936   4.759   6.078   8.154  0.2095 -0.4954  0.5521
  122OSM   H18T12937   4.758   5.929   8.249  3.1363  1.1148  0.7640
  122OSM   H18U12938   4.651   5.953   8.091 -0.4996 -1.0096  0.6975
  122OSM    C1F12939   5.602   5.822   6.638  0.0596 -0.8209 -0.3409
  122OSM     OF12940   5.646   5.910   6.560  0.1032  0.1594 -0.6849
  122OSM    C2F12941   5.683   5.746   6.732 -1.2082  0.7026 -0.3514
  122OSM    H2F12942   5.792   5.744   6.713 -1.2152 -0.4865 -0.3427
  122OSM    H2G12943   5.649   5.641   6.733  0.8609 -0.0072 -0.4158
  122OSM    C3F12944   5.664   5.787   6.879  0.4966  0.3656 -0.1694
  122OSM    H3F12945   5.557   5.768   6.903  0.1748  2.7042  0.4468
  122OSM    H3G12946   5.678   5.896   6.868  3.7159 -0.1420 -2.6681
  122OSM    C4F12947   5.761   5.729   6.974 -0.1601  0.2483  0.1378
  122OSM    H4F12948   5.864   5.724   6.932  0.6494 -1.9691  2.1291
  122OSM    H4G12949   5.730   5.622   6.979 -2.8811  0.9873  1.0874
  122OSM    C5F12950   5.767   5.789   7.113 -0.0470 -0.6098  0.7245
  122OSM    H5F12951   5.755   5.897   7.092 -1.3430 -0.2254  3.1195
  122OSM    H5G12952   5.869   5.767   7.152 -0.4679 -1.3183  1.4535
  122OSM    C6F12953   5.653   5.739   7.198  0.1135 -0.2179  0.7777
  122OSM    H6F12954   5.667   5.634   7.233 -1.1851  0.1942  2.6961
  122OSM    H6G12955   5.563   5.752   7.134  1.1061  2.6315 -0.1672
  122OSM    C7F12956   5.613   5.833   7.311 -0.3326 -0.4726 -0.0397
  122OSM    H7F12957   5.618   5.938   7.278 -1.5358  0.1437  1.6029
  122OSM    H7G12958   5.679   5.816   7.399  0.1376 -1.1960 -0.5266
  122OSM    C8F12959   5.469   5.819   7.363 -0.1278  0.4612 -0.0143
  122OSM    H8F12960   5.390   5.849   7.290 -1.0159 -1.1693  0.2283
  122OSM    H8G12961   5.463   5.901   7.438  2.2760  1.5802 -0.9596
  122OSM    C9F12962   5.441   5.684   7.423  0.3938 -0.5969 -0.8926
  122OSM    H9F12963   5.443   5.600   7.353 -1.4720 -1.2665 -0.1993
  122OSM   C10F12964   5.427   5.657   7.556  0.8331 -0.2156  0.5441
  122OSM   H10F12965   5.414   5.553   7.590  1.5620 -0.7216 -0.6473
  122OSM   C11F12966   5.427   5.755   7.668 -0.0835  0.1732  0.5437
  122OSM   H11F12967   5.357   5.838   7.644  0.9748  1.0913  0.5266
  122OSM   H11G12968   5.525   5.804   7.686  1.0664 -2.2832  1.2502
  122OSM   C12F12969   5.359   5.698   7.796  0.5934  0.3135  0.3565
  122OSM   H12F12970   5.415   5.604   7.812  2.0009  1.1356  0.4280
  122OSM   H12G12971   5.254   5.664   7.781  1.3159 -0.8826 -2.8678
  122OSM   C13F12972   5.380   5.798   7.907 -0.3963 -0.5147  1.0816
  122OSM   H13F12973   5.361   5.899   7.864  2.2837 -0.3915  0.0484
  122OSM   H13G12974   5.490   5.798   7.923 -0.2517  1.7336  0.4657
  122OSM   C14F12975   5.309   5.777   8.046  0.3421 -0.1953  0.5254
  122OSM   H14F12976   5.340   5.683   8.098 -0.9335 -0.4962  0.7727
  122OSM   H14G12977   5.204   5.747   8.025  0.9722 -2.1664 -0.0643
  122OSM   C15F12978   5.324   5.887   8.149  0.1823 -0.0185  0.0355
  122OSM   H15F12979   5.266   5.981   8.132 -0.6299  0.1511  3.1026
  122OSM   H15G12980   5.427   5.927   8.157  1.1304 -2.1224 -0.9147
  122OSM   C16F12981   5.274   5.837   8.284 -0.7245 -0.0454  0.2665
  122OSM   H16F12982   5.327   5.743   8.309 -1.8068 -1.2287 -1.6382
  122OSM   H16G12983   5.167   5.811   8.274 -0.7126  0.5457 -2.0007
  122OSM   C17F12984   5.282   5.942   8.397  0.5606  0.2596  0.3088
  122OSM   H17F12985   5.242   6.043   8.373 -0.0889 -0.0955 -0.1369
  122OSM   H17G12986   5.391   5.966   8.400  0.4921  0.5124  0.9878
  122OSM   C18F12987   5.214   5.898   8.523 -0.0230  0.0959 -0.2612
  122OSM   H18F12988   5.111   5.867   8.496 -0.3379  0.6814  0.2447
  122OSM   H18G12989   5.224   5.965   8.612 -0.8227 -1.3986  1.0043
  122OSM   H18H12990   5.268   5.805   8.549 -0.7136  0.2163  1.8025
  123OSM      N12991   2.935   2.505   6.275  0.3107  0.9630  0.4355
  123OSM    C1512992   2.880   2.407   6.176 -0.3121 -0.6560 -1.0831
  123OSM   H15A12993   2.780   2.422   6.139 -1.1312 -1.2177  0.7831
  123OSM   H15B12994   2.902   2.302   6.194 -2.4024 -1.2207 -1.5604
  123OSM   H15C12995   2.936   2.424   6.085  0.5664  1.3472 -0.2323
  123OSM    C1412996   3.084   2.502   6.272  1.6223 -0.4395 -0.3912
  123OSM   H14A12997   3.124   2.402   6.267  0.0972 -1.1425  0.9132
  123OSM   H14B12998   3.128   2.551   6.357 -0.6284  1.0335  0.0115
  123OSM   H14C12999   3.111   2.562   6.186 -3.1301  3.2657  0.2743
  123OSM    C1313000   2.882   2.635   6.242 -0.4584  0.1132  0.1098
  123OSM   H13A13001   2.776   2.651   6.259 -0.2596  1.4341  0.2264
  123OSM   H13B13002   2.904   2.665   6.141 -1.6759 -0.2723 -0.2913
  123OSM   H13C13003   2.939   2.706   6.300  1.7406  0.7943 -2.7024
  123OSM    C1213004   2.887   2.449   6.414 -0.0084  0.3223  0.3149
  123OSM   H12A13005   2.926   2.348   6.418  0.8922  0.6213 -0.5772
  123OSM   H12B13006   2.779   2.439   6.413 -0.1064  1.1920 -1.2275
  123OSM    C1113007   2.916   2.542   6.533  0.6938  0.1248 -0.2291
  123OSM   H11A13008   2.853   2.505   6.617 -1.3873 -1.0806 -2.2140
  123OSM   H11B13009   2.879   2.642   6.501  2.2796  0.7362 -0.2977
  123OSM      P13010   3.119   2.647   6.659 -0.0341 -0.2888  0.0651
  123OSM    O1313011   3.261   2.623   6.684 -0.9860  0.3058  0.3134
  123OSM    O1413012   3.076   2.785   6.630  1.0332  0.5922 -0.2036
  123OSM    O1113013   3.052   2.613   6.796  0.1835  0.1926  0.5127
  123OSM    O1213014   3.055   2.538   6.555 -0.6755  0.4184 -0.5100
  123OSM    C1S13015   3.069   2.493   6.864 -0.4624 -0.0434 -0.9423
  123OSM    H1S13016   3.154   2.432   6.826  0.9438  1.4184 -0.2395
  123OSM    H1T13017   2.974   2.436   6.855 -0.5065 -0.6884  2.4152
  123OSM     NF13018   3.136   2.380   7.086  0.7358  0.1338 -0.0930
  123OSM    HNF13019   3.067   2.309   7.099  0.7164 -0.4367 -2.6423
  123OSM    C2S13020   3.096   2.509   7.017 -0.3427  0.4194 -0.3316
  123OSM    H2S13021   3.190   2.567   7.028 -0.1722  0.2519 -0.8892
  123OSM    C3S13022   2.985   2.582   7.081  0.0513  0.4642  0.1250
  123OSM    H3S13023   2.888   2.530   7.065 -0.3916  1.3618 -0.1899
  123OSM     O313024   2.969   2.714   7.028  0.2484  0.1829 -0.4306
  123OSM    HO313025   3.022   2.705   6.949  3.1664  0.6622  1.3099
  123OSM    C4S13026   3.004   2.595   7.227  0.0404 -0.9823  0.6139
  123OSM    H4S13027   3.096   2.651   7.250 -0.7701 -0.1725  1.9437
  123OSM    C5S13028   2.934   2.550   7.329  0.4016 -0.3212  0.1354
  123OSM    H5S13029   2.848   2.483   7.318 -1.1170  1.4057  0.8881
  123OSM    C6S13030   2.970   2.583   7.466  0.7326  0.1451 -0.0178
  123OSM    H6S13031   2.895   2.656   7.503 -0.1600 -0.4407 -0.6524
  123OSM    H6T13032   3.068   2.636   7.463  1.1736 -0.6611 -0.1497
  123OSM    C7S13033   2.963   2.464   7.564 -0.4765  0.3974 -0.2538
  123OSM    H7S13034   3.027   2.376   7.543 -0.4939  0.0205  1.2073
  123OSM    H7T13035   2.856   2.434   7.562 -0.2673 -0.5808  1.7341
  123OSM    C8S13036   3.008   2.501   7.707  1.2167  0.4583  0.0318
  123OSM    H8S13037   2.970   2.420   7.774  0.3549  1.5134  0.8709
  123OSM    H8T13038   2.953   2.589   7.747 -0.6082  0.1504 -1.6856
  123OSM    C9S13039   3.159   2.519   7.720 -1.2565 -0.0752 -0.2623
  123OSM    H9S13040   3.207   2.601   7.663  0.9615  0.5947  2.3744
  123OSM    H9T13041   3.198   2.420   7.691 -0.6487  0.0404  0.1390
  123OSM   C10S13042   3.217   2.538   7.865  0.6981 -0.4512  0.8322
  123OSM   H10S13043   3.328   2.528   7.864  0.8464  0.1297  3.1939
  123OSM   H10T13044   3.173   2.471   7.941 -1.2615  1.6459  1.6770
  123OSM   C11S13045   3.191   2.682   7.926  0.0289 -0.5636 -0.0420
  123OSM   H11S13046   3.082   2.703   7.919  0.2061  0.5176  0.2746
  123OSM   H11T13047   3.251   2.754   7.867 -0.0533 -0.5573 -0.1179
  123OSM   C12S13048   3.222   2.694   8.077  0.4514 -0.1580  0.1504
  123OSM   H12S13049   3.318   2.641   8.094 -0.9875 -2.8445  0.4405
  123OSM   H12T13050   3.154   2.651   8.154  0.9615  1.0383  1.3007
  123OSM   C13S13051   3.230   2.842   8.109  0.3274 -0.4379 -0.1053
  123OSM   H13S13052   3.292   2.904   8.039 -0.6488 -1.2492 -1.7567
  123OSM   H13T13053   3.282   2.853   8.207  1.0663  3.3090 -0.7366
  123OSM   C14S13054   3.089   2.900   8.123 -0.3226  0.1572 -0.1002
  123OSM   H14S13055   3.014   2.822   8.147  1.4469 -2.0490 -1.4170
  123OSM   H14T13056   3.052   2.936   8.024  0.1060  1.7587  0.2826
  123OSM   C15S13057   3.085   3.016   8.220 -0.4922 -0.4756  1.1992
  123OSM   H15S13058   2.979   3.049   8.218 -0.6862 -1.1048  0.5805
  123OSM   H15T13059   3.153   3.099   8.194  1.0730 -2.3978 -1.3213
  123OSM   C16S13060   3.101   2.974   8.376  0.7446 -0.3592  0.4058
  123OSM   H16S13061   3.210   2.961   8.396  0.5188 -1.3360  1.0327
  123OSM   H16T13062   3.058   2.872   8.385  1.1295 -0.6270 -0.5955
  123OSM   C17S13063   3.034   3.077   8.474  0.6895 -0.4618  0.5356
  123OSM   H17S13064   2.929   3.042   8.480  1.3416 -2.5545  0.4321
  123OSM   H17T13065   3.039   3.177   8.427  1.2576  0.1756  1.8937
  123OSM   C18S13066   3.097   3.060   8.616 -0.5861 -0.6344 -0.2381
  123OSM   H18S13067   3.120   2.954   8.636  0.2235 -0.3941  0.1489
  123OSM   H18T13068   3.027   3.105   8.690 -0.4762 -1.4902  0.3975
  123OSM   H18U13069   3.197   3.108   8.620 -1.0096  0.5043 -2.0252
  123OSM    C1F13070   3.252   2.325   7.063  0.3099  0.8271 -0.3748
  123OSM     OF13071   3.342   2.383   7.004 -0.1185  0.1853 -0.3638
  123OSM    C2F13072   3.278   2.184   7.105  0.1294  1.4084  0.3179
  123OSM    H2F13073   3.294   2.120   7.015 -0.7113  1.5662  0.0463
  123OSM    H2G13074   3.188   2.147   7.158  0.6375  1.0288  0.9325
  123OSM    C3F13075   3.404   2.174   7.200  0.3732  0.3924 -0.1178
  123OSM    H3F13076   3.416   2.264   7.263  0.8634  1.5223 -1.7468
  123OSM    H3G13077   3.494   2.173   7.135  0.7615  0.8824  0.4112
  123OSM    C4F13078   3.385   2.048   7.284  0.3927 -0.2481  0.5735
  123OSM    H4F13079   3.477   2.036   7.345  2.1071  0.1053 -1.7981
  123OSM    H4G13080   3.380   1.967   7.207 -0.1693  0.8965 -0.6252
  123OSM    C5F13081   3.255   2.054   7.373 -0.2051  0.1006 -0.5308
  123OSM    H5F13082   3.183   1.998   7.309  0.9685 -2.0696 -0.0322
  123OSM    H5G13083   3.227   2.159   7.392  0.6288  0.1324  0.6453
  123OSM    C6F13084   3.270   1.989   7.510  0.0012 -0.0078  0.3536
  123OSM    H6F13085   3.337   2.048   7.577  1.7714 -0.1609 -1.1851
  123OSM    H6G13086   3.305   1.885   7.498  0.2067 -0.2918  2.9212
  123OSM    C7F13087   3.131   1.969   7.584 -0.0781  0.3604  0.0467
  123OSM    H7F13088   3.162   1.923   7.680 -0.0143  0.5511  0.1179
  123OSM    H7G13089   3.053   1.902   7.541 -2.0638 -0.1346  3.9524
  123OSM    C8F13090   3.058   2.107   7.619 -0.4250 -0.2041  0.4009
  123OSM    H8F13091   3.030   2.163   7.528  0.7512  2.7996  1.7789
  123OSM    H8G13092   3.124   2.178   7.673  1.3367 -1.7393  0.4064
  123OSM    C9F13093   2.939   2.094   7.711 -0.9175  0.3222 -0.1662
  123OSM    H9F13094   2.843   2.069   7.663  0.6838 -1.0246 -2.8750
  123OSM   C10F13095   2.941   2.087   7.845  0.2916 -0.1146  0.3150
  123OSM   H10F13096   2.846   2.093   7.900  1.3354  0.8013  2.1229
  123OSM   C11F13097   3.055   2.101   7.938 -0.1927 -0.3405 -0.2047
  123OSM   H11F13098   3.138   2.150   7.883 -1.0709 -0.1236 -1.3901
  123OSM   H11G13099   3.085   2.001   7.977  1.2188  0.2787  0.3680
  123OSM   C12F13100   3.017   2.196   8.053 -0.1691  0.1916  0.3354
  123OSM   H12F13101   2.943   2.146   8.119  0.7872 -1.0247  0.5078
  123OSM   H12G13102   2.983   2.296   8.018  3.5545  1.0732 -1.2541
  123OSM   C13F13103   3.156   2.209   8.125  0.1791  0.5172  0.3481
  123OSM   H13F13104   3.233   2.254   8.058  1.1439  0.7424  1.5608
  123OSM   H13G13105   3.182   2.107   8.159 -0.3758  0.2890  0.0867
  123OSM   C14F13106   3.129   2.295   8.253 -0.4355 -0.5584 -0.5620
  123OSM   H14F13107   3.076   2.230   8.325  0.7493 -0.1446  0.7319
  123OSM   H14G13108   3.064   2.385   8.245  1.1476  0.7410  0.5477
  123OSM   C15F13109   3.260   2.356   8.321 -0.0455 -0.6467 -0.2349
  123OSM   H15F13110   3.332   2.382   8.241 -1.0326  2.4874 -0.2191
  123OSM   H15G13111   3.300   2.279   8.390  0.6490  1.4792  1.8837
  123OSM   C16F13112   3.227   2.489   8.409  0.5372  1.1622  0.1949
  123OSM   H16F13113   3.144   2.456   8.476  2.7811  0.3760  2.7958
  123OSM   H16G13114   3.183   2.564   8.340  0.4452  1.0592  0.1424
  123OSM   C17F13115   3.342   2.528   8.501  0.3952  0.2169 -0.0636
  123OSM   H17F13116   3.414   2.588   8.441  0.0207  1.0468  0.3020
  123OSM   H17G13117   3.391   2.440   8.549 -1.6660 -1.4158 -0.8194
  123OSM   C18F13118   3.291   2.606   8.618  0.4217 -0.8785 -0.3490
  123OSM   H18F13119   3.252   2.706   8.587  1.6345 -0.3785 -0.3227
  123OSM   H18G13120   3.381   2.626   8.680  0.8217  0.9845 -1.4454
  123OSM   H18H13121   3.219   2.569   8.694 -0.7593  1.7004 -0.1006
  124OSM      N13122   3.896   2.956   6.115 -0.3067 -0.4213 -0.1646
  124OSM    C1513123   3.998   2.864   6.058  0.3773 -0.5208  0.2087
  124OSM   H15A13124   3.964   2.800   5.977  3.0713 -1.3490 -0.3821
  124OSM   H15B13125   4.038   2.802   6.136  0.1317  0.8938  1.5030
  124OSM   H15C13126   4.083   2.918   6.020 -1.0209 -0.0765 -2.5610
  124OSM    C1413127   3.866   3.062   6.019 -0.0935  0.0931  0.2031
  124OSM   H14A13128   3.947   3.134   6.016 -1.0567  1.3407  1.9198
  124OSM   H14B13129   3.773   3.111   6.045 -1.8153 -2.1470 -1.3272
  124OSM   H14C13130   3.861   3.035   5.915  3.4302  4.4568 -1.4004
  124OSM    C1313131   3.767   2.876   6.149 -0.7494 -0.1334 -0.1500
  124OSM   H13A13132   3.785   2.792   6.215 -1.1394  1.3770  2.0057
  124OSM   H13B13133   3.728   2.824   6.063 -0.9087  1.4004 -1.0441
  124OSM   H13C13134   3.689   2.944   6.178 -3.1596 -1.0700 -3.8211
  124OSM    C1213135   3.951   3.013   6.246 -0.4530 -0.3256  0.0976
  124OSM   H12A13136   4.054   3.040   6.232 -0.0402 -1.1100  1.5354
  124OSM   H12B13137   3.958   2.931   6.315 -0.7091 -1.1980 -0.8892
  124OSM    C1113138   3.866   3.120   6.324 -0.2079 -0.0716  0.6000
  124OSM   H11A13139   3.905   3.124   6.427  1.6921 -4.0660  0.2248
  124OSM   H11B13140   3.763   3.079   6.327 -0.3582  0.0382 -1.4864
  124OSM      P13141   3.985   3.338   6.222  0.4123  0.3121 -0.2014
  124OSM    O1313142   4.064   3.274   6.109  0.2577  0.0369  0.4398
  124OSM    O1413143   3.945   3.477   6.203 -0.3625  0.0134 -0.4835
  124OSM    O1113144   4.081   3.332   6.342 -0.2778  0.6783 -0.1084
  124OSM    O1213145   3.862   3.247   6.257 -0.5559 -0.1641 -0.0014
  124OSM    C1S13146   4.052   3.412   6.459  0.3422  0.1261  0.0614
  124OSM    H1S13147   3.948   3.389   6.491  0.1370  0.7157 -0.1556
  124OSM    H1T13148   4.058   3.518   6.424 -0.0535 -0.3266 -1.4442
  124OSM     NF13149   4.097   3.465   6.701 -0.5602  0.1728 -0.6254
  124OSM    HNF13150   4.176   3.513   6.737  0.1637  0.5857 -2.6257
  124OSM    C2S13151   4.136   3.380   6.585  0.4395 -0.0272  0.3563
  124OSM    H2S13152   4.122   3.277   6.625  4.0647 -0.7321  0.2256
  124OSM    C3S13153   4.289   3.386   6.565 -0.2574 -0.5549  0.8993
  124OSM    H3S13154   4.326   3.490   6.559  1.2195 -1.0610  0.8805
  124OSM     O313155   4.324   3.317   6.442 -0.1162  0.5200 -0.2215
  124OSM    HO313156   4.244   3.285   6.399  0.1850 -1.1000  0.3674
  124OSM    C4S13157   4.371   3.339   6.684 -0.4745 -0.4917  0.4342
  124OSM    H4S13158   4.351   3.395   6.776 -0.6079 -1.2629  0.8878
  124OSM    C5S13159   4.458   3.234   6.692  1.0412 -0.5905  0.3045
  124OSM    H5S13160   4.492   3.172   6.607  1.0531 -0.8796  0.5172
  124OSM    C6S13161   4.539   3.211   6.821  0.5377 -0.0180  0.0408
  124OSM    H6S13162   4.534   3.103   6.847 -0.4127 -0.1482 -0.6482
  124OSM    H6T13163   4.491   3.270   6.901  0.8930 -1.0306  1.0348
  124OSM    C7S13164   4.686   3.250   6.808  0.1637  0.2040 -0.6768
  124OSM    H7S13165   4.699   3.357   6.782  0.8835  0.7746  1.7891
  124OSM    H7T13166   4.736   3.201   6.721  0.4624  1.1506 -1.0431
  124OSM    C8S13167   4.768   3.213   6.939 -0.6712 -0.5751  0.3921
  124OSM    H8S13168   4.873   3.222   6.905 -1.4840 -1.5461 -2.6534
  124OSM    H8T13169   4.764   3.105   6.965 -0.0220 -0.2789  1.8460
  124OSM    C9S13170   4.743   3.305   7.066 -0.4496 -0.5023 -0.4330
  124OSM    H9S13171   4.640   3.292   7.103 -1.1539  0.5943 -1.9229
  124OSM    H9T13172   4.759   3.408   7.026 -1.3962  0.1172  0.7296
  124OSM   C10S13173   4.846   3.279   7.172  0.1351  0.2246  0.0719
  124OSM   H10S13174   4.953   3.286   7.143  0.6311  1.2074  1.9792
  124OSM   H10T13175   4.844   3.171   7.199  2.2626  0.6266  2.1920
  124OSM   C11S13176   4.820   3.361   7.299 -0.0009 -1.0429  0.0438
  124OSM   H11S13177   4.710   3.353   7.308 -0.3940  1.4705 -1.5677
  124OSM   H11T13178   4.846   3.467   7.275  1.1820 -1.8062 -2.3899
  124OSM   C12S13179   4.881   3.316   7.432 -0.2333 -0.2029 -0.3360
  124OSM   H12S13180   4.991   3.312   7.417 -0.3634 -2.1260 -1.0682
  124OSM   H12T13181   4.849   3.214   7.462 -0.3448 -0.4473 -1.2581
  124OSM   C13S13182   4.846   3.403   7.560  0.3042 -0.1459  0.7922
  124OSM   H13S13183   4.738   3.391   7.582 -0.3827  0.2620 -2.0241
  124OSM   H13T13184   4.879   3.509   7.549 -0.3369  0.3611  3.2553
  124OSM   C14S13185   4.931   3.364   7.674 -0.0710  0.3341  0.2972
  124OSM   H14S13186   5.035   3.384   7.640 -0.5639 -1.4898 -2.6029
  124OSM   H14T13187   4.922   3.255   7.690  0.1059  0.1497 -0.8011
  124OSM   C15S13188   4.912   3.440   7.807 -0.5377  0.1510  0.6158
  124OSM   H15S13189   4.805   3.431   7.835 -1.2829 -0.5615 -2.1095
  124OSM   H15T13190   4.957   3.542   7.812 -1.5291  0.8253 -2.0457
  124OSM   C16S13191   4.986   3.348   7.913 -0.0956  0.0426  0.2201
  124OSM   H16S13192   5.093   3.371   7.896  0.1845 -0.5827  1.0917
  124OSM   H16T13193   4.970   3.239   7.896 -3.0263  0.6217 -1.4123
  124OSM   C17S13194   4.958   3.386   8.064 -0.1102 -0.7213 -0.1302
  124OSM   H17S13195   4.854   3.350   8.080 -0.0960 -2.2163 -2.7165
  124OSM   H17T13196   4.943   3.496   8.060 -0.2930 -0.5702  2.7734
  124OSM   C18S13197   5.060   3.348   8.170 -0.0933  0.3324 -0.3389
  124OSM   H18S13198   5.068   3.412   8.260 -1.5802 -1.1418  0.9234
  124OSM   H18T13199   5.159   3.324   8.125  0.7312  0.9749  1.0733
  124OSM   H18U13200   5.008   3.258   8.210 -0.1129 -0.3978 -1.9431
  124OSM    C1F13201   3.970   3.480   6.751 -0.2014  0.2572  0.4276
  124OSM     OF13202   3.882   3.400   6.718 -0.0956 -0.1893 -0.2744
  124OSM    C2F13203   3.952   3.579   6.858  0.1951  0.4394 -0.8512
  124OSM    H2F13204   3.883   3.654   6.815 -0.0472 -0.2949 -1.7900
  124OSM    H2G13205   4.046   3.633   6.881  0.7257 -1.3269  1.4484
  124OSM    C3F13206   3.898   3.517   6.989  0.8424  0.1371 -0.1205
  124OSM    H3F13207   3.984   3.477   7.046  0.1406 -0.6379  0.4229
  124OSM    H3G13208   3.824   3.436   6.969  0.1457  0.6997  0.1190
  124OSM    C4F13209   3.815   3.624   7.068 -0.3522 -0.0176  0.0445
  124OSM    H4F13210   3.730   3.585   7.128 -1.2591  0.1991 -1.0559
  124OSM    H4G13211   3.771   3.697   6.997 -0.3072  0.5061  0.5538
  124OSM    C5F13212   3.900   3.687   7.182 -0.4028  0.4563  0.5024
  124OSM    H5F13213   3.941   3.782   7.144 -1.1587  0.7153  0.3023
  124OSM    H5G13214   3.980   3.616   7.211 -0.6563  0.3691  1.0041
  124OSM    C6F13215   3.818   3.723   7.307 -0.2517 -0.2183  0.3359
  124OSM    H6F13216   3.756   3.636   7.336  1.9029 -1.3657  1.8343
  124OSM    H6G13217   3.760   3.815   7.286  1.6277  0.6446 -1.3424
  124OSM    C7F13218   3.920   3.762   7.415  0.1925  0.1963 -0.1302
  124OSM    H7F13219   3.986   3.847   7.386 -1.1264  1.3373  0.0986
  124OSM    H7G13220   3.990   3.677   7.431  0.1756  0.3232  0.6507
  124OSM    C8F13221   3.859   3.768   7.562 -0.4119  0.0415 -0.2364
  124OSM    H8F13222   3.941   3.789   7.635 -2.3447  2.0041  1.5039
  124OSM    H8G13223   3.811   3.673   7.592 -0.5769  0.6511  1.5444
  124OSM    C9F13224   3.760   3.881   7.564 -0.1756  0.4772  1.0836
  124OSM    H9F13225   3.657   3.858   7.531  0.5723 -0.6677 -0.5946
  124OSM   C10F13226   3.788   4.002   7.602  0.1178  0.2938  0.5546
  124OSM   H10F13227   3.707   4.076   7.597  1.2840  1.5330 -0.7768
  124OSM   C11F13228   3.910   4.064   7.658 -0.8087  0.6082  0.4432
  124OSM   H11F13229   3.902   4.173   7.636  0.1343  0.5586 -0.2275
  124OSM   H11G13230   3.998   4.016   7.610 -1.8594 -2.5082  1.4068
  124OSM   C12F13231   3.934   4.035   7.803  1.1575  1.0409 -0.1511
  124OSM   H12F13232   4.029   4.071   7.848  0.9441 -1.1259  2.2518
  124OSM   H12G13233   3.928   3.925   7.816 -0.8434  1.1960  0.6194
  124OSM   C13F13234   3.813   4.092   7.882  0.0771  0.3244  0.8300
  124OSM   H13F13235   3.730   4.026   7.850  1.1207  0.4642 -2.5803
  124OSM   H13G13236   3.776   4.187   7.837 -0.3265 -0.1935  0.0499
  124OSM   C14F13237   3.843   4.106   8.030 -0.0604  0.3712  0.3081
  124OSM   H14F13238   3.935   4.168   8.035  0.2574  0.0177 -0.8692
  124OSM   H14G13239   3.887   4.017   8.080 -0.6754 -0.3605 -0.4197
  124OSM   C15F13240   3.731   4.170   8.113 -0.2329  0.0825  0.5112
  124OSM   H15F13241   3.672   4.085   8.154 -0.2358 -0.9214 -1.4645
  124OSM   H15G13242   3.661   4.221   8.043 -0.0829 -0.0260  0.2821
  124OSM   C16F13243   3.795   4.267   8.211 -0.0077  0.3368 -0.0311
  124OSM   H16F13244   3.833   4.360   8.164  0.8992  0.7561  1.4396
  124OSM   H16G13245   3.881   4.214   8.258 -0.7620  0.4741  1.5927
  124OSM   C17F13246   3.700   4.315   8.323 -0.0942 -0.2400 -0.3640
  124OSM   H17F13247   3.610   4.343   8.265  0.0278 -0.0807 -0.4761
  124OSM   H17G13248   3.744   4.403   8.375  0.7839  1.0112 -3.0235
  124OSM   C18F13249   3.666   4.218   8.426  0.2833 -0.3913 -0.4593
  124OSM   H18F13250   3.764   4.185   8.466  0.2885  0.2207  0.0566
  124OSM   H18G13251   3.604   4.128   8.405 -0.4182 -0.2713  0.9785
  124OSM   H18H13252   3.614   4.262   8.514 -0.9499  1.1556 -1.9001
  125OSM      N13253   0.599   3.165   6.273  1.0165 -0.1831  0.1796
  125OSM    C1513254   0.685   3.081   6.366 -0.2615  0.1020 -0.1479
  125OSM   H15A13255   0.730   2.992   6.325  1.0094  1.1038 -1.0278
  125OSM   H15B13256   0.617   3.057   6.446  1.2896  3.7489  2.5604
  125OSM   H15C13257   0.756   3.148   6.414 -0.4586  0.2317 -0.0340
  125OSM    C1413258   0.574   3.301   6.339 -0.1348  0.0027  0.2069
  125OSM   H14A13259   0.522   3.373   6.277 -0.4745  0.6715  1.2362
  125OSM   H14B13260   0.669   3.349   6.353 -0.1725  0.3115 -0.5225
  125OSM   H14C13261   0.523   3.289   6.434  2.4278 -0.9691  1.5501
  125OSM    C1313262   0.671   3.191   6.146  0.0815 -0.1657  0.3577
  125OSM   H13A13263   0.635   3.283   6.102  1.4054 -0.0873 -0.6332
  125OSM   H13B13264   0.649   3.113   6.075 -0.6544 -0.1795  0.5910
  125OSM   H13C13265   0.778   3.203   6.155  0.1897  2.0834 -2.5424
  125OSM    C1213266   0.466   3.097   6.226 -0.5906 -0.1560  0.3147
  125OSM   H12A13267   0.489   3.006   6.174 -0.2581  0.2060 -0.1830
  125OSM   H12B13268   0.422   3.164   6.154  0.5703  2.1528  1.6073
  125OSM    C1113269   0.367   3.058   6.336 -0.7964 -0.0654 -0.2251
  125OSM   H11A13270   0.266   3.050   6.292 -1.7290  1.9047  1.3980
  125OSM   H11B13271   0.364   3.149   6.401 -2.3758  1.2124 -1.9633
  125OSM      P13272   0.395   2.795   6.319 -0.6134  0.4527 -0.1000
  125OSM    O1313273   0.396   2.810   6.167  0.5645 -0.3665  0.0119
  125OSM    O1413274   0.492   2.701   6.373  0.3140  0.5912 -0.8382
  125OSM    O1113275   0.252   2.771   6.371  1.2048  0.5736  0.0796
  125OSM    O1213276   0.418   2.932   6.391  0.6252  0.2489 -0.6453
  125OSM    C1S13277   0.218   2.666   6.469  0.0837  0.1636  0.4798
  125OSM    H1S13278   0.306   2.604   6.495 -0.2662 -1.0910 -1.1683
  125OSM    H1T13279   0.143   2.602   6.419 -0.0122 -0.5083  1.4487
  125OSM     NF13280   0.108   2.624   6.690  0.6130 -0.2716 -0.0904
  125OSM    HNF13281   0.009   2.616   6.702  0.4855  2.1053  1.0294
  125OSM    C2S13282   0.159   2.727   6.605 -0.3108 -0.0769  0.2947
  125OSM    H2S13283   0.250   2.765   6.655 -0.1665  0.6006 -0.4490
  125OSM    C3S13284   0.062   2.848   6.583  0.2607 -1.5788  0.2917
  125OSM    H3S13285  -0.026   2.814   6.524 -0.9347  0.6725  0.6730
  125OSM     O313286   0.115   2.948   6.498 -0.0465 -0.4963 -0.4521
  125OSM    HO313287   0.174   2.890   6.448 -1.1970 -1.2603 -0.9771
  125OSM    C4S13288   0.017   2.909   6.715  0.6954 -0.6386  0.0769
  125OSM    H4S13289  -0.090   2.898   6.741  0.1171 -0.2506 -1.9670
  125OSM    C5S13290   0.087   2.996   6.786  0.5428  0.0899 -1.2070
  125OSM    H5S13291   0.186   3.027   6.750  0.2736  0.9230 -1.2491
  125OSM    C6S13292   0.035   3.058   6.917  0.2879  0.0286 -0.1582
  125OSM    H6S13293  -0.064   3.022   6.951  0.1073  1.8735  1.4246
  125OSM    H6T13294   0.029   3.167   6.898 -1.1869  0.0774  0.4899
  125OSM    C7S13295   0.134   3.023   7.030 -0.2766 -0.2817  0.2139
  125OSM    H7S13296   0.241   3.022   7.004 -0.5127  1.6547 -1.0153
  125OSM    H7T13297   0.117   2.916   7.055 -0.9834  0.1375  1.7135
  125OSM    C8S13298   0.106   3.090   7.165  0.4722 -0.7796 -0.5088
  125OSM    H8S13299   0.002   3.071   7.199 -0.3200  1.5149 -1.4412
  125OSM    H8T13300   0.123   3.200   7.155  1.8111 -1.1024 -2.2696
  125OSM    C9S13301   0.200   3.026   7.265  0.4365 -1.0014 -0.5960
  125OSM    H9S13302   0.307   3.039   7.238 -0.0140  0.5472 -1.8177
  125OSM    H9T13303   0.178   2.918   7.274  0.1117 -0.7501  3.1561
  125OSM   C10S13304   0.173   3.080   7.408 -0.3862 -0.6574  0.2927
  125OSM   H10S13305   0.064   3.059   7.419 -1.0364  2.5120  1.1968
  125OSM   H10T13306   0.185   3.191   7.411 -1.2111 -0.5659  2.1482
  125OSM   C11S13307   0.263   3.008   7.512  0.0368 -0.7213 -0.0941
  125OSM   H11S13308   0.369   3.032   7.489 -0.3144  0.8826 -0.0961
  125OSM   H11T13309   0.240   2.899   7.505 -1.4267 -0.4610  0.2810
  125OSM   C12S13310   0.211   3.039   7.651  0.8899 -0.2543 -0.4209
  125OSM   H12S13311   0.114   2.988   7.669  1.2243 -0.0317  2.5622
  125OSM   H12T13312   0.178   3.145   7.654 -1.4802 -0.9447  1.0518
  125OSM   C13S13313   0.309   3.001   7.761  0.8154 -0.3461 -0.7195
  125OSM   H13S13314   0.408   3.049   7.749 -0.7739  2.7440 -2.7150
  125OSM   H13T13315   0.325   2.891   7.760  1.3447 -0.3982  2.5568
  125OSM   C14S13316   0.251   3.040   7.902 -0.0661  0.2652 -0.1204
  125OSM   H14S13317   0.159   2.978   7.913 -0.1304  0.3381 -0.2427
  125OSM   H14T13318   0.219   3.146   7.894 -3.3636 -0.7132 -2.8266
  125OSM   C15S13319   0.346   3.007   8.018 -0.2268  0.0666 -0.0621
  125OSM   H15S13320   0.447   3.049   8.002 -0.0981  0.2395  1.1501
  125OSM   H15T13321   0.360   2.897   8.019  0.9372  0.1963  1.0730
  125OSM   C16S13322   0.297   3.039   8.163 -0.9349  0.8125 -0.3776
  125OSM   H16S13323   0.190   3.011   8.173 -0.6914 -0.0006  0.0813
  125OSM   H16T13324   0.284   3.147   8.181 -2.7784  0.8634 -1.7377
  125OSM   C17S13325   0.394   2.984   8.274  0.2725  0.0246  0.7874
  125OSM   H17S13326   0.501   3.005   8.255  0.6346 -1.2944  1.2350
  125OSM   H17T13327   0.392   2.873   8.275 -0.8494  0.0232  0.2616
  125OSM   C18S13328   0.356   3.034   8.416  0.7285 -0.8825  0.0725
  125OSM   H18S13329   0.378   3.142   8.433 -0.6294 -0.9921  3.0830
  125OSM   H18T13330   0.407   2.972   8.493 -0.0541 -0.6089  0.8223
  125OSM   H18U13331   0.249   3.019   8.438 -0.0389 -1.2419 -3.3467
  125OSM    C1F13332   0.179   2.523   6.746 -0.2993 -0.7622 -0.6230
  125OSM     OF13333   0.298   2.519   6.738  0.5485  1.0953  0.8336
  125OSM    C2F13334   0.105   2.411   6.809  0.4001 -0.5685 -0.4986
  125OSM    H2F13335   0.104   2.327   6.737 -2.7666  1.5783 -3.2532
  125OSM    H2G13336  -0.000   2.444   6.821  0.7756  0.8970 -0.9904
  125OSM    C3F13337   0.170   2.369   6.945 -0.2882 -0.3331  0.0529
  125OSM    H3F13338   0.155   2.453   7.016 -0.5101  0.7372 -1.2245
  125OSM    H3G13339   0.280   2.359   6.927 -0.5954 -1.4841 -1.3886
  125OSM    C4F13340   0.108   2.244   6.994 -0.2869 -0.0140 -0.2589
  125OSM    H4F13341   0.118   2.163   6.919 -1.9899 -0.4954 -0.0008
  125OSM    H4G13342  -0.001   2.254   7.010 -0.3008 -0.9101  0.2518
  125OSM    C5F13343   0.168   2.179   7.122 -0.1572 -0.6107 -0.5452
  125OSM    H5F13344   0.277   2.169   7.100  0.1133  0.5367  0.1861
  125OSM    H5G13345   0.125   2.077   7.132 -1.4544 -0.2163 -1.7080
  125OSM    C6F13346   0.163   2.270   7.241  0.8280 -0.3972 -1.1798
  125OSM    H6F13347   0.054   2.279   7.259  1.1261 -0.4175  0.7659
  125OSM    H6G13348   0.203   2.373   7.225  0.3049 -0.0112 -0.0830
  125OSM    C7F13349   0.232   2.217   7.365 -0.4361  0.7758  0.4056
  125OSM    H7F13350   0.229   2.301   7.437 -3.1002  1.9950 -0.9713
  125OSM    H7G13351   0.339   2.193   7.348 -0.1004  0.2207  2.9262
  125OSM    C8F13352   0.176   2.088   7.421 -0.1210 -0.2457 -0.6110
  125OSM    H8F13353   0.253   2.055   7.495 -0.7060 -0.3506 -0.0413
  125OSM    H8G13354   0.155   2.015   7.340 -1.3177 -2.0573  1.2358
  125OSM    C9F13355   0.037   2.118   7.479  0.6672  0.6765  0.3079
  125OSM    H9F13356  -0.020   2.206   7.444 -2.3129 -1.4392 -0.5404
  125OSM   C10F13357  -0.000   2.056   7.590 -0.6649 -0.0688 -0.3976
  125OSM   H10F13358  -0.098   2.091   7.627 -1.3488 -1.4226 -0.8791
  125OSM   C11F13359   0.075   1.951   7.677  0.2423 -0.6158  0.4720
  125OSM   H11F13360   0.170   1.923   7.628  0.8588  1.0868  0.6296
  125OSM   H11G13361   0.015   1.858   7.685  1.6090 -1.5662  0.0057
  125OSM   C12F13362   0.103   2.015   7.817 -0.9016 -0.1011  0.7689
  125OSM   H12F13363   0.161   1.945   7.882  0.6503  0.4860  0.0428
  125OSM   H12G13364   0.010   2.042   7.872 -0.8971  1.9721 -0.1774
  125OSM   C13F13365   0.190   2.141   7.804 -0.4146 -0.6915 -0.6604
  125OSM   H13F13366   0.141   2.218   7.740  1.3347 -1.0365 -2.5409
  125OSM   H13G13367   0.283   2.119   7.747 -0.6921  0.4226 -1.5781
  125OSM   C14F13368   0.218   2.205   7.944  0.3558  0.1782  0.2214
  125OSM   H14F13369   0.260   2.124   8.006 -1.7457 -0.7515  0.5010
  125OSM   H14G13370   0.124   2.231   7.997 -2.1526 -1.9854 -2.7703
  125OSM   C15F13371   0.319   2.318   7.936  0.2133 -0.0104  0.6409
  125OSM   H15F13372   0.286   2.375   7.847  1.3580  0.1946  0.3343
  125OSM   H15G13373   0.419   2.276   7.915  0.3571  0.4358  0.4164
  125OSM   C16F13374   0.320   2.407   8.057  0.5671  0.1728  0.5272
  125OSM   H16F13375   0.355   2.355   8.149  0.0912  0.7354  1.0351
  125OSM   H16G13376   0.213   2.433   8.071 -0.5414 -2.3489 -2.1661
  125OSM   C17F13377   0.413   2.535   8.032  0.7175  0.9347  0.2196
  125OSM   H17F13378   0.377   2.581   7.938 -1.3168  2.5672  1.6996
  125OSM   H17G13379   0.514   2.492   8.013  0.9368  1.2669  0.6072
  125OSM   C18F13380   0.420   2.642   8.144  0.2107  0.4702 -0.3013
  125OSM   H18F13381   0.482   2.732   8.127  2.4104 -0.3780  2.5060
  125OSM   H18G13382   0.461   2.595   8.236  1.4773  1.9272 -0.0932
  125OSM   H18H13383   0.317   2.677   8.171 -0.5478 -0.9651 -1.2238
  126OSM      N13384   4.645   0.347   6.354 -0.3486 -0.3422  0.6692
  126OSM    C1513385   4.554   0.226   6.364 -0.3033  0.4891  0.0141
  126OSM   H15A13386   4.540   0.171   6.272 -0.7667  0.4861  0.0867
  126OSM   H15B13387   4.455   0.256   6.394 -0.4403 -0.6884  0.7941
  126OSM   H15C13388   4.595   0.162   6.440  2.6194  2.0062 -0.1384
  126OSM    C1413389   4.779   0.301   6.290  0.1769  0.2997 -0.3900
  126OSM   H14A13390   4.833   0.237   6.358 -1.2523  0.5324  1.0459
  126OSM   H14B13391   4.843   0.386   6.272  1.4678 -0.7816 -1.0087
  126OSM   H14C13392   4.761   0.249   6.197  0.8230 -0.9051  0.1434
  126OSM    C1313393   4.582   0.449   6.261 -0.4343  0.9229 -0.3922
  126OSM   H13A13394   4.556   0.405   6.166 -1.1571  1.4543 -0.4447
  126OSM   H13B13395   4.642   0.538   6.249  0.7790  0.2022  0.1290
  126OSM   H13C13396   4.484   0.480   6.294 -1.8674 -2.0904 -1.4913
  126OSM    C1213397   4.665   0.408   6.495  0.0532 -0.1585 -0.0126
  126OSM   H12A13398   4.707   0.507   6.490  0.6714 -0.2864  1.9759
  126OSM   H12B13399   4.730   0.346   6.555  0.2546 -1.4588 -1.4879
  126OSM    C1113400   4.542   0.443   6.588  0.0405 -0.2930 -0.4988
  126OSM   H11A13401   4.579   0.486   6.683 -0.4778 -0.7229 -0.0998
  126OSM   H11B13402   4.485   0.349   6.604 -1.3184  0.5992  0.0849
  126OSM      P13403   4.457   0.689   6.525 -0.3806 -0.4185 -0.2986
  126OSM    O1313404   4.422   0.736   6.387 -0.2686 -0.2361  0.1549
  126OSM    O1413405   4.371   0.740   6.633  0.0816 -0.2798 -0.5111
  126OSM    O1113406   4.602   0.716   6.556 -0.6038 -0.3107  0.3582
  126OSM    O1213407   4.455   0.529   6.524  0.1012  0.7359  0.0569
  126OSM    C1S13408   4.636   0.842   6.625  0.9098 -0.2600 -0.3672
  126OSM    H1S13409   4.559   0.920   6.613  0.0402 -0.1639  3.9239
  126OSM    H1T13410   4.716   0.889   6.565 -0.7233  0.4862 -2.0529
  126OSM     NF13411   4.655   0.948   6.844  0.3911  1.0362 -0.1229
  126OSM    HNF13412   4.744   0.992   6.859  1.2469 -0.8040  0.4188
  126OSM    C2S13413   4.663   0.819   6.773  1.2217  0.1622 -0.5278
  126OSM    H2S13414   4.575   0.764   6.811  0.8191  1.7555  0.9718
  126OSM    C3S13415   4.785   0.729   6.790 -0.7564 -0.0624  0.0191
  126OSM    H3S13416   4.879   0.788   6.788 -1.1040  0.4827 -1.3617
  126OSM     O313417   4.808   0.627   6.693 -0.2750  0.0952 -0.3508
  126OSM    HO313418   4.745   0.641   6.622  0.0324 -1.4067 -0.9638
  126OSM    C4S13419   4.776   0.675   6.924 -0.3480  0.2093 -0.1143
  126OSM    H4S13420   4.812   0.746   6.999 -0.4138 -0.6031  0.7001
  126OSM    C5S13421   4.739   0.545   6.961 -0.1124 -0.7027 -0.2478
  126OSM    H5S13422   4.699   0.483   6.880 -1.5684  0.5099 -0.5129
  126OSM    C6S13423   4.727   0.488   7.099  0.2798  0.6425 -0.1850
  126OSM    H6S13424   4.793   0.399   7.111 -2.6401 -1.5975  0.4330
  126OSM    H6T13425   4.626   0.445   7.111  1.0263 -0.5546  2.9907
  126OSM    C7S13426   4.741   0.587   7.218  0.7302  0.2263 -0.3398
  126OSM    H7S13427   4.657   0.657   7.206  0.8117 -0.0122 -2.8509
  126OSM    H7T13428   4.840   0.638   7.213  0.4380  0.8182 -0.1292
  126OSM    C8S13429   4.739   0.516   7.353 -0.3089  0.2616 -0.6778
  126OSM    H8S13430   4.829   0.453   7.372 -1.1146 -0.5548  0.6227
  126OSM    H8T13431   4.650   0.451   7.366 -0.6356  0.7228 -0.6003
  126OSM    C9S13432   4.724   0.626   7.465  0.1962  0.2821 -0.0973
  126OSM    H9S13433   4.618   0.661   7.460  0.6598  1.6571 -0.9030
  126OSM    H9T13434   4.793   0.711   7.447 -0.3849  0.6859 -0.4576
  126OSM   C10S13435   4.739   0.576   7.610 -0.4809  0.6314  0.0023
  126OSM   H10S13436   4.844   0.546   7.630 -0.0490  1.4274 -0.9850
  126OSM   H10T13437   4.682   0.480   7.611  1.2159 -0.4122  0.3247
  126OSM   C11S13438   4.692   0.670   7.722 -0.0762  0.7851 -0.1448
  126OSM   H11S13439   4.587   0.692   7.691 -0.2304 -2.5600 -2.6311
  126OSM   H11T13440   4.758   0.759   7.723 -0.8120  1.3658  1.9789
  126OSM   C12S13441   4.691   0.601   7.856 -0.7804  0.1647  0.5664
  126OSM   H12S13442   4.604   0.535   7.872 -1.7277  1.3209  0.2829
  126OSM   H12T13443   4.688   0.682   7.933  2.1256 -2.0207  3.2655
  126OSM   C13S13444   4.823   0.518   7.886 -0.2354 -0.6802  0.2277
  126OSM   H13S13445   4.905   0.592   7.878 -1.9470  1.5349  1.9839
  126OSM   H13T13446   4.834   0.433   7.814 -1.7975 -0.5094 -0.2474
  126OSM   C14S13447   4.829   0.470   8.036 -0.1799  0.2084  0.5796
  126OSM   H14S13448   4.890   0.377   8.037 -0.1143  0.2084 -1.1197
  126OSM   H14T13449   4.728   0.446   8.073 -0.1294  0.7250  1.0518
  126OSM   C15S13450   4.902   0.566   8.138  0.1409 -0.1251  0.3723
  126OSM   H15S13451   5.010   0.569   8.115 -0.0605 -0.9097 -0.7794
  126OSM   H15T13452   4.896   0.517   8.238 -0.5680  1.1383  0.9656
  126OSM   C16S13453   4.829   0.695   8.159 -0.1199 -0.0141 -0.3990
  126OSM   H16S13454   4.814   0.753   8.066 -1.0242 -0.3324 -0.4634
  126OSM   H16T13455   4.883   0.755   8.235  0.1171  0.1676 -0.7091
  126OSM   C17S13456   4.688   0.686   8.218  0.6098 -0.1258 -0.1366
  126OSM   H17S13457   4.695   0.632   8.315  0.0789  0.2339  0.1079
  126OSM   H17T13458   4.621   0.627   8.152 -0.6947  0.9283  0.1893
  126OSM   C18S13459   4.633   0.825   8.251 -0.6163 -0.3359  0.6658
  126OSM   H18S13460   4.663   0.904   8.179 -1.2673 -0.7483 -0.0692
  126OSM   H18T13461   4.651   0.868   8.353 -0.2752 -1.8915  1.2872
  126OSM   H18U13462   4.523   0.814   8.246 -0.9680  0.8152  3.7615
  126OSM    C1F13463   4.539   1.002   6.890  0.2322  0.1833  0.9216
  126OSM     OF13464   4.431   0.944   6.874  0.0545 -0.1451 -0.1470
  126OSM    C2F13465   4.552   1.135   6.945 -0.6446  0.3652  0.5216
  126OSM    H2F13466   4.455   1.188   6.950  0.0341  1.8652 -1.2016
  126OSM    H2G13467   4.630   1.194   6.891 -1.3909 -0.1563 -1.2098
  126OSM    C3F13468   4.576   1.111   7.100 -0.5901 -0.5113 -0.3403
  126OSM    H3F13469   4.484   1.068   7.146 -0.4957 -0.2167  0.1276
  126OSM    H3G13470   4.589   1.215   7.136  1.9409 -0.3450 -1.4987
  126OSM    C4F13471   4.696   1.026   7.147  0.2988  0.6084 -0.0222
  126OSM    H4F13472   4.783   1.096   7.148  0.2565  0.6631  0.5867
  126OSM    H4G13473   4.694   0.937   7.082  0.2213  1.0585 -0.6422
  126OSM    C5F13474   4.683   0.978   7.299  0.4952  0.2012  0.1788
  126OSM    H5F13475   4.760   0.903   7.331 -0.7717  0.1249  3.4179
  126OSM    H5G13476   4.593   0.913   7.299  1.6946 -1.5530  0.2714
  126OSM    C6F13477   4.666   1.077   7.408 -0.0137 -0.1669 -0.3042
  126OSM    H6F13478   4.580   1.141   7.377  0.7195  1.2744  0.5243
  126OSM    H6G13479   4.750   1.149   7.412 -0.8782  0.9591 -1.4614
  126OSM    C7F13480   4.637   1.012   7.537 -0.2416  0.1787  0.0802
  126OSM    H7F13481   4.710   0.929   7.553  0.2639  0.9975  2.6167
  126OSM    H7G13482   4.533   0.972   7.538 -1.5221  3.2796 -0.1947
  126OSM    C8F13483   4.639   1.107   7.660  0.0022 -0.2860 -0.1297
  126OSM    H8F13484   4.562   1.183   7.633 -0.0741 -0.9482 -1.9338
  126OSM    H8G13485   4.732   1.165   7.669  0.6682 -1.1718 -1.0343
  126OSM    C9F13486   4.607   1.028   7.782 -0.2737  0.2278  0.2457
  126OSM    H9F13487   4.533   0.953   7.750  0.4250 -0.6852  0.7379
  126OSM   C10F13488   4.671   1.015   7.899  0.5923  0.4229  0.1155
  126OSM   H10F13489   4.620   0.943   7.965  0.0552  0.8865  0.2113
  126OSM   C11F13490   4.795   1.085   7.942 -0.2752 -0.3303  0.3846
  126OSM   H11F13491   4.855   1.111   7.852  0.6314  1.7308  1.4960
  126OSM   H11G13492   4.858   1.028   8.013 -0.7041  1.8688  2.6900
  126OSM   C12F13493   4.754   1.218   8.015 -0.6634 -0.0107 -0.7468
  126OSM   H12F13494   4.694   1.281   7.947  0.0396  2.6797  0.9187
  126OSM   H12G13495   4.847   1.280   8.024 -1.0876  0.4558  0.9775
  126OSM   C13F13496   4.690   1.203   8.152 -0.4663  0.1079 -0.7273
  126OSM   H13F13497   4.774   1.178   8.222 -0.6614  3.1246  0.7644
  126OSM   H13G13498   4.619   1.118   8.148  2.2758 -2.3811 -0.2346
  126OSM   C14F13499   4.617   1.330   8.193  0.6159 -0.0401 -0.0031
  126OSM   H14F13500   4.535   1.345   8.119  0.8094  0.4088 -0.1312
  126OSM   H14G13501   4.690   1.413   8.187  0.3805  0.2010  0.4336
  126OSM   C15F13502   4.551   1.328   8.333 -0.3395 -0.1392 -0.0582
  126OSM   H15F13503   4.635   1.312   8.405 -0.6807 -1.0411  0.1639
  126OSM   H15G13504   4.482   1.243   8.353  0.1373 -0.4293  0.4029
  126OSM   C16F13505   4.476   1.456   8.363 -0.2418  0.3004  0.4896
  126OSM   H16F13506   4.399   1.480   8.287 -0.7466 -0.1482  0.8515
  126OSM   H16G13507   4.554   1.534   8.370  1.6196 -1.0747 -2.8188
  126OSM   C17F13508   4.401   1.457   8.497 -0.0924 -0.4269 -0.4493
  126OSM   H17F13509   4.439   1.533   8.569  0.0258 -1.3096  0.4486
  126OSM   H17G13510   4.431   1.356   8.533 -1.1000 -1.2119 -1.7146
  126OSM   C18F13511   4.249   1.477   8.497 -0.5859  0.0474  0.2066
  126OSM   H18F13512   4.214   1.434   8.594 -0.6775  1.5879  0.8959
  126OSM   H18G13513   4.204   1.420   8.414 -0.8737  0.6035 -0.0269
  126OSM   H18H13514   4.225   1.586   8.493  0.5286  0.3250  0.7991
  127OSM      N13515   2.637   2.995   5.955  0.0213 -0.7801  0.0023
  127OSM    C1513516   2.497   3.034   5.923 -0.0867 -0.5246  0.0053
  127OSM   H15A13517   2.470   3.134   5.953  0.4934 -0.1250 -0.7690
  127OSM   H15B13518   2.422   2.961   5.949  0.2359 -1.7744 -2.3039
  127OSM   H15C13519   2.491   3.038   5.815  1.5701 -0.0934 -0.1109
  127OSM    C1413520   2.673   2.863   5.887 -0.1403  0.1683  0.3240
  127OSM   H14A13521   2.605   2.784   5.916 -1.4830  0.8845 -0.7458
  127OSM   H14B13522   2.774   2.827   5.892 -0.8311 -2.4479 -1.8094
  127OSM   H14C13523   2.668   2.875   5.780 -0.9125  0.9399  0.4313
  127OSM    C1313524   2.730   3.104   5.900  0.1700  0.4169  0.1150
  127OSM   H13A13525   2.695   3.194   5.948 -1.7163 -0.2830  0.1445
  127OSM   H13B13526   2.720   3.121   5.793  1.1174 -1.0825 -0.2393
  127OSM   H13C13527   2.832   3.085   5.927 -0.3504  1.4886  3.2486
  127OSM    C1213528   2.667   2.983   6.109 -0.0109  0.5494  0.3440
  127OSM   H12A13529   2.625   3.075   6.147  1.3461  0.8671  1.1412
  127OSM   H12B13530   2.773   2.991   6.128  0.0736  1.3860 -0.4045
  127OSM    C1113531   2.608   2.857   6.180  0.1810  0.2117  0.2369
  127OSM   H11A13532   2.634   2.866   6.288 -0.7754 -1.4269  0.6256
  127OSM   H11B13533   2.665   2.767   6.148  1.0605  0.7379  0.2577
  127OSM      P13534   2.392   2.718   6.144  0.3800  0.3697  0.2523
  127OSM    O1313535   2.253   2.756   6.106  0.0529  0.4458 -0.1762
  127OSM    O1413536   2.470   2.633   6.053 -0.3632 -0.5757 -0.6779
  127OSM    O1113537   2.383   2.653   6.288 -0.0265 -0.0826 -0.3482
  127OSM    O1213538   2.466   2.855   6.165  0.0185 -0.0893 -0.1134
  127OSM    C1S13539   2.372   2.733   6.403 -0.4078  0.9704 -0.2998
  127OSM    H1S13540   2.264   2.758   6.408 -0.7492 -0.6491  1.0668
  127OSM    H1T13541   2.430   2.827   6.388 -2.0372  1.8509 -1.4458
  127OSM     NF13542   2.356   2.723   6.650 -0.2739 -0.2908 -0.3948
  127OSM    HNF13543   2.422   2.760   6.715  0.5257 -2.0155 -0.1652
  127OSM    C2S13544   2.401   2.652   6.531 -0.1782  0.0265 -0.0803
  127OSM    H2S13545   2.341   2.558   6.529  0.0468 -0.1130 -0.3434
  127OSM    C3S13546   2.559   2.616   6.537  0.5560 -0.1153 -0.6265
  127OSM    H3S13547   2.618   2.711   6.541  0.6763 -0.2233  1.0514
  127OSM     O313548   2.600   2.547   6.420  0.4618 -0.2963  0.0896
  127OSM    HO313549   2.521   2.541   6.366  1.5491 -0.1999 -1.5718
  127OSM    C4S13550   2.595   2.549   6.667  0.0147  0.9615 -0.4383
  127OSM    H4S13551   2.657   2.608   6.736  1.3446 -1.2551  0.3472
  127OSM    C5S13552   2.566   2.421   6.705  0.4811  0.6548  0.6575
  127OSM    H5S13553   2.503   2.358   6.641  1.3347 -1.0561  1.4380
  127OSM    C6S13554   2.600   2.350   6.830 -0.4549  0.1175 -0.6148
  127OSM    H6S13555   2.709   2.354   6.848 -0.7780  0.3991  1.6727
  127OSM    H6T13556   2.579   2.241   6.818  3.0006 -0.7485  0.1225
  127OSM    C7S13557   2.527   2.405   6.961 -0.8449  0.2461  0.4258
  127OSM    H7S13558   2.417   2.401   6.950 -1.0825  3.0233  0.8489
  127OSM    H7T13559   2.554   2.510   6.989 -0.7536  0.6497 -1.0702
  127OSM    C8S13560   2.564   2.318   7.074  0.5603  0.1296 -0.0440
  127OSM    H8S13561   2.666   2.337   7.113  1.4450 -4.0303  0.1292
  127OSM    H8T13562   2.552   2.208   7.061 -2.1312  0.4742 -1.2188
  127OSM    C9S13563   2.475   2.359   7.198 -0.3751  0.0957 -0.2476
  127OSM    H9S13564   2.367   2.337   7.185 -1.1719  3.1992  0.2981
  127OSM    H9T13565   2.486   2.469   7.210 -0.2433  0.0760 -0.1894
  127OSM   C10S13566   2.517   2.285   7.325  0.1180 -0.6172  0.3192
  127OSM   H10S13567   2.618   2.240   7.324 -0.3041 -1.5809  0.1988
  127OSM   H10T13568   2.438   2.208   7.339 -0.8412  0.1930 -0.4801
  127OSM   C11S13569   2.533   2.380   7.441 -0.2354 -0.2420  0.0033
  127OSM   H11S13570   2.431   2.408   7.472 -0.1313 -1.8434  2.0573
  127OSM   H11T13571   2.576   2.480   7.421  1.9039 -0.6961  1.8097
  127OSM   C12S13572   2.596   2.314   7.565  0.1331  0.1033 -0.2323
  127OSM   H12S13573   2.702   2.283   7.548  0.8137  2.0862  0.1957
  127OSM   H12T13574   2.547   2.216   7.580 -1.6288  0.6206 -2.2020
  127OSM   C13S13575   2.579   2.403   7.692 -0.1331  0.3199 -0.3325
  127OSM   H13S13576   2.471   2.426   7.703 -0.2062  0.1864 -0.7361
  127OSM   H13T13577   2.634   2.497   7.674 -0.0502  0.3399  0.0243
  127OSM   C14S13578   2.645   2.348   7.822  0.4047  0.6425  0.5073
  127OSM   H14S13579   2.751   2.332   7.793  0.4883  1.1235  0.5361
  127OSM   H14T13580   2.605   2.246   7.839  3.1444 -0.8162 -1.1476
  127OSM   C15S13581   2.624   2.441   7.940  0.1532 -0.5403 -0.0972
  127OSM   H15S13582   2.518   2.426   7.970  0.2756  0.5684  0.9488
  127OSM   H15T13583   2.635   2.545   7.902 -1.9810  0.0818  0.8300
  127OSM   C16S13584   2.715   2.409   8.062 -0.5199  0.1335  0.7348
  127OSM   H16S13585   2.819   2.440   8.037 -0.2443  0.1215  1.8307
  127OSM   H16T13586   2.724   2.298   8.068 -3.1684 -0.0654  2.5823
  127OSM   C17S13587   2.672   2.462   8.196  0.8177 -0.0218 -0.2091
  127OSM   H17S13588   2.585   2.403   8.230  1.6479 -0.2104  1.6840
  127OSM   H17T13589   2.633   2.565   8.179 -0.8759 -0.4143  1.1251
  127OSM   C18S13590   2.785   2.452   8.294 -0.3270  0.0820 -0.5701
  127OSM   H18S13591   2.810   2.350   8.333  2.0807  1.2654  1.3010
  127OSM   H18T13592   2.753   2.511   8.382 -1.8203 -1.6721  0.1141
  127OSM   H18U13593   2.882   2.495   8.260  0.3669 -0.3852  0.7201
  127OSM    C1F13594   2.228   2.746   6.677 -0.1970 -0.1651 -0.1575
  127OSM     OF13595   2.140   2.707   6.607  0.2097  0.1288 -0.1230
  127OSM    C2F13596   2.197   2.818   6.803  0.2204  0.6860  0.0611
  127OSM    H2F13597   2.137   2.902   6.763 -0.9771 -0.1373  0.0700
  127OSM    H2G13598   2.284   2.865   6.853 -1.7694  2.0739  2.4434
  127OSM    C3F13599   2.109   2.739   6.898 -0.3524 -1.0991 -0.0335
  127OSM    H3F13600   2.016   2.706   6.848 -0.5025  0.6795 -1.0203
  127OSM    H3G13601   2.079   2.808   6.979 -1.5199 -0.8694 -0.6367
  127OSM    C4F13602   2.194   2.617   6.951  0.0014  0.1091  0.4072
  127OSM    H4F13603   2.302   2.644   6.959  0.2085 -0.6005  0.1417
  127OSM    H4G13604   2.184   2.536   6.875 -0.5581 -1.6028  2.2068
  127OSM    C5F13605   2.147   2.545   7.072 -0.7387 -0.1266 -0.7135
  127OSM    H5F13606   2.203   2.449   7.074  0.4089  0.4916 -1.7904
  127OSM    H5G13607   2.036   2.538   7.070 -0.6996 -0.8660 -0.8000
  127OSM    C6F13608   2.180   2.631   7.192 -0.1508 -0.4468 -0.3036
  127OSM    H6F13609   2.161   2.739   7.175 -0.9885 -0.5956 -0.3614
  127OSM    H6G13610   2.291   2.630   7.194 -0.1642 -0.9449  0.8166
  127OSM    C7F13611   2.109   2.595   7.324 -0.1428 -0.0516  0.4415
  127OSM    H7F13612   2.139   2.493   7.354  0.5469  0.2012  0.6227
  127OSM    H7G13613   1.998   2.594   7.311 -0.2032 -0.0825  0.9327
  127OSM    C8F13614   2.125   2.706   7.438 -0.3744  0.2910  0.4107
  127OSM    H8F13615   2.046   2.683   7.512 -1.8575  0.2368 -1.1213
  127OSM    H8G13616   2.101   2.804   7.393  1.1368 -0.0436 -1.2819
  127OSM    C9F13617   2.261   2.700   7.486 -0.5342  0.3737  0.3918
  127OSM    H9F13618   2.336   2.726   7.410 -1.2729 -0.3005 -0.5822
  127OSM   C10F13619   2.310   2.673   7.605 -0.1611  0.4638  0.0615
  127OSM   H10F13620   2.416   2.658   7.633 -0.4230 -1.0299  0.3521
  127OSM   C11F13621   2.220   2.640   7.721 -0.0628  0.0445 -0.6739
  127OSM   H11F13622   2.256   2.537   7.740 -0.0245 -0.3845 -2.8256
  127OSM   H11G13623   2.111   2.644   7.697 -0.2513  1.9795  0.3083
  127OSM   C12F13624   2.249   2.716   7.848 -0.0903 -0.3435  0.0110
  127OSM   H12F13625   2.184   2.806   7.842  0.8093  0.3634  0.6315
  127OSM   H12G13626   2.350   2.760   7.864 -0.6187  0.7341  0.4699
  127OSM   C13F13627   2.206   2.637   7.975 -0.1099  0.4990  0.5643
  127OSM   H13F13628   2.278   2.553   7.984 -0.4026 -0.2308 -2.5649
  127OSM   H13G13629   2.107   2.589   7.960 -0.1134 -0.7798  3.8906
  127OSM   C14F13630   2.218   2.728   8.098  0.2023  0.4044  0.0165
  127OSM   H14F13631   2.141   2.808   8.084 -1.2790 -1.0617 -0.5493
  127OSM   H14G13632   2.318   2.774   8.110  1.9282 -3.0445  0.0569
  127OSM   C15F13633   2.196   2.662   8.230 -0.5159 -0.4323  0.2473
  127OSM   H15F13634   2.095   2.617   8.221 -0.2367 -1.0434  0.1047
  127OSM   H15G13635   2.187   2.728   8.319  1.7707  0.2827 -0.0003
  127OSM   C16F13636   2.307   2.562   8.278  0.4175  0.3815  0.3482
  127OSM   H16F13637   2.398   2.625   8.281  1.0339 -0.4519 -0.3832
  127OSM   H16G13638   2.318   2.476   8.209 -1.9988  0.3972 -0.1320
  127OSM   C17F13639   2.273   2.510   8.424 -0.5301 -0.5545  0.1975
  127OSM   H17F13640   2.163   2.495   8.418 -0.3460 -1.4117 -2.4000
  127OSM   H17G13641   2.304   2.596   8.487  3.6760 -1.8580  0.2750
  127OSM   C18F13642   2.346   2.389   8.471  0.3276 -0.1028 -0.4468
  127OSM   H18F13643   2.337   2.307   8.396 -1.4672 -0.4200  0.0803
  127OSM   H18G13644   2.325   2.344   8.570  0.2506 -2.0814 -1.3094
  127OSM   H18H13645   2.455   2.411   8.475 -0.0316  2.2654 -1.9172
  128OSM      N13646   1.219   4.702   5.780  0.1735  0.5991 -0.3265
  128OSM    C1513647   1.188   4.847   5.782 -0.1019 -1.1170 -0.4557
  128OSM   H15A13648   1.131   4.879   5.868  1.2244  1.4931 -0.4517
  128OSM   H15B13649   1.128   4.871   5.695 -2.0397  0.8952  1.3408
  128OSM   H15C13650   1.277   4.907   5.769 -0.3826 -1.1508 -3.0357
  128OSM    C1413651   1.090   4.629   5.797 -0.4759  0.5002  0.6657
  128OSM   H14A13652   1.012   4.675   5.739 -0.7093  1.3817  1.6427
  128OSM   H14B13653   1.055   4.635   5.899  1.0334 -1.1970  1.3425
  128OSM   H14C13654   1.094   4.525   5.767  0.4361  0.5144  0.6970
  128OSM    C1313655   1.284   4.664   5.649  0.2226  0.6711  0.3070
  128OSM   H13A13656   1.219   4.697   5.569  0.7118  0.1104 -0.3355
  128OSM   H13B13657   1.280   4.557   5.637  1.4274  0.6487 -0.0495
  128OSM   H13C13658   1.385   4.700   5.640  1.1299 -1.8339 -0.1299
  128OSM    C1213659   1.317   4.665   5.897  0.0509 -0.1810  0.3410
  128OSM   H12A13660   1.411   4.715   5.877  0.5763 -1.7661 -1.4541
  128OSM   H12B13661   1.330   4.558   5.892  0.2733 -0.2732  2.1496
  128OSM    C1113662   1.274   4.699   6.043 -0.2666 -0.0610  0.0020
  128OSM   H11A13663   1.233   4.802   6.032 -1.1159 -0.5488 -1.8051
  128OSM   H11B13664   1.361   4.695   6.111  0.7957 -0.9433 -1.3652
  128OSM      P13665   1.169   4.474   6.127  0.0159 -0.5236  0.2306
  128OSM    O1313666   1.040   4.423   6.172 -0.2752 -0.3107 -0.2678
  128OSM    O1413667   1.244   4.406   6.020 -0.1620  0.2571 -0.0639
  128OSM    O1113668   1.264   4.471   6.252  0.6144 -0.1928 -0.2265
  128OSM    O1213669   1.154   4.622   6.088 -0.4050 -0.6151  0.1118
  128OSM    C1S13670   1.240   4.563   6.356 -0.7966  0.3447 -0.2606
  128OSM    H1S13671   1.187   4.655   6.323 -1.1543 -0.0404 -0.7946
  128OSM    H1T13672   1.336   4.579   6.409 -0.3854 -1.7774 -0.2554
  128OSM     NF13673   1.161   4.578   6.586  0.0703  0.0243 -0.4620
  128OSM    HNF13674   1.204   4.537   6.667 -0.5425 -0.9538 -0.6108
  128OSM    C2S13675   1.159   4.491   6.470 -0.4361 -0.2058 -0.4499
  128OSM    H2S13676   1.052   4.478   6.446 -0.6980 -0.5959  0.8594
  128OSM    C3S13677   1.214   4.340   6.503  0.1419 -0.1092  0.0920
  128OSM    H3S13678   1.324   4.348   6.495  0.0465  0.1257 -1.3303
  128OSM     O313679   1.175   4.242   6.407 -0.3039 -0.0161 -0.0998
  128OSM    HO313680   1.119   4.287   6.343 -0.8646  0.9923  1.0553
  128OSM    C4S13681   1.159   4.296   6.639  0.6846  0.5417 -0.2018
  128OSM    H4S13682   1.057   4.254   6.634  0.2286  1.5847  0.0729
  128OSM    C5S13683   1.223   4.312   6.750  0.5002 -0.7872 -0.1433
  128OSM    H5S13684   1.319   4.366   6.743 -0.0886  0.3466  0.3191
  128OSM    C6S13685   1.179   4.278   6.891 -0.3650 -0.0173  0.4143
  128OSM    H6S13686   1.078   4.231   6.895 -0.5675  0.1520 -1.7144
  128OSM    H6T13687   1.169   4.372   6.949 -0.8795 -0.2176  0.6566
  128OSM    C7S13688   1.286   4.187   6.952  0.5824 -0.3636  0.8800
  128OSM    H7S13689   1.388   4.231   6.948  0.6342 -0.4962  0.7341
  128OSM    H7T13690   1.299   4.102   6.881  0.1916  1.2482 -1.2294
  128OSM    C8S13691   1.251   4.136   7.082 -0.6914  0.2906  0.3552
  128OSM    H8S13692   1.310   4.046   7.112 -0.7718  0.6008  1.5100
  128OSM    H8T13693   1.150   4.091   7.080 -0.2888 -0.6419 -1.4911
  128OSM    C9S13694   1.277   4.229   7.193 -0.3379  0.0054 -1.0729
  128OSM    H9S13695   1.250   4.330   7.156 -0.8782  0.1124 -0.4166
  128OSM    H9T13696   1.388   4.225   7.194 -0.3623 -0.6864 -0.2067
  128OSM   C10S13697   1.232   4.185   7.332  0.2413  0.4404 -0.1157
  128OSM   H10S13698   1.266   4.080   7.344  0.4734  0.3108 -1.7330
  128OSM   H10T13699   1.122   4.199   7.330 -0.4038 -3.6005 -0.2881
  128OSM   C11S13700   1.297   4.266   7.441 -0.1220  0.5322 -0.0833
  128OSM   H11S13701   1.268   4.370   7.414 -1.7269 -0.2563 -1.5858
  128OSM   H11T13702   1.408   4.260   7.438 -0.0905  1.0034  0.0329
  128OSM   C12S13703   1.254   4.232   7.585  0.1786 -0.2955 -0.3563
  128OSM   H12S13704   1.286   4.127   7.602  0.1184 -0.1609  0.6255
  128OSM   H12T13705   1.144   4.219   7.596  0.4694 -2.5881  0.3606
  128OSM   C13S13706   1.315   4.326   7.692 -0.6278 -0.1456 -0.0799
  128OSM   H13S13707   1.258   4.422   7.699 -1.7340 -0.6349 -1.8089
  128OSM   H13T13708   1.419   4.354   7.669 -0.7904  0.8584  0.3534
  128OSM   C14S13709   1.340   4.254   7.832  0.0286  0.6674 -0.5035
  128OSM   H14S13710   1.410   4.168   7.830  1.2125  1.5043  1.8645
  128OSM   H14T13711   1.241   4.217   7.868  1.6461 -3.0632  0.5642
  128OSM   C15S13712   1.398   4.342   7.942 -0.1102 -0.1272  0.1388
  128OSM   H15S13713   1.481   4.406   7.904 -0.8393  1.8637  1.7199
  128OSM   H15T13714   1.441   4.272   8.017 -1.2664 -1.4040 -0.3465
  128OSM   C16S13715   1.295   4.440   7.991 -0.7622 -0.1005 -0.0304
  128OSM   H16S13716   1.210   4.377   8.023  0.6326 -1.7774  0.5286
  128OSM   H16T13717   1.256   4.516   7.920 -1.1795 -1.5774 -1.4480
  128OSM   C17S13718   1.355   4.503   8.114 -0.0249 -0.6198 -0.0465
  128OSM   H17S13719   1.447   4.564   8.102  0.2466 -0.9128  0.5035
  128OSM   H17T13720   1.372   4.420   8.186 -1.9551 -1.2268 -0.2396
  128OSM   C18S13721   1.255   4.595   8.187  0.1998  0.0348  0.1824
  128OSM   H18S13722   1.293   4.605   8.290 -0.9312  3.4107  0.3922
  128OSM   H18T13723   1.150   4.563   8.201 -0.1835  1.9946  2.1830
  128OSM   H18U13724   1.245   4.693   8.136 -1.5166 -0.2081  0.0022
  128OSM    C1F13725   1.089   4.690   6.596 -0.3518 -0.3129 -0.2793
  128OSM     OF13726   1.027   4.727   6.502  0.6787 -0.3753  0.2568
  128OSM    C2F13727   1.102   4.760   6.728 -0.3280  0.8041 -0.1327
  128OSM    H2F13728   1.204   4.805   6.730  0.7477 -1.5287  0.8486
  128OSM    H2G13729   1.094   4.681   6.806 -0.5799 -1.7208 -2.5727
  128OSM    C3F13730   1.008   4.875   6.755 -0.2974  0.1241 -0.0367
  128OSM    H3F13731   0.903   4.848   6.730 -0.9760  0.3431  2.3019
  128OSM    H3G13732   1.040   4.962   6.694 -1.1475 -1.7715 -3.4202
  128OSM    C4F13733   1.032   4.930   6.898 -0.5223  1.0536  0.1921
  128OSM    H4F13734   1.134   4.972   6.889 -0.5442  1.3002  0.9702
  128OSM    H4G13735   1.026   4.848   6.973 -1.0392  1.5976  0.7551
  128OSM    C5F13736   0.934   5.041   6.938 -0.7488 -0.1865 -0.0529
  128OSM    H5F13737   0.838   4.999   6.900 -0.2404 -0.7072 -0.7906
  128OSM    H5G13738   0.971   5.131   6.886 -1.2900  0.4758  0.6796
  128OSM    C6F13739   0.924   5.072   7.086 -0.1651  0.1741 -0.0717
  128OSM    H6F13740   0.908   4.983   7.150 -1.4748 -0.6301 -1.4527
  128OSM    H6G13741   0.830   5.131   7.099 -0.8685 -0.8542 -0.3975
  128OSM    C7F13742   1.052   5.150   7.124 -0.5505  0.5555  0.8297
  128OSM    H7F13743   1.061   5.230   7.047 -0.0329 -0.8033 -0.5665
  128OSM    H7G13744   1.140   5.082   7.119  0.3949  1.8040 -2.9127
  128OSM    C8F13745   1.036   5.212   7.266  0.0648  1.1923 -0.4040
  128OSM    H8F13746   0.938   5.260   7.244 -2.2665 -2.6016  0.7225
  128OSM    H8G13747   1.111   5.289   7.293  1.5713 -0.8126  1.5502
  128OSM    C9F13748   1.040   5.108   7.378 -0.6430 -0.4653 -0.5634
  128OSM    H9F13749   0.951   5.046   7.389 -0.6964 -0.6323 -1.8083
  128OSM   C10F13750   1.139   5.089   7.471  0.1247  0.3164 -0.0596
  128OSM   H10F13751   1.123   5.013   7.549  0.9843  0.0594 -0.1236
  128OSM   C11F13752   1.259   5.173   7.490 -0.1660  0.0900 -0.2711
  128OSM   H11F13753   1.245   5.277   7.456 -0.2963  0.1158 -0.1365
  128OSM   H11G13754   1.348   5.136   7.433 -0.7890 -0.8685 -0.6460
  128OSM   C12F13755   1.303   5.187   7.639  0.0108 -0.3846  0.3774
  128OSM   H12F13756   1.409   5.221   7.640  0.2799 -1.1495 -0.6943
  128OSM   H12G13757   1.307   5.087   7.687 -0.5445 -0.0151  1.2202
  128OSM   C13F13758   1.220   5.285   7.719 -0.3431  0.4619  0.2563
  128OSM   H13F13759   1.112   5.260   7.702 -0.2642 -1.5304  2.2569
  128OSM   H13G13760   1.220   5.391   7.686 -1.9070  0.3012 -0.3950
  128OSM   C14F13761   1.264   5.291   7.866  0.2113  0.4855 -0.9663
  128OSM   H14F13762   1.227   5.385   7.912 -1.6269 -0.7569  0.2055
  128OSM   H14G13763   1.373   5.312   7.875  0.0067  0.8028  1.3162
  128OSM   C15F13764   1.219   5.178   7.961 -0.5473  0.8765  0.3711
  128OSM   H15F13765   1.250   5.078   7.924 -0.7291  0.7843  0.4598
  128OSM   H15G13766   1.108   5.181   7.954 -0.4874  0.9717 -0.6528
  128OSM   C16F13767   1.280   5.213   8.100  0.5502  0.1065  0.6779
  128OSM   H16F13768   1.225   5.298   8.146  1.1191  0.5071  0.6375
  128OSM   H16G13769   1.386   5.244   8.085  0.8739  0.1476  2.8020
  128OSM   C17F13770   1.291   5.097   8.199 -0.1686  0.4959 -0.2124
  128OSM   H17F13771   1.334   5.134   8.294  1.1460 -0.2367 -0.4916
  128OSM   H17G13772   1.360   5.017   8.165  0.5138  1.0583 -0.1786
  128OSM   C18F13773   1.155   5.030   8.222 -0.1763  0.2732  0.3647
  128OSM   H18F13774   1.148   4.945   8.293  0.2318 -0.9039 -0.9556
  128OSM   H18G13775   1.115   4.996   8.124 -0.9440 -0.7359  1.0208
  128OSM   H18H13776   1.080   5.107   8.250 -0.0029  0.4811  0.2622
  129OSM      N13777   2.241   0.816   5.896  0.1948 -0.4986  0.0498
  129OSM    C1513778   2.371   0.858   5.945  0.7810 -0.1148 -0.5808
  129OSM   H15A13779   2.385   0.823   6.046 -0.4783 -0.6248 -0.5626
  129OSM   H15B13780   2.378   0.966   5.943  0.7619  0.0208  2.3200
  129OSM   H15C13781   2.449   0.808   5.889  0.9594 -1.1394  0.5637
  129OSM    C1413782   2.218   0.874   5.756  0.1835 -0.1828 -0.1456
  129OSM   H14A13783   2.114   0.847   5.745 -0.6466  1.4554  2.6227
  129OSM   H14B13784   2.280   0.843   5.673 -0.5712 -0.8658 -0.4710
  129OSM   H14C13785   2.213   0.982   5.747  0.0316 -0.1882 -0.1461
  129OSM    C1313786   2.239   0.671   5.888 -0.1241 -0.2509  0.1823
  129OSM   H13A13787   2.316   0.639   5.820  0.9861  2.5570 -0.0414
  129OSM   H13B13788   2.140   0.631   5.870 -0.6199  1.7634 -2.2256
  129OSM   H13C13789   2.281   0.636   5.981 -0.1285  2.4325  1.3019
  129OSM    C1213790   2.126   0.872   5.981 -0.7408 -0.4734 -0.3609
  129OSM   H12A13791   2.038   0.857   5.921 -0.8906  0.0723 -0.2821
  129OSM   H12B13792   2.134   0.979   5.984 -1.7520 -0.4039  0.6713
  129OSM    C1113793   2.110   0.818   6.126  0.0049 -0.1985  0.3643
  129OSM   H11A13794   2.062   0.718   6.130  1.4866 -0.9129  3.3509
  129OSM   H11B13795   2.033   0.887   6.168  1.1099  0.9793  0.5208
  129OSM      P13796   2.258   0.940   6.294  0.1662  0.4742 -0.0798
  129OSM    O1313797   2.396   0.940   6.350  0.8438  0.4430  0.1185
  129OSM    O1413798   2.211   1.065   6.232 -0.0267  0.4237 -0.7809
  129OSM    O1113799   2.157   0.903   6.404 -0.5160  0.1184 -0.2535
  129OSM    O1213800   2.243   0.823   6.191  0.3596  0.0828 -0.3550
  129OSM    C1S13801   2.210   0.845   6.526  0.0604  0.6184  0.4213
  129OSM    H1S13802   2.282   0.915   6.572  0.7355  2.3177 -2.9539
  129OSM    H1T13803   2.264   0.749   6.512 -1.1068  0.1675 -1.2364
  129OSM     NF13804   2.135   0.792   6.761  0.0176  0.2600 -0.3273
  129OSM    HNF13805   2.111   0.700   6.791 -1.2385  0.3177 -1.0835
  129OSM    C2S13806   2.090   0.830   6.626  0.0914  0.4979  0.6455
  129OSM    H2S13807   2.051   0.934   6.629  0.3121  0.6247 -0.5752
  129OSM    C3S13808   1.983   0.729   6.574  0.6929  0.1864  0.2557
  129OSM    H3S13809   2.024   0.627   6.562 -0.5316 -0.1032 -1.9954
  129OSM     O313810   1.932   0.769   6.447  0.4009 -0.1914 -0.0256
  129OSM    HO313811   2.000   0.831   6.418  1.1001 -1.9026 -2.3201
  129OSM    C4S13812   1.868   0.721   6.666 -0.2153 -0.8313 -0.3944
  129OSM    H4S13813   1.805   0.812   6.667  0.2217 -0.5177 -0.8362
  129OSM    C5S13814   1.830   0.616   6.740  0.0343  0.0806  0.3685
  129OSM    H5S13815   1.879   0.517   6.734  0.7593  0.5207 -2.0768
  129OSM    C6S13816   1.718   0.635   6.841 -0.0278 -0.0159  0.2329
  129OSM    H6S13817   1.620   0.593   6.810 -1.5524  3.2691  0.1601
  129OSM    H6T13818   1.701   0.744   6.855  0.6530  0.0927  0.2609
  129OSM    C7S13819   1.777   0.577   6.972  0.0258  0.0328 -0.3636
  129OSM    H7S13820   1.874   0.620   7.006 -1.4522  1.3607  2.4781
  129OSM    H7T13821   1.784   0.466   6.971  3.0527  0.1189  0.2862
  129OSM    C8S13822   1.675   0.612   7.082 -0.0766 -0.3152  0.7873
  129OSM    H8S13823   1.571   0.624   7.048  0.7523  1.6342 -1.2911
  129OSM    H8T13824   1.686   0.721   7.098  1.4109 -0.3576  0.1970
  129OSM    C9S13825   1.678   0.530   7.205  0.7247 -0.0003 -0.1544
  129OSM    H9S13826   1.778   0.500   7.243 -0.0767 -0.8723  1.3454
  129OSM    H9T13827   1.630   0.434   7.174 -1.9579  0.1696  2.9131
  129OSM   C10S13828   1.588   0.594   7.316  0.5986 -0.3183  0.2135
  129OSM   H10S13829   1.483   0.582   7.285  0.2226  1.3997  0.7062
  129OSM   H10T13830   1.596   0.705   7.319  2.9001 -0.4486  1.7767
  129OSM   C11S13831   1.614   0.553   7.463 -0.3797 -0.9617  0.3468
  129OSM   H11S13832   1.723   0.575   7.474 -0.5618  1.0582 -1.2885
  129OSM   H11T13833   1.604   0.445   7.486 -0.6554 -0.6417  1.8319
  129OSM   C12S13834   1.527   0.622   7.566 -0.2156  0.6747 -0.2586
  129OSM   H12S13835   1.419   0.594   7.562  0.1872 -0.8686 -1.7661
  129OSM   H12T13836   1.524   0.730   7.540 -0.3091  0.4732 -1.1211
  129OSM   C13S13837   1.588   0.593   7.707  0.9400 -0.3017 -0.3651
  129OSM   H13S13838   1.695   0.624   7.702  0.9120 -0.1162  0.1971
  129OSM   H13T13839   1.580   0.486   7.737  0.0396 -0.0078  0.4644
  129OSM   C14S13840   1.513   0.670   7.821 -0.2802  0.1138 -0.4245
  129OSM   H14S13841   1.403   0.660   7.808 -0.2846  0.7654 -0.9137
  129OSM   H14T13842   1.549   0.775   7.822  2.2923 -0.7054  0.2563
  129OSM   C15S13843   1.546   0.622   7.967 -0.1051  0.1761  0.7301
  129OSM   H15S13844   1.650   0.657   7.987  0.7328  0.0250 -2.6285
  129OSM   H15T13845   1.544   0.511   7.961  1.7266 -0.0143  2.5811
  129OSM   C16S13846   1.449   0.681   8.077  0.3366  0.6831 -0.6286
  129OSM   H16S13847   1.345   0.674   8.038  0.2599  0.7153 -0.4278
  129OSM   H16T13848   1.465   0.789   8.097 -0.3981  1.0471 -1.8657
  129OSM   C17S13849   1.471   0.621   8.220  0.0558  0.2508  0.1314
  129OSM   H17S13850   1.436   0.699   8.290 -0.8823 -2.2875  2.6860
  129OSM   H17T13851   1.580   0.612   8.243  0.1242 -0.1741 -0.3381
  129OSM   C18S13852   1.390   0.491   8.234  0.4582 -0.7770 -0.4368
  129OSM   H18S13853   1.291   0.507   8.186  0.9635  0.9346 -0.9878
  129OSM   H18T13854   1.398   0.472   8.343  2.1166  0.3700 -0.3187
  129OSM   H18U13855   1.454   0.416   8.183  4.6713  3.0038 -1.4101
  129OSM    C1F13856   2.195   0.874   6.846  0.2667 -0.0643 -1.6476
  129OSM     OF13857   2.220   0.988   6.816  0.2460 -0.9027 -0.1246
  129OSM    C2F13858   2.215   0.827   6.985 -0.5206 -0.0516 -0.5344
  129OSM    H2F13859   2.247   0.720   6.977 -1.4592 -0.3791  0.0200
  129OSM    H2G13860   2.123   0.836   7.045  1.8498  1.7254  3.2252
  129OSM    C3F13861   2.324   0.913   7.062  0.0881 -0.2864  0.7667
  129OSM    H3F13862   2.286   1.017   7.050  0.0662 -0.3276  0.4846
  129OSM    H3G13863   2.420   0.904   7.007 -0.4987  2.9893 -1.0855
  129OSM    C4F13864   2.346   0.882   7.214  0.1661  0.3491 -0.2501
  129OSM    H4F13865   2.425   0.954   7.246 -0.2349  0.3732  0.7095
  129OSM    H4G13866   2.401   0.788   7.235  0.9469  0.9185  0.3470
  129OSM    C5F13867   2.215   0.882   7.302  0.2449  0.4050  0.7016
  129OSM    H5F13868   2.237   0.870   7.411 -1.4746 -1.0841  0.9256
  129OSM    H5G13869   2.156   0.795   7.269 -0.6802  1.2681  0.0106
  129OSM    C6F13870   2.129   1.003   7.286  0.3650 -0.6065 -0.2723
  129OSM    H6F13871   2.067   0.995   7.194 -0.8759  3.0129  0.0979
  129OSM    H6G13872   2.183   1.099   7.270 -0.2490 -0.2387 -0.1998
  129OSM    C7F13873   2.030   1.023   7.395  0.3813  0.4486  0.9874
  129OSM    H7F13874   1.962   1.109   7.379  0.6035  0.1841 -1.7437
  129OSM    H7G13875   2.078   1.052   7.492 -1.5642  0.0332  2.1194
  129OSM    C8F13876   1.936   0.904   7.440 -0.0707 -0.1870  0.1969
  129OSM    H8F13877   2.004   0.844   7.503 -0.1674  0.8456  1.3205
  129OSM    H8G13878   1.916   0.842   7.350 -1.5191 -0.0982  0.4268
  129OSM    C9F13879   1.804   0.948   7.509 -0.8609  0.5253 -0.3244
  129OSM    H9F13880   1.718   0.995   7.460 -1.4838  3.3846  3.0874
  129OSM   C10F13881   1.794   0.956   7.643 -0.2919  0.3246 -0.4201
  129OSM   H10F13882   1.691   0.980   7.674 -0.2668  0.4018 -0.3956
  129OSM   C11F13883   1.890   0.932   7.757  0.0145  0.0782  0.6776
  129OSM   H11F13884   1.982   0.898   7.706 -0.0108 -0.2560  0.8506
  129OSM   H11G13885   1.851   0.850   7.821  0.5484 -1.0503 -0.3912
  129OSM   C12F13886   1.927   1.053   7.851 -0.8531 -0.3354  0.1694
  129OSM   H12F13887   1.940   1.138   7.780 -1.1440 -0.2705  0.1941
  129OSM   H12G13888   2.025   1.028   7.899 -0.6127  0.2643  0.0069
  129OSM   C13F13889   1.823   1.090   7.955 -0.4313  0.2838  0.2052
  129OSM   H13F13890   1.734   1.128   7.900 -1.0413 -1.0829  0.2040
  129OSM   H13G13891   1.860   1.166   8.027 -1.6775  0.4921  0.6591
  129OSM   C14F13892   1.769   0.978   8.040 -0.4701 -0.2280  0.1682
  129OSM   H14F13893   1.709   0.907   7.978 -0.0625  1.1018 -1.8276
  129OSM   H14G13894   1.685   1.022   8.098 -2.1718 -1.3876 -1.3119
  129OSM   C15F13895   1.875   0.912   8.128  0.0957  0.4710 -0.1270
  129OSM   H15F13896   1.948   0.986   8.166  3.0375 -1.1848 -2.1700
  129OSM   H15G13897   1.936   0.844   8.065  1.1815  1.1974  0.1158
  129OSM   C16F13898   1.801   0.829   8.237  0.6451  0.2045 -0.1567
  129OSM   H16F13899   1.750   0.746   8.184  1.3932  0.9520 -2.1409
  129OSM   H16G13900   1.717   0.882   8.289  1.0922  0.1885  0.6032
  129OSM   C17F13901   1.894   0.769   8.346 -0.3016  0.1270  0.2968
  129OSM   H17F13902   1.950   0.844   8.405  1.1537 -1.0895  0.5158
  129OSM   H17G13903   1.966   0.701   8.296  0.7991  1.0798  0.5575
  129OSM   C18F13904   1.808   0.683   8.446 -0.7020 -0.7429  0.2341
  129OSM   H18F13905   1.749   0.753   8.510 -2.9934 -3.7550  1.6721
  129OSM   H18G13906   1.877   0.628   8.513  1.2010 -0.7406 -1.6374
  129OSM   H18H13907   1.737   0.616   8.392 -0.1353 -0.8697 -0.3693
  130OSM      N13908   6.256   5.365   6.112  0.2905 -0.1228 -0.3451
  130OSM    C1513909   6.150   5.375   6.217 -0.6504  0.5016 -0.1140
  130OSM   H15A13910   6.142   5.482   6.229  2.3474  0.9059 -0.9088
  130OSM   H15B13911   6.170   5.329   6.312 -2.7368 -0.7221 -0.2021
  130OSM   H15C13912   6.060   5.326   6.182  0.9491 -2.4145 -0.4904
  130OSM    C1413913   6.216   5.459   6.005 -1.0130 -0.0456  0.1753
  130OSM   H14A13914   6.292   5.473   5.930  1.0393 -1.4426  1.8809
  130OSM   H14B13915   6.210   5.558   6.049  0.9575 -0.4679  1.4902
  130OSM   H14C13916   6.118   5.439   5.964 -0.9773  0.9715 -0.4475
  130OSM    C1313917   6.390   5.425   6.150  0.0878 -0.3649  0.2202
  130OSM   H13A13918   6.454   5.414   6.063 -0.8188  1.1054 -0.6840
  130OSM   H13B13919   6.446   5.374   6.226  2.5457 -0.4100 -1.4792
  130OSM   H13C13920   6.386   5.531   6.171 -0.2909 -0.1250 -0.9636
  130OSM    C1213921   6.271   5.220   6.066 -0.0425  0.1215 -0.7119
  130OSM   H12A13922   6.348   5.222   5.990  3.1296 -3.1533  2.0504
  130OSM   H12B13923   6.179   5.177   6.031 -0.0254 -2.0014  1.5946
  130OSM    C1113924   6.318   5.116   6.182 -0.2185  0.2506  1.3895
  130OSM   H11A13925   6.320   5.013   6.139 -0.1024  0.8967 -0.2433
  130OSM   H11B13926   6.241   5.108   6.262 -2.0236 -1.1383 -0.3495
  130OSM      P13927   6.576   5.136   6.173 -0.0697 -0.0883 -0.2720
  130OSM    O1313928   6.572   5.015   6.090 -0.1002  0.6008 -0.0134
  130OSM    O1413929   6.627   5.261   6.111 -0.6851  0.4648  0.4891
  130OSM    O1113930   6.671   5.090   6.289  0.3152 -0.2896 -0.0114
  130OSM    O1213931   6.440   5.155   6.236  0.3384  0.3238  0.0928
  130OSM    C1S13932   6.689   5.170   6.409  0.0989  0.0928 -0.5445
  130OSM    H1S13933   6.597   5.172   6.472 -0.4232  1.8172 -1.3015
  130OSM    H1T13934   6.722   5.274   6.392 -1.6728  0.8434  0.2863
  130OSM     NF13935   6.826   5.216   6.596  0.4930  0.3440 -0.3313
  130OSM    HNF13936   6.896   5.286   6.586  3.1890 -1.7117  2.4286
  130OSM    C2S13937   6.812   5.121   6.490 -0.4330  0.2544  0.0384
  130OSM    H2S13938   6.791   5.017   6.523 -0.3957  0.8643  2.1103
  130OSM    C3S13939   6.944   5.110   6.409 -0.7953  0.1724  0.9371
  130OSM    H3S13940   6.945   5.205   6.351 -2.6233  0.9425  2.0757
  130OSM     O313941   6.951   5.005   6.316  0.0530 -0.1681  0.6185
  130OSM    HO313942   6.858   4.982   6.307 -0.5220  2.6246 -2.7386
  130OSM    C4S13943   7.062   5.088   6.502  0.6989 -0.3998  0.2835
  130OSM    H4S13944   7.098   5.191   6.518 -1.3621  0.8938 -2.5180
  130OSM    C5S13945   7.120   4.982   6.553  0.0015  0.2301 -0.7806
  130OSM    H5S13946   7.074   4.885   6.527 -2.1552  0.4478  1.8377
  130OSM    C6S13947   7.229   4.979   6.656  0.1674 -0.3472  0.2801
  130OSM    H6S13948   7.269   5.080   6.680  0.2400 -0.4101  0.4292
  130OSM    H6T13949   7.322   4.938   6.611  2.8529  2.8082  2.4859
  130OSM    C7S13950   7.210   4.902   6.785  0.6433 -0.4390  0.8256
  130OSM    H7S13951   7.170   4.800   6.764 -1.1660  0.4615 -0.3301
  130OSM    H7T13952   7.134   4.966   6.836 -1.3113 -0.5594 -1.7401
  130OSM    C8S13953   7.330   4.896   6.871  0.4860  0.8463  0.1528
  130OSM    H8S13954   7.373   4.999   6.875 -1.0828  1.6174 -1.3808
  130OSM    H8T13955   7.411   4.837   6.824 -0.9281 -1.1151  0.0840
  130OSM    C9S13956   7.311   4.843   7.009  0.3097 -0.3165  0.3786
  130OSM    H9S13957   7.275   4.739   6.993  1.3047 -0.6786  0.4156
  130OSM    H9T13958   7.234   4.899   7.066  0.0532 -0.1278 -0.1458
  130OSM   C10S13959   7.442   4.859   7.083  0.2732 -0.2262 -0.0391
  130OSM   H10S13960   7.486   4.959   7.064  0.9646 -0.4549  0.3297
  130OSM   H10T13961   7.508   4.776   7.048  0.3199  0.4417 -1.6502
  130OSM   C11S13962   7.422   4.847   7.232 -0.5578  0.6770  0.2088
  130OSM   H11S13963   7.369   4.752   7.256 -0.8643  0.5698 -0.8384
  130OSM   H11T13964   7.362   4.935   7.264  2.4391  4.2755 -3.1620
  130OSM   C12S13965   7.547   4.853   7.318 -0.3505  0.5639 -0.3311
  130OSM   H12S13966   7.609   4.944   7.311  1.2910 -0.4338  0.6351
  130OSM   H12T13967   7.613   4.769   7.287  1.0283  1.6340 -0.3502
  130OSM   C13S13968   7.508   4.819   7.463  0.0566  0.5596 -0.5582
  130OSM   H13S13969   7.420   4.876   7.501  1.3049  0.8233  2.2278
  130OSM   H13T13970   7.595   4.848   7.527 -0.1562  2.6600 -1.1379
  130OSM   C14S13971   7.497   4.670   7.502 -0.2513 -0.3262  0.3818
  130OSM   H14S13972   7.599   4.629   7.486  0.3550  0.9487  0.8186
  130OSM   H14T13973   7.430   4.624   7.426 -0.1128  0.1356 -0.0164
  130OSM   C15S13974   7.465   4.667   7.649  0.2364  0.9804  0.1893
  130OSM   H15S13975   7.369   4.719   7.669  0.8553  1.4871  1.9747
  130OSM   H15T13976   7.549   4.711   7.707  0.1176 -0.9806  1.9708
  130OSM   C16S13977   7.445   4.521   7.689 -0.8065  0.0635 -0.1553
  130OSM   H16S13978   7.540   4.462   7.685 -0.2092  1.0384 -2.9545
  130OSM   H16T13979   7.384   4.474   7.609 -1.7115 -1.7360  1.5250
  130OSM   C17S13980   7.380   4.490   7.834  0.6128  0.0795  0.3416
  130OSM   H17S13981   7.383   4.380   7.845 -1.4347  0.0809  1.2456
  130OSM   H17T13982   7.275   4.525   7.822  0.3784 -0.4888  0.6897
  130OSM   C18S13983   7.430   4.571   7.956  0.0832  0.5016 -0.3029
  130OSM   H18S13984   7.388   4.674   7.952 -1.5931 -0.1900 -2.3500
  130OSM   H18T13985   7.540   4.587   7.964  0.0351  0.8760 -0.3867
  130OSM   H18U13986   7.389   4.520   8.045  1.4470 -0.5921 -0.2651
  130OSM    C1F13987   6.749   5.228   6.704 -0.3778 -0.0180  0.6285
  130OSM     OF13988   6.647   5.161   6.721 -0.2460  0.5137 -0.3897
  130OSM    C2F13989   6.786   5.342   6.795  0.0695 -0.1212  0.9114
  130OSM    H2F13990   6.746   5.435   6.751 -0.4266 -1.9973 -3.0697
  130OSM    H2G13991   6.897   5.348   6.801  0.1322 -0.9053  0.7592
  130OSM    C3F13992   6.730   5.321   6.943 -0.3801 -0.3424  0.2163
  130OSM    H3F13993   6.798   5.244   6.986 -0.4768 -1.2494 -1.2076
  130OSM    H3G13994   6.627   5.281   6.951  0.4040 -2.4509  0.4542
  130OSM    C4F13995   6.754   5.449   7.024 -0.5704  0.0637  0.1654
  130OSM    H4F13996   6.711   5.540   6.975 -0.5384  0.8008  1.4478
  130OSM    H4G13997   6.863   5.461   7.037 -0.3257 -1.2708 -0.5329
  130OSM    C5F13998   6.695   5.441   7.164 -1.0437 -0.2259  0.4032
  130OSM    H5F13999   6.710   5.350   7.226 -3.9882  1.0362  3.2559
  130OSM    H5G14000   6.586   5.460   7.156 -1.0273 -0.5080 -0.6130
  130OSM    C6F14001   6.741   5.565   7.244 -0.5024  0.6170 -0.3280
  130OSM    H6F14002   6.722   5.651   7.176  0.4924 -0.5426 -2.1403
  130OSM    H6G14003   6.851   5.565   7.263 -0.2499  2.3448 -1.5176
  130OSM    C7F14004   6.661   5.565   7.379 -0.1191  0.1249  0.4140
  130OSM    H7F14005   6.710   5.493   7.448  1.3725 -1.2576 -1.9503
  130OSM    H7G14006   6.562   5.523   7.353  1.1558 -1.6398 -2.0638
  130OSM    C8F14007   6.656   5.707   7.437  0.1724 -1.0753 -0.3618
  130OSM    H8F14008   6.602   5.764   7.358 -0.6977 -0.3668  0.7063
  130OSM    H8G14009   6.754   5.754   7.460 -0.6689  0.9431 -0.6379
  130OSM    C9F14010   6.568   5.698   7.559 -0.3030 -0.4988  0.6705
  130OSM    H9F14011   6.463   5.717   7.530 -0.2654 -0.7664  0.3642
  130OSM   C10F14012   6.608   5.711   7.681 -0.1772 -0.2740 -0.5561
  130OSM   H10F14013   6.544   5.701   7.769 -0.9602  1.0736 -0.9570
  130OSM   C11F14014   6.750   5.713   7.727 -0.5080 -0.4064  0.4076
  130OSM   H11F14015   6.805   5.785   7.662 -1.7205 -0.2839 -0.5182
  130OSM   H11G14016   6.790   5.610   7.717 -0.7923 -0.6406  1.6341
  130OSM   C12F14017   6.760   5.753   7.875 -0.3232 -0.0626  0.5077
  130OSM   H12F14018   6.863   5.779   7.908 -0.1386  1.3457 -1.0038
  130OSM   H12G14019   6.727   5.660   7.927  2.3202 -0.8108  1.0292
  130OSM   C13F14020   6.675   5.868   7.929  0.7860 -0.1014  0.1027
  130OSM   H13F14021   6.572   5.826   7.924 -0.0657  1.6881  1.5867
  130OSM   H13G14022   6.680   5.956   7.861 -0.4466 -0.7409 -0.8696
  130OSM   C14F14023   6.692   5.898   8.080  0.0334  0.1044  0.0914
  130OSM   H14F14024   6.619   5.973   8.116 -0.2661  0.1160 -0.5243
  130OSM   H14G14025   6.794   5.938   8.097 -0.4779  1.8767 -0.8106
  130OSM   C15F14026   6.693   5.775   8.178 -0.3579  0.9686 -0.7936
  130OSM   H15F14027   6.784   5.714   8.159 -1.3783 -0.5923 -0.8073
  130OSM   H15G14028   6.605   5.709   8.163 -0.5532  1.0453  0.0090
  130OSM   C16F14029   6.687   5.807   8.330 -0.2933 -0.3549 -0.4816
  130OSM   H16F14030   6.664   5.711   8.380 -1.2609 -0.4846 -1.1433
  130OSM   H16G14031   6.605   5.879   8.352  1.0139  0.8570  0.6323
  130OSM   C17F14032   6.829   5.854   8.380  0.0088 -0.2156  0.4354
  130OSM   H17F14033   6.849   5.946   8.322  2.3012 -1.1479 -0.3674
  130OSM   H17G14034   6.912   5.790   8.343  0.2109 -0.8417  1.8871
  130OSM   C18F14035   6.841   5.870   8.534  0.1302  0.7584 -0.8224
  130OSM   H18F14036   6.919   5.942   8.567  0.0051  0.4728  0.1070
  130OSM   H18G14037   6.857   5.772   8.582 -1.7468  1.1406  0.7286
  130OSM   H18H14038   6.751   5.918   8.578  0.3554  0.4102  0.0314
  131OSM      N14039   2.007   3.000   6.320  0.4260 -0.4530 -0.5789
  131OSM    C1514040   2.045   2.957   6.454  0.9698  0.0948 -0.2268
  131OSM   H15A14041   1.965   2.952   6.527  0.5959  0.3402 -0.6152
  131OSM   H15B14042   2.115   3.032   6.487  1.1125 -0.6553  1.2977
  131OSM   H15C14043   2.093   2.861   6.463 -0.8865 -0.7171  2.4749
  131OSM    C1414044   2.123   2.995   6.226 -0.0608 -0.4985 -0.2761
  131OSM   H14A14045   2.114   3.051   6.134  0.0217 -0.7975 -0.4684
  131OSM   H14B14046   2.157   2.894   6.206  2.3687  0.0041  0.9033
  131OSM   H14C14047   2.210   3.049   6.262  1.1640 -1.1641 -2.0728
  131OSM    C1314048   1.906   2.909   6.259  0.9317 -0.4891  0.3968
  131OSM   H13A14049   1.812   2.911   6.312  0.0709  0.7827 -1.1014
  131OSM   H13B14050   1.935   2.805   6.268  0.9823 -0.3370  2.4134
  131OSM   H13C14051   1.887   2.925   6.154 -0.8118 -1.8962  0.4697
  131OSM    C1214052   1.960   3.143   6.339 -0.4130  0.0735 -0.0636
  131OSM   H12A14053   2.032   3.206   6.388 -1.5214  0.4036  1.2082
  131OSM   H12B14054   1.879   3.139   6.410 -1.2303 -0.9678 -1.0114
  131OSM    C1114055   1.903   3.214   6.222 -0.1507 -0.6081  0.2343
  131OSM   H11A14056   1.980   3.225   6.143 -0.3201  1.5311  0.2996
  131OSM   H11B14057   1.894   3.322   6.249  1.9754 -0.5591  0.9394
  131OSM      P14058   1.653   3.149   6.237 -0.0636 -0.1436 -0.0173
  131OSM    O1314059   1.560   3.254   6.195  0.7275 -0.1018 -0.1460
  131OSM    O1414060   1.597   3.012   6.219 -0.9011 -0.2020 -0.1978
  131OSM    O1114061   1.676   3.181   6.387 -0.3366  0.5352  0.1309
  131OSM    O1214062   1.787   3.157   6.158 -0.2807  0.9570  0.1356
  131OSM    C1S14063   1.644   3.086   6.493  0.2320  0.7798  0.0391
  131OSM    H1S14064   1.690   2.985   6.485 -3.6933 -1.1591 -0.3116
  131OSM    H1T14065   1.537   3.057   6.495  0.6523 -1.2575 -2.3355
  131OSM     NF14066   1.658   3.051   6.745  0.7616  0.2669  0.4823
  131OSM    HNF14067   1.568   3.044   6.788  0.1562  2.1726 -0.3788
  131OSM    C2S14068   1.663   3.147   6.635  0.1814 -0.6434  1.0585
  131OSM    H2S14069   1.765   3.190   6.628 -0.0227 -0.4198 -0.8937
  131OSM    C3S14070   1.566   3.270   6.645 -0.4611 -0.4791 -0.7120
  131OSM    H3S14071   1.460   3.240   6.658 -1.0638  2.0473  0.8032
  131OSM     O314072   1.586   3.366   6.544  0.0496 -0.7701 -0.2111
  131OSM    HO314073   1.635   3.319   6.476 -0.9517 -1.8171 -0.2384
  131OSM    C4S14074   1.608   3.345   6.769 -0.1667 -0.2913  0.6353
  131OSM    H4S14075   1.711   3.382   6.766  0.3884 -1.7162  1.0897
  131OSM    C5S14076   1.534   3.362   6.878 -0.0602  0.4298  0.1082
  131OSM    H5S14077   1.448   3.295   6.891  0.1581 -0.1791 -1.3704
  131OSM    C6S14078   1.592   3.428   6.999  0.1379  0.4083 -0.2268
  131OSM    H6S14079   1.510   3.497   7.029  0.5773  0.7576  0.1867
  131OSM    H6T14080   1.676   3.496   6.974  0.3237  0.3717  0.2793
  131OSM    C7S14081   1.642   3.328   7.104  0.4562 -0.0252 -0.0614
  131OSM    H7S14082   1.701   3.388   7.177  0.0192 -0.9244  1.0773
  131OSM    H7T14083   1.712   3.248   7.072 -1.2441 -2.3429  1.6424
  131OSM    C8S14084   1.527   3.242   7.169  0.4468 -0.5028  0.2903
  131OSM    H8S14085   1.480   3.178   7.092  1.8096 -0.0721 -0.9513
  131OSM    H8T14086   1.455   3.318   7.205 -0.6993 -0.9172 -1.0447
  131OSM    C9S14087   1.559   3.153   7.291  0.1494 -0.1470 -0.6238
  131OSM    H9S14088   1.637   3.078   7.265  0.5328 -0.2331  0.7019
  131OSM    H9T14089   1.473   3.085   7.309  1.2068 -1.5882 -0.8178
  131OSM   C10S14090   1.578   3.241   7.417 -0.5622  0.2594  0.4907
  131OSM   H10S14091   1.656   3.318   7.402  0.9291 -1.3984 -0.6930
  131OSM   H10T14092   1.615   3.168   7.491  1.3048  0.3397 -0.3146
  131OSM   C11S14093   1.454   3.310   7.472 -0.2363  0.3504 -0.1240
  131OSM   H11S14094   1.377   3.231   7.482  0.6287 -0.6739 -1.3276
  131OSM   H11T14095   1.422   3.391   7.404  2.7330  1.3719 -0.4528
  131OSM   C12S14096   1.488   3.390   7.605 -0.0561 -0.5097 -0.3470
  131OSM   H12S14097   1.437   3.489   7.605  0.3062 -0.3125 -1.0366
  131OSM   H12T14098   1.595   3.421   7.597  0.9965 -3.2432  1.5213
  131OSM   C13S14099   1.477   3.297   7.734 -0.1931  0.0098 -0.0898
  131OSM   H13S14100   1.535   3.206   7.708 -1.1862 -1.5988  2.8674
  131OSM   H13T14101   1.370   3.268   7.736 -0.4758  0.9859 -0.4884
  131OSM   C14S14102   1.536   3.356   7.860 -0.1468 -1.2295 -0.6672
  131OSM   H14S14103   1.484   3.445   7.900  0.1771 -0.8916 -0.9906
  131OSM   H14T14104   1.641   3.391   7.850 -0.9061  1.9050  1.0917
  131OSM   C15S14105   1.541   3.256   7.973  0.7012 -0.1529  0.1668
  131OSM   H15S14106   1.620   3.189   7.931  0.1325  0.0585 -1.2901
  131OSM   H15T14107   1.446   3.199   7.978  0.7468 -0.3592 -1.0032
  131OSM   C16S14108   1.596   3.322   8.101 -0.3924 -0.5131 -0.9017
  131OSM   H16S14109   1.544   3.420   8.104 -1.5623 -1.0339 -2.6326
  131OSM   H16T14110   1.707   3.326   8.104 -0.4129  0.0424 -0.8054
  131OSM   C17S14111   1.543   3.244   8.221 -0.9846  0.3914  0.9764
  131OSM   H17S14112   1.432   3.233   8.223 -0.9839  0.4015  1.0941
  131OSM   H17T14113   1.551   3.317   8.305  0.8766 -0.0338  1.2093
  131OSM   C18S14114   1.618   3.113   8.242  0.7846  0.1196 -0.4633
  131OSM   H18S14115   1.553   3.048   8.305  1.8323 -0.6780 -0.1657
  131OSM   H18T14116   1.706   3.116   8.310 -0.0517 -3.8779  1.0895
  131OSM   H18U14117   1.648   3.060   8.150  1.0300 -0.9178  0.1935
  131OSM    C1F14118   1.751   2.959   6.772 -0.5718 -0.2530 -0.0351
  131OSM     OF14119   1.854   2.965   6.703 -0.9848  0.1912  0.7663
  131OSM    C2F14120   1.724   2.855   6.877  0.2263 -0.2581  0.5046
  131OSM    H2F14121   1.713   2.907   6.974 -0.8662  1.9249 -0.7097
  131OSM    H2G14122   1.814   2.789   6.881  0.7655  0.4289 -0.0234
  131OSM    C3F14123   1.595   2.774   6.842 -0.7280  0.1812  0.1451
  131OSM    H3F14124   1.584   2.747   6.735  1.2988  1.3830 -0.4161
  131OSM    H3G14125   1.504   2.830   6.871 -0.7934 -0.4467  1.2036
  131OSM    C4F14126   1.589   2.641   6.929  0.1140  0.4289 -0.2922
  131OSM    H4F14127   1.678   2.576   6.914  1.1023  1.3282  1.3451
  131OSM    H4G14128   1.498   2.589   6.890 -1.1254  1.7857  0.6564
  131OSM    C5F14129   1.554   2.639   7.077 -0.0879  0.3100  0.6133
  131OSM    H5F14130   1.523   2.536   7.106 -0.8970  0.6872  1.1396
  131OSM    H5G14131   1.470   2.711   7.068  0.7988  1.1308 -1.5016
  131OSM    C6F14132   1.652   2.692   7.183  0.4902 -0.4736 -1.0382
  131OSM    H6F14133   1.709   2.781   7.150  1.8257 -0.0157  2.1234
  131OSM    H6G14134   1.719   2.606   7.209  1.6727  1.2943  2.4770
  131OSM    C7F14135   1.577   2.736   7.311  0.8405  0.9312  0.0106
  131OSM    H7F14136   1.505   2.661   7.350  1.6093  0.9889  1.5993
  131OSM    H7G14137   1.534   2.837   7.293  0.0406  1.2046  3.0096
  131OSM    C8F14138   1.686   2.761   7.419  0.4172 -0.0105 -0.4260
  131OSM    H8F14139   1.756   2.841   7.388 -0.2306 -0.1874 -2.4558
  131OSM    H8G14140   1.742   2.667   7.438 -0.7649 -0.1381  3.3666
  131OSM    C9F14141   1.623   2.816   7.545 -0.2567  0.1512  0.1708
  131OSM    H9F14142   1.547   2.894   7.527  0.5402  0.4188 -2.4931
  131OSM   C10F14143   1.667   2.801   7.673  0.0475  0.7033 -0.4091
  131OSM   H10F14144   1.608   2.840   7.757  0.8529 -0.0449  0.5271
  131OSM   C11F14145   1.789   2.723   7.722  0.3415  0.0039  0.1808
  131OSM   H11F14146   1.879   2.784   7.703  0.1880 -0.0970 -0.9342
  131OSM   H11G14147   1.801   2.623   7.675 -2.2850 -0.3788  0.1568
  131OSM   C12F14148   1.779   2.685   7.872  0.7036  0.1462  0.6425
  131OSM   H12F14149   1.849   2.601   7.891 -0.8771 -0.6304  3.8255
  131OSM   H12G14150   1.678   2.659   7.911 -0.2600 -0.2319 -1.9354
  131OSM   C13F14151   1.816   2.802   7.982 -0.6672  0.4355  0.8731
  131OSM   H13F14152   1.781   2.893   7.929 -2.9217 -1.0445 -0.3808
  131OSM   H13G14153   1.924   2.819   7.996 -0.9998  2.3243  1.3861
  131OSM   C14F14154   1.747   2.781   8.121 -0.1269  0.0433 -0.0945
  131OSM   H14F14155   1.637   2.790   8.121 -0.3115 -0.6793  3.5231
  131OSM   H14G14156   1.771   2.869   8.185 -0.5408  0.8025 -0.9449
  131OSM   C15F14157   1.779   2.649   8.195 -0.0051 -0.7851 -0.4350
  131OSM   H15F14158   1.890   2.645   8.201  0.0214  0.6710  0.7463
  131OSM   H15G14159   1.752   2.554   8.145 -0.5837 -0.7407 -0.2167
  131OSM   C16F14160   1.715   2.653   8.336  0.1258 -0.5410 -0.0918
  131OSM   H16F14161   1.638   2.574   8.345 -0.6755  0.3058  0.5642
  131OSM   H16G14162   1.662   2.750   8.348  3.8383  1.6071  0.7043
  131OSM   C17F14163   1.819   2.643   8.449  0.2457 -0.1099  0.8917
  131OSM   H17F14164   1.895   2.724   8.447  0.6091 -0.4512  0.8423
  131OSM   H17G14165   1.861   2.541   8.446 -0.5101 -0.4327  1.0715
  131OSM   C18F14166   1.746   2.662   8.586  0.0324  0.7784 -0.2863
  131OSM   H18F14167   1.663   2.589   8.597  0.8210 -0.1844 -0.6570
  131OSM   H18G14168   1.724   2.768   8.610  0.6379  1.2662 -1.7424
  131OSM   H18H14169   1.825   2.649   8.663  1.6805  0.6156 -1.9448
  132OSM      N14170   4.283   6.112   6.029 -0.4562  0.0983 -0.4352
  132OSM    C1514171   4.156   6.066   5.961  0.2780 -0.4898 -0.1455
  132OSM   H15A14172   4.156   6.067   5.853  0.7137 -1.6051 -0.1574
  132OSM   H15B14173   4.079   6.130   6.003  0.6541 -0.4293  0.4683
  132OSM   H15C14174   4.134   5.965   5.990  0.0560 -1.1639 -2.4334
  132OSM    C1414175   4.402   6.035   5.973  0.3689  0.7042 -0.1216
  132OSM   H14A14176   4.496   6.059   6.020 -1.3172  1.4940  3.1417
  132OSM   H14B14177   4.413   6.043   5.866  2.3371  2.8941  0.1539
  132OSM   H14C14178   4.375   5.931   5.982  0.3419  0.6802 -0.4528
  132OSM    C1314179   4.292   6.259   5.997  0.2751 -0.1612 -0.5415
  132OSM   H13A14180   4.321   6.277   5.895 -2.6105  1.4467 -1.2022
  132OSM   H13B14181   4.358   6.304   6.070  0.5723 -2.5093  0.7467
  132OSM   H13C14182   4.200   6.316   6.002  1.3246  1.6887 -1.1283
  132OSM    C1214183   4.275   6.094   6.187 -0.1812  0.4300 -0.3218
  132OSM   H12A14184   4.178   6.134   6.215 -0.6019 -0.7765  0.0257
  132OSM   H12B14185   4.356   6.150   6.229  1.7860 -0.9172 -2.1267
  132OSM    C1114186   4.259   5.947   6.250  0.3408  0.0258  0.9015
  132OSM   H11A14187   4.259   5.952   6.361  2.3930  3.9009  0.9055
  132OSM   H11B14188   4.349   5.886   6.230 -1.0960 -1.4865 -1.4365
  132OSM      P14189   4.044   5.811   6.293  0.2854 -0.2183  0.3823
  132OSM    O1314190   3.946   5.736   6.213  0.0538  0.3130  0.4892
  132OSM    O1414191   4.112   5.740   6.402 -0.0422 -0.4495 -0.3666
  132OSM    O1114192   3.973   5.935   6.355  0.0189  0.2684 -0.1013
  132OSM    O1214193   4.142   5.882   6.195 -0.2410 -0.0468 -0.1191
  132OSM    C1S14194   3.879   5.938   6.463 -0.0637 -0.1139 -0.4179
  132OSM    H1S14195   3.847   5.835   6.487 -0.0613 -0.0180  0.0143
  132OSM    H1T14196   3.793   6.003   6.435 -1.1142 -1.9089 -1.5334
  132OSM     NF14197   3.848   6.004   6.703  0.1265 -0.1441 -0.1418
  132OSM    HNF14198   3.835   6.096   6.739 -1.7591  1.2366 -3.7991
  132OSM    C2S14199   3.948   5.998   6.596  0.0053 -0.2510 -0.7537
  132OSM    H2S14200   4.018   5.918   6.628 -2.3507 -1.2959  2.2484
  132OSM    C3S14201   4.020   6.134   6.571 -0.5962  0.3739  0.2518
  132OSM    H3S14202   3.941   6.211   6.553  0.9340  1.8123 -0.6829
  132OSM     O314203   4.109   6.137   6.460 -0.3598  0.5972 -0.0066
  132OSM    HO314204   4.089   6.056   6.412 -0.1583  0.6527 -0.1876
  132OSM    C4S14205   4.115   6.152   6.677 -0.1419 -0.7873 -0.2724
  132OSM    H4S14206   4.181   6.066   6.693  0.2453  0.0964  4.0918
  132OSM    C5S14207   4.124   6.259   6.766 -0.1737  0.0110  0.5494
  132OSM    H5S14208   4.056   6.342   6.742  1.4244  1.0811 -0.4640
  132OSM    C6S14209   4.218   6.282   6.880  0.2690 -0.9082 -0.1405
  132OSM    H6S14210   4.189   6.388   6.894 -1.0201 -1.1374 -0.8817
  132OSM    H6T14211   4.325   6.280   6.849  0.3709  2.4327 -0.4065
  132OSM    C7S14212   4.189   6.205   7.005  0.0893  1.0827 -0.7387
  132OSM    H7S14213   4.210   6.095   7.003 -1.1224  0.8329 -0.5057
  132OSM    H7T14214   4.080   6.214   7.025 -0.2645 -3.6432  0.8310
  132OSM    C8S14215   4.276   6.266   7.123  0.0006  0.0125  0.7253
  132OSM    H8S14216   4.302   6.373   7.109  2.2432 -0.7596 -1.9522
  132OSM    H8T14217   4.379   6.224   7.123  0.6335  1.5086  0.4464
  132OSM    C9S14218   4.206   6.228   7.252 -0.2512 -0.4306  0.1579
  132OSM    H9S14219   4.181   6.120   7.245 -1.0876 -0.4178  2.1975
  132OSM    H9T14220   4.102   6.268   7.258 -0.0447  0.4390 -1.3711
  132OSM   C10S14221   4.288   6.259   7.369 -0.5470  1.3105 -0.4083
  132OSM   H10S14222   4.284   6.369   7.387 -1.4601  0.6609  4.5578
  132OSM   H10T14223   4.393   6.226   7.354 -0.7269  0.0269  0.9790
  132OSM   C11S14224   4.226   6.191   7.493 -0.1510 -0.3657  0.0626
  132OSM   H11S14225   4.229   6.083   7.466  1.8269  0.2867 -2.8961
  132OSM   H11T14226   4.121   6.227   7.502  0.5124  1.6748  0.2095
  132OSM   C12S14227   4.308   6.202   7.620 -0.3236  0.1862  0.3941
  132OSM   H12S14228   4.308   6.306   7.659  1.1711  0.8873 -1.3175
  132OSM   H12T14229   4.416   6.175   7.609  0.1919  2.1168  0.2612
  132OSM   C13S14230   4.258   6.107   7.730 -0.2425 -0.5078 -0.8731
  132OSM   H13S14231   4.287   6.004   7.700  3.3816  1.3436 -4.5198
  132OSM   H13T14232   4.149   6.114   7.751  0.1809 -0.7939  1.8715
  132OSM   C14S14233   4.331   6.151   7.860 -0.5261  0.5961 -0.2559
  132OSM   H14S14234   4.321   6.259   7.881 -0.1091  0.5651  0.1231
  132OSM   H14T14235   4.439   6.148   7.834  0.0356 -3.9863  1.5818
  132OSM   C15S14236   4.295   6.078   7.991 -0.4916  0.0646  0.0600
  132OSM   H15S14237   4.336   5.975   7.980  1.5278  0.9578 -1.4784
  132OSM   H15T14238   4.184   6.075   7.990 -0.4906 -0.8340 -1.8713
  132OSM   C16S14239   4.352   6.137   8.119 -0.0298 -0.1697  0.7359
  132OSM   H16S14240   4.306   6.236   8.140  2.4975  1.2291  0.0881
  132OSM   H16T14241   4.459   6.144   8.089 -0.0357  0.9963  0.9506
  132OSM   C17S14242   4.336   6.042   8.243 -0.1403  0.2089 -0.6147
  132OSM   H17S14243   4.388   5.947   8.219 -1.7001 -0.7701 -0.2777
  132OSM   H17T14244   4.230   6.011   8.257  0.4520 -1.4063  0.5952
  132OSM   C18S14245   4.410   6.083   8.377  0.0878  0.0203  0.1003
  132OSM   H18S14246   4.356   6.165   8.429  0.0867  0.5348 -0.6961
  132OSM   H18T14247   4.510   6.126   8.356 -0.5198  1.1354 -0.7016
  132OSM   H18U14248   4.395   5.997   8.445 -1.9830  1.3875  1.5044
  132OSM    C1F14249   3.780   5.901   6.747 -0.3768  1.4263 -0.8531
  132OSM     OF14250   3.805   5.786   6.711  0.0745 -0.8522  0.5517
  132OSM    C2F14251   3.673   5.918   6.853  0.6497 -0.3387  0.1990
  132OSM    H2F14252   3.601   5.993   6.813 -0.4593 -1.2371  0.4434
  132OSM    H2G14253   3.713   5.964   6.946 -1.0743  0.5013  0.5568
  132OSM    C3F14254   3.599   5.792   6.898 -0.8149  0.5470  0.1803
  132OSM    H3F14255   3.677   5.716   6.921  0.2863  1.5276 -0.2212
  132OSM    H3G14256   3.542   5.766   6.807 -3.1926  3.4413  0.6907
  132OSM    C4F14257   3.499   5.805   7.013  0.2464  0.5988 -0.1040
  132OSM    H4F14258   3.443   5.710   7.031 -0.2144  0.6673 -1.1073
  132OSM    H4G14259   3.420   5.873   6.975 -0.7329 -1.3981 -1.8665
  132OSM    C5F14260   3.538   5.852   7.154 -0.0435  0.3441 -0.0809
  132OSM    H5F14261   3.589   5.948   7.135 -0.3193  0.6847  0.8588
  132OSM    H5G14262   3.613   5.786   7.203 -0.4054  0.7097  0.9926
  132OSM    C6F14263   3.422   5.870   7.258 -0.1302 -0.3132  0.4569
  132OSM    H6F14264   3.340   5.931   7.214  0.3950  0.7284  0.8847
  132OSM    H6G14265   3.474   5.925   7.339 -0.5562 -0.2705  0.7042
  132OSM    C7F14266   3.370   5.732   7.302  0.8253  0.5964  0.3715
  132OSM    H7F14267   3.455   5.661   7.309  0.9940  0.6292 -0.9793
  132OSM    H7G14268   3.328   5.679   7.214  2.6139  1.2077 -0.9303
  132OSM    C8F14269   3.284   5.737   7.435 -0.1087 -0.2574 -0.5082
  132OSM    H8F14270   3.256   5.631   7.454  2.3235 -0.5640  1.9642
  132OSM    H8G14271   3.193   5.800   7.430  0.0147 -0.1225 -1.2991
  132OSM    C9F14272   3.373   5.778   7.550  0.3270 -0.1102  0.1970
  132OSM    H9F14273   3.432   5.697   7.595  1.4501  0.1720 -0.7497
  132OSM   C10F14274   3.378   5.903   7.611 -0.2329 -0.0586  0.7267
  132OSM   H10F14275   3.439   5.925   7.699  1.3805 -0.8688 -0.1475
  132OSM   C11F14276   3.294   6.019   7.558  0.2779 -0.1998 -0.7284
  132OSM   H11F14277   3.257   5.995   7.456  0.7912  0.1158 -0.9979
  132OSM   H11G14278   3.362   6.107   7.547  0.1735 -0.0382 -0.1114
  132OSM   C12F14279   3.175   6.063   7.643  0.2204  0.3871 -0.4965
  132OSM   H12F14280   3.131   6.162   7.617  1.2819  0.9801 -0.1350
  132OSM   H12G14281   3.219   6.082   7.744  0.2582  0.4336 -0.5221
  132OSM   C13F14282   3.059   5.968   7.683 -0.2552 -0.6929  0.0857
  132OSM   H13F14283   3.110   5.869   7.681  2.6814  0.5407  3.2487
  132OSM   H13G14284   2.979   5.976   7.607 -0.5133  0.0730  0.4333
  132OSM   C14F14285   3.004   5.982   7.820 -0.0475 -0.5633 -0.2603
  132OSM   H14F14286   2.907   5.929   7.811  0.2094 -0.8758 -1.3459
  132OSM   H14G14287   2.977   6.088   7.839 -4.8239 -1.5340 -0.4355
  132OSM   C15F14288   3.081   5.920   7.940 -0.0649  0.1147 -0.5038
  132OSM   H15F14289   3.021   5.948   8.030 -1.5705  0.4526 -1.5598
  132OSM   H15G14290   3.187   5.950   7.936  0.0146 -0.2377 -1.2235
  132OSM   C16F14291   3.100   5.764   7.942 -0.1892 -0.2985  0.1864
  132OSM   H16F14292   3.194   5.746   7.999 -0.5370  1.1135  1.2656
  132OSM   H16G14293   3.118   5.727   7.839  0.7501 -1.1527  0.6442
  132OSM   C17F14294   2.994   5.683   8.002  1.2458  0.4623 -0.8454
  132OSM   H17F14295   2.995   5.585   7.950  1.4463 -0.1915  0.3413
  132OSM   H17G14296   2.891   5.723   7.993  1.0020  0.1501  0.4509
  132OSM   C18F14297   3.031   5.631   8.146 -0.1963  0.1033 -0.2393
  132OSM   H18F14298   2.945   5.606   8.211 -0.9988  2.2635 -0.3983
  132OSM   H18G14299   3.066   5.720   8.202 -1.4432  0.0363  0.6822
  132OSM   H18H14300   3.107   5.550   8.139  0.2806  0.4913  0.3870
  133SAPE     N14301   0.060   5.954  10.825  0.2319  0.6384  0.0557
  133SAPE   HN114302   0.102   6.049  10.836 -1.5677  1.3394  1.4327
  133SAPE   HN214303   0.028   5.918  10.917 -0.0336  0.4324 -0.1170
  133SAPE   HN314304   0.132   5.880  10.809 -0.4016 -0.1389  0.7212
  133SAPE   C1214305  -0.058   5.947  10.736 -0.5594 -0.3958  0.5295
  133SAPE  H12A14306  -0.038   6.014  10.650  0.1254 -4.0133 -2.3627
  133SAPE  H12B14307  -0.153   5.983  10.783  0.3100  1.6089  0.8870
  133SAPE   C1114308  -0.078   5.814  10.671  0.1806 -0.1666  0.5698
  133SAPE  H11A14309   0.017   5.778  10.625 -0.5295 -0.0523 -1.0597
  133SAPE  H11B14310  -0.144   5.823  10.582 -1.3135 -2.1599  1.3960
  133SAPE     P14311  -0.270   5.668  10.778  0.1752 -0.0775 -0.3809
  133SAPE   O1314312  -0.262   5.539  10.854 -0.3428 -0.5668 -0.3406
  133SAPE   O1414313  -0.362   5.774  10.836  0.2366  0.1415  0.3169
  133SAPE   O1214314  -0.119   5.716  10.764 -0.2338 -0.9485  0.7103
  133SAPE   O1114315  -0.301   5.641  10.622 -0.3646  0.5864 -1.1244
  133SAPE    C114316  -0.419   5.556  10.597  0.9175 -0.1701  0.4584
  133SAPE    HA14317  -0.419   5.462  10.656  0.9076 -1.7245 -1.8819
  133SAPE    HB14318  -0.514   5.611  10.612 -0.1285  0.1677 -5.2277
  133SAPE    C214319  -0.411   5.520  10.446 -0.4101 -0.5801  0.3230
  133SAPE    HS14320  -0.304   5.491  10.436 -0.4643 -0.4346 -0.7876
  133SAPE   O2114321  -0.454   5.631  10.368 -0.4034  0.4138  0.0172
  133SAPE   C2114322  -0.361   5.695  10.295 -0.0268  0.2989  0.1246
  133SAPE   O2214323  -0.243   5.664  10.293 -0.4685 -0.3716  0.1292
  133SAPE   C2214324  -0.416   5.817  10.219 -0.6376  0.4161 -0.3693
  133SAPE   H2R14325  -0.497   5.783  10.151 -0.0346 -1.3644 -0.2618
  133SAPE   H2S14326  -0.462   5.878  10.299 -2.0556 -1.2198  0.1286
  133SAPE    C314327  -0.497   5.399  10.405  0.4042 -0.2897 -0.1700
  133SAPE    HX14328  -0.606   5.418  10.409  0.2568  0.6055 -4.3413
  133SAPE    HY14329  -0.480   5.317  10.478 -2.2735  0.5592  1.5532
  133SAPE   O3114330  -0.467   5.352  10.272 -0.5849  0.1864  0.7821
  133SAPE   C3114331  -0.347   5.311  10.236 -0.3098  0.3011  0.8760
  133SAPE   O3214332  -0.259   5.270  10.313 -0.0473 -0.3688 -0.2358
  133SAPE   C3214333  -0.338   5.325  10.083 -0.6697 -0.0192 -0.2947
  133SAPE   H2X14334  -0.295   5.427  10.069 -2.6583  0.9972  0.5731
  133SAPE   H2Y14335  -0.442   5.336  10.044 -2.1191  0.1414  3.2267
  133SAPE   C2314336  -0.299   5.892  10.153 -0.3826 -0.1758 -0.6712
  133SAPE   H3R14337  -0.233   5.830  10.088 -0.2146 -0.1121 -0.5615
  133SAPE   H3S14338  -0.229   5.932  10.229 -1.7725 -0.3505  0.7320
  133SAPE   C2414339  -0.352   6.005  10.062 -0.0623 -0.0239  0.7001
  133SAPE   H4R14340  -0.259   6.052  10.023  1.6497 -1.7347  2.4581
  133SAPE   H4S14341  -0.402   6.081  10.126 -0.4528  1.0822 -0.8489
  133SAPE   C2514342  -0.441   5.950   9.951 -0.1781 -0.6429  0.0078
  133SAPE   H5R14343  -0.545   5.970   9.979 -0.0203  0.3744 -0.0860
  133SAPE   C2614344  -0.410   5.881   9.842 -0.2089  0.0723 -0.2921
  133SAPE   H6R14345  -0.491   5.865   9.770 -1.4177  1.2284  0.7450
  133SAPE   C2714346  -0.271   5.839   9.799  0.7160  0.0643 -0.5202
  133SAPE   H7R14347  -0.186   5.880   9.859  0.3778 -1.3134  0.9657
  133SAPE   H7S14348  -0.257   5.878   9.696  1.3236 -0.3877 -0.6119
  133SAPE   C2814349  -0.257   5.688   9.804 -0.6332 -0.6804  0.4029
  133SAPE   H8R14350  -0.327   5.639   9.873 -1.0466  0.0777  0.5201
  133SAPE   C2914351  -0.182   5.605   9.723  0.4473  0.0899  0.2477
  133SAPE   H9R14352  -0.196   5.499   9.746  1.6871 -0.0315  0.5323
  133SAPE  C21014353  -0.100   5.642   9.600 -0.1727 -0.0425  0.2295
  133SAPE  H10R14354   0.008   5.651   9.625  0.2958 -0.8951 -1.3368
  133SAPE  H10S14355  -0.125   5.747   9.577 -0.0669  0.2098  1.2025
  133SAPE  C21114356  -0.109   5.563   9.470 -0.6966 -0.0053  0.2025
  133SAPE  H11R14357  -0.037   5.481   9.459 -0.5443  0.0880  0.5030
  133SAPE  C21214358  -0.200   5.582   9.368 -0.0678  0.1883 -0.3937
  133SAPE  H12R14359  -0.198   5.514   9.282 -2.3998 -3.0637  1.8611
  133SAPE  C21314360  -0.307   5.679   9.360 -0.0285 -0.4470  0.5290
  133SAPE  H13R14361  -0.301   5.732   9.457 -0.2074 -0.8018  0.7371
  133SAPE  H13S14362  -0.401   5.620   9.362 -0.0148 -0.4745  0.3755
  133SAPE  C21414363  -0.302   5.774   9.247 -0.2193 -0.0714  0.6342
  133SAPE  H14R14364  -0.287   5.729   9.148 -2.4723  0.2374  0.0977
  133SAPE  C21514365  -0.337   5.907   9.245  0.2528  0.3659 -0.0471
  133SAPE  H15R14366  -0.322   5.965   9.152 -0.5423  1.4758  0.4970
  133SAPE  C21614367  -0.394   5.980   9.357  0.1021  0.1845 -0.3779
  133SAPE  H16R14368  -0.409   6.087   9.333  0.4864 -0.0802 -1.9452
  133SAPE  H16S14369  -0.326   5.978   9.445 -0.8953 -3.5316  0.5193
  133SAPE  C21714370  -0.527   5.912   9.409  0.3880 -0.4129 -0.0009
  133SAPE  H17R14371  -0.500   5.811   9.447 -0.3518 -0.9558 -0.8815
  133SAPE  H17S14372  -0.598   5.907   9.324 -0.8717  0.3446  0.9709
  133SAPE  C21814373  -0.589   5.997   9.524 -0.3131 -0.6358 -0.0043
  133SAPE  H18R14374  -0.606   6.099   9.483  2.1768 -0.6414 -1.2619
  133SAPE  H18S14375  -0.517   6.000   9.609 -0.1153 -3.3153 -0.0044
  133SAPE  C21914376  -0.723   5.948   9.572  1.0539  0.4093 -0.1822
  133SAPE  H19R14377  -0.714   5.840   9.599 -1.6089 -0.4583 -2.2724
  133SAPE  H19S14378  -0.798   5.948   9.489 -0.0173  1.1998  0.7630
  133SAPE  C22014379  -0.791   6.020   9.689 -0.1110 -0.0482 -0.3423
  133SAPE  H20R14380  -0.728   6.021   9.781 -1.9059 -3.5426  1.1390
  133SAPE  H20S14381  -0.881   5.960   9.713 -0.2511  0.2934 -0.0083
  133SAPE  H20T14382  -0.819   6.123   9.661  1.3387  0.2283 -0.8617
  133SAPE   C3314383  -0.246   5.215  10.025  0.8410  0.1955 -0.1777
  133SAPE   H3X14384  -0.281   5.112  10.045 -1.3111  0.8622 -0.1996
  133SAPE   H3Y14385  -0.142   5.224  10.064  0.1863  1.4514  1.3592
  133SAPE   C3414386  -0.235   5.239   9.874  0.0933  0.9821 -0.5317
  133SAPE   H4X14387  -0.159   5.163   9.844 -2.8849 -3.1670  1.3190
  133SAPE   H4Y14388  -0.191   5.337   9.847  3.1996  0.3895  1.7960
  133SAPE   C3514389  -0.364   5.211   9.789 -0.1981 -0.4992  0.0284
  133SAPE   H5X14390  -0.442   5.284   9.818 -1.4286 -2.3793  1.7255
  133SAPE   H5Y14391  -0.409   5.114   9.819 -0.1936 -0.0350  1.6474
  133SAPE   C3614392  -0.336   5.227   9.642  0.5043 -0.4414 -0.4779
  133SAPE   H6X14393  -0.277   5.145   9.596  1.2216 -0.0081 -0.3462
  133SAPE   H6Y14394  -0.285   5.322   9.615  1.4250 -0.3594  1.3746
  133SAPE   C3714395  -0.469   5.249   9.561 -0.2595  0.5401 -0.3394
  133SAPE   H7X14396  -0.519   5.341   9.601 -1.9044 -0.3374 -0.2777
  133SAPE   H7Y14397  -0.546   5.171   9.574  0.9589 -1.1121 -2.3931
  133SAPE   C3814398  -0.450   5.269   9.407 -0.7208  0.4402 -0.0967
  133SAPE   H8X14399  -0.472   5.171   9.360 -0.6126  0.8370 -1.0010
  133SAPE   H8Y14400  -0.345   5.300   9.391 -0.1036 -0.7920  1.4066
  133SAPE   C3914401  -0.545   5.371   9.339  0.4995  0.6616 -0.0006
  133SAPE   H9X14402  -0.550   5.459   9.408  0.4814 -1.5609  3.0700
  133SAPE   H9Y14403  -0.644   5.323   9.349  0.7737 -0.2976 -1.6603
  133SAPE  C31014404  -0.500   5.403   9.199  0.2103  0.6399  0.0769
  133SAPE  H10X14405  -0.389   5.409   9.189  0.2470 -1.9826 -2.7036
  133SAPE  H10Y14406  -0.557   5.490   9.160  2.0490  0.8256 -2.4903
  133SAPE  C31114407  -0.536   5.288   9.106 -0.1740 -0.0835 -0.3633
  133SAPE  H11X14408  -0.641   5.254   9.106 -1.0207  2.3181 -0.5843
  133SAPE  H11Y14409  -0.473   5.199   9.128  0.0143  0.1418  0.0239
  133SAPE  C31214410  -0.508   5.321   8.962 -0.2140 -0.8675  0.4224
  133SAPE  H12X14411  -0.401   5.341   8.941 -0.6786  0.1155 -1.2377
  133SAPE  H12Y14412  -0.575   5.408   8.945  1.7540  0.5023 -0.6925
  133SAPE  C31314413  -0.550   5.218   8.851 -0.0869 -1.3344 -0.3852
  133SAPE  H13X14414  -0.649   5.172   8.871 -0.9718  0.1337 -1.2081
  133SAPE  H13Y14415  -0.468   5.144   8.834  0.8906 -0.7478  1.5387
  133SAPE  C31414416  -0.570   5.279   8.712 -0.5978 -0.6994  0.6152
  133SAPE  H14X14417  -0.638   5.366   8.716 -0.6908 -0.7625  0.4373
  133SAPE  H14Y14418  -0.633   5.209   8.653 -1.3964  0.7464 -0.2937
  133SAPE  C31514419  -0.437   5.315   8.646 -0.1725  0.2341  0.9191
  133SAPE  H15X14420  -0.366   5.230   8.659 -0.4002 -0.1515 -0.2071
  133SAPE  H15Y14421  -0.399   5.409   8.692 -0.5439  0.2030  1.2886
  133SAPE  C31614422  -0.445   5.343   8.493  0.8965 -0.6923 -0.1372
  133SAPE  H16X14423  -0.507   5.435   8.483  0.1052 -1.0394  1.2791
  133SAPE  H16Y14424  -0.509   5.265   8.447  0.3744 -0.5447  0.3256
  133SAPE  C31714425  -0.314   5.365   8.425  0.1983 -0.2598  0.3348
  133SAPE  H17X14426  -0.238   5.286   8.440  0.7625  0.0425 -0.8717
  133SAPE  H17Y14427  -0.266   5.458   8.463 -0.3199  1.1036 -2.1365
  133SAPE  C31814428  -0.326   5.384   8.271 -0.4692  0.5572 -0.1672
  133SAPE  H18X14429  -0.250   5.316   8.226  0.1748  1.4742 -0.4960
  133SAPE  H18Y14430  -0.285   5.485   8.249  1.9653 -0.0279  1.2449
  133SAPE  H18Z14431  -0.426   5.350   8.236 -0.5012 -1.9445  1.9795
  134SAPE     N14432   3.004   6.658  11.033 -0.0158 -0.1620  0.4269
  134SAPE   HN114433   3.008   6.759  11.058  0.8044 -0.3681  1.1650
  134SAPE   HN214434   2.907   6.622  11.041 -0.9811  2.3007  0.5255
  134SAPE   HN314435   3.075   6.610  11.093  0.1127 -0.1609  0.2760
  134SAPE   C1214436   3.049   6.644  10.891 -0.1078  0.7810 -0.1283
  134SAPE  H12A14437   3.075   6.537  10.876 -0.3281  0.7671 -0.4055
  134SAPE  H12B14438   3.142   6.704  10.875 -0.4911  0.7978 -2.7269
  134SAPE   C1114439   2.937   6.684  10.792 -0.1189 -0.4025 -0.3340
  134SAPE  H11A14440   2.858   6.607  10.806 -0.5855  0.2032  0.4132
  134SAPE  H11B14441   2.978   6.675  10.690  0.1894 -0.2897 -0.2202
  134SAPE     P14442   2.753   6.858  10.835  0.0380  0.0386 -0.0568
  134SAPE   O1314443   2.688   6.769  10.932  0.3991 -0.3171  0.3921
  134SAPE   O1414444   2.749   7.003  10.858 -1.0404 -0.2103  0.0894
  134SAPE   O1214445   2.907   6.818  10.822 -0.3766  0.4369  0.6213
  134SAPE   O1114446   2.696   6.835  10.689 -0.0163 -0.3097 -0.2235
  134SAPE    C114447   2.742   6.913  10.584  0.0333 -0.9006  0.4076
  134SAPE    HA14448   2.688   7.010  10.581  1.4728 -0.0834 -0.5463
  134SAPE    HB14449   2.845   6.950  10.605 -1.2003  2.8260  0.6321
  134SAPE    C214450   2.733   6.848  10.448 -0.2235  0.2402  0.1954
  134SAPE    HS14451   2.625   6.828  10.430 -0.4889  0.2057  1.7351
  134SAPE   O2114452   2.813   6.730  10.452 -0.6062 -0.1442  0.1022
  134SAPE   C2114453   2.761   6.615  10.407 -0.6002  0.2597 -0.1379
  134SAPE   O2214454   2.647   6.598  10.371 -0.2679 -0.7066  0.0044
  134SAPE   C2214455   2.879   6.512  10.416  0.0287  0.2883 -0.0432
  134SAPE   H2R14456   2.976   6.566  10.425 -0.5497  1.4701 -0.7947
  134SAPE   H2S14457   2.863   6.455  10.510  0.4923  2.7968  1.6485
  134SAPE    C314458   2.774   6.941  10.329  0.2785  0.3012 -0.3707
  134SAPE    HX14459   2.878   6.978  10.337  0.7265 -0.6101 -1.5660
  134SAPE    HY14460   2.712   7.032  10.338  1.1969  0.7190  2.9913
  134SAPE   O3114461   2.752   6.860  10.206  0.4494 -0.3197 -0.4127
  134SAPE   C3114462   2.636   6.888  10.135 -0.0078  0.0960  0.5270
  134SAPE   O3214463   2.554   6.968  10.175 -0.1605 -0.1893 -0.0917
  134SAPE   C3214464   2.629   6.822   9.995 -0.2526  0.2267 -0.1283
  134SAPE   H2X14465   2.584   6.896   9.925  1.3204  0.5083 -0.8990
  134SAPE   H2Y14466   2.562   6.734  10.009  0.3217 -0.2366 -0.2414
  134SAPE   C2314467   2.881   6.412  10.298 -0.3916 -0.1161  0.2686
  134SAPE   H3R14468   2.815   6.447  10.215 -0.0579 -0.8829 -0.3269
  134SAPE   H3S14469   2.847   6.312  10.334 -1.2765  0.7866  2.0571
  134SAPE   C2414470   3.024   6.393  10.237 -0.0181  0.2879 -0.4531
  134SAPE   H4R14471   3.072   6.493  10.234 -1.9858  1.3176  0.8420
  134SAPE   H4S14472   3.020   6.345  10.137  0.0782 -3.0432  0.9975
  134SAPE   C2514473   3.122   6.306  10.313  0.5466  0.0913  0.2418
  134SAPE   H5R14474   3.088   6.266  10.409 -1.3297  0.2891 -0.3073
  134SAPE   C2614475   3.246   6.270  10.281 -0.0816  0.0306 -0.2458
  134SAPE   H6R14476   3.279   6.184  10.342 -2.0886 -0.3065  0.4553
  134SAPE   C2714477   3.315   6.297  10.146  0.2877 -0.3389  0.0802
  134SAPE   H7R14478   3.251   6.354  10.076 -2.1257 -1.4386  1.2679
  134SAPE   H7S14479   3.330   6.200  10.094 -2.6350  0.2334 -2.0224
  134SAPE   C2814480   3.442   6.365  10.177  0.1046  0.1730  0.5514
  134SAPE   H8R14481   3.496   6.350  10.272  0.1051  0.8964  0.6716
  134SAPE   C2914482   3.502   6.421  10.073 -0.3151  0.5059  0.7426
  134SAPE   H9R14483   3.599   6.473  10.086  0.7147 -1.0372 -0.3923
  134SAPE  C21014484   3.454   6.416   9.925 -0.3215 -0.3155 -0.2403
  134SAPE  H10R14485   3.347   6.445   9.919 -0.6826 -1.2766  1.0047
  134SAPE  H10S14486   3.457   6.312   9.886  0.9195  0.4392 -2.3190
  134SAPE  C21114487   3.536   6.510   9.827  0.8556  1.0083 -0.8558
  134SAPE  H11R14488   3.601   6.580   9.882 -0.6198  1.9160 -0.2026
  134SAPE  C21214489   3.531   6.510   9.696 -0.0496  0.8413 -0.7530
  134SAPE  H12R14490   3.602   6.579   9.649  0.4947  1.1145  0.4177
  134SAPE  C21314491   3.449   6.426   9.598 -0.0744 -0.0488  0.0728
  134SAPE  H13R14492   3.405   6.504   9.531 -0.5126  0.7617  1.2585
  134SAPE  H13S14493   3.365   6.390   9.661 -0.8845  1.5082 -0.0485
  134SAPE  C21414494   3.515   6.310   9.521  0.6054 -0.5815 -0.6500
  134SAPE  H14R14495   3.597   6.270   9.582 -0.2344  0.6207  1.3855
  134SAPE  C21514496   3.476   6.263   9.401 -0.7960 -0.0561  0.0751
  134SAPE  H15R14497   3.540   6.187   9.353  0.7122  1.7419 -0.9254
  134SAPE  C21614498   3.373   6.333   9.313  0.4281 -0.6318 -0.4883
  134SAPE  H16R14499   3.318   6.413   9.368 -0.2555 -0.1850 -1.7791
  134SAPE  H16S14500   3.294   6.257   9.295  1.2716 -1.8052  0.5797
  134SAPE  C21714501   3.418   6.400   9.184  0.2322  0.0016  0.9740
  134SAPE  H17R14502   3.508   6.462   9.202  1.9046 -1.8299 -0.5986
  134SAPE  H17S14503   3.335   6.466   9.150  0.1489 -0.6031 -0.0495
  134SAPE  C21814504   3.437   6.295   9.074 -0.3781 -0.2698 -0.1044
  134SAPE  H18R14505   3.347   6.231   9.062  0.2653 -1.1141 -0.5149
  134SAPE  H18S14506   3.527   6.235   9.099 -1.4651 -1.1497  2.0592
  134SAPE  C21914507   3.466   6.369   8.944 -0.4082  0.5096 -0.5820
  134SAPE  H19R14508   3.564   6.416   8.967  0.2513 -0.8963 -0.3668
  134SAPE  H19S14509   3.391   6.448   8.926 -2.0359 -0.3085  2.0490
  134SAPE  C22014510   3.503   6.285   8.821  0.5159 -0.3336  0.1713
  134SAPE  H20R14511   3.415   6.248   8.764  1.9671 -2.1605 -0.9794
  134SAPE  H20S14512   3.561   6.195   8.848  1.5289  0.4585  0.6973
  134SAPE  H20T14513   3.564   6.346   8.752 -1.6669  0.6391 -1.0232
  134SAPE   C3314514   2.770   6.789   9.931  0.7723  0.0331  0.2006
  134SAPE   H3X14515   2.797   6.684   9.956  0.2218 -0.0841  0.3265
  134SAPE   H3Y14516   2.844   6.857   9.978  1.4938 -0.7074  0.1532
  134SAPE   C3414517   2.786   6.818   9.778 -0.3135  0.0387 -0.6409
  134SAPE   H4X14518   2.896   6.831   9.762  0.6711 -3.8365  1.7048
  134SAPE   H4Y14519   2.740   6.917   9.759  0.2083  0.0483 -1.9867
  134SAPE   C3514520   2.717   6.721   9.685  0.5235 -0.4055 -0.1891
  134SAPE   H5X14521   2.609   6.733   9.712  0.2974  1.8119 -1.8284
  134SAPE   H5Y14522   2.749   6.616   9.702  1.0866 -0.3826 -1.0890
  134SAPE   C3614523   2.742   6.771   9.537 -0.4691  0.1706 -0.0602
  134SAPE   H6X14524   2.839   6.825   9.528 -0.0380 -0.5304  0.2890
  134SAPE   H6Y14525   2.665   6.847   9.512 -1.3239 -0.3505  0.9106
  134SAPE   C3714526   2.717   6.660   9.430 -0.0856  0.8258  0.0563
  134SAPE   H7X14527   2.631   6.600   9.467  0.0467 -0.0109 -0.9360
  134SAPE   H7Y14528   2.793   6.578   9.422 -1.6240 -0.6773  0.1636
  134SAPE   C3814529   2.712   6.729   9.297  0.3964 -0.0598 -0.3984
  134SAPE   H8X14530   2.812   6.775   9.284 -0.1230  0.9182 -1.0071
  134SAPE   H8Y14531   2.637   6.811   9.301  1.0867  0.5542  0.5347
  134SAPE   C3914532   2.684   6.645   9.172  0.3931 -0.3143 -0.3094
  134SAPE   H9X14533   2.583   6.600   9.174 -0.4974  1.5936 -0.9873
  134SAPE   H9Y14534   2.759   6.563   9.164 -0.3822 -0.9638 -1.1365
  134SAPE  C31014535   2.711   6.735   9.046  0.1658  0.1471  0.5717
  134SAPE  H10X14536   2.810   6.784   9.041  0.8466 -1.0052  2.0890
  134SAPE  H10Y14537   2.637   6.817   9.061  1.3021  0.9699  1.9871
  134SAPE  C31114538   2.680   6.660   8.916  0.4986  0.0032  0.8349
  134SAPE  H11X14539   2.580   6.613   8.903  0.5456 -1.0010  3.5280
  134SAPE  H11Y14540   2.750   6.574   8.919  0.0575 -0.6640 -2.7138
  134SAPE  C31214541   2.735   6.747   8.797  0.2533 -0.5260 -0.1175
  134SAPE  H12X14542   2.829   6.791   8.838 -1.6983  2.5119  1.4584
  134SAPE  H12Y14543   2.677   6.841   8.784  0.3865 -0.2813  1.0065
  134SAPE  C31314544   2.751   6.679   8.663  0.4214 -0.7360 -0.1194
  134SAPE  H13X14545   2.801   6.580   8.674 -0.5972 -1.1900  0.5968
  134SAPE  H13Y14546   2.803   6.746   8.591 -0.1079 -1.8202 -1.5701
  134SAPE  C31414547   2.610   6.669   8.598 -0.7384 -0.0541 -0.5895
  134SAPE  H14X14548   2.564   6.770   8.601 -1.8273 -0.5467  1.8689
  134SAPE  H14Y14549   2.550   6.599   8.661  1.5980 -1.9541 -0.3316
  134SAPE  C31514550   2.610   6.627   8.447  0.5061 -0.6144  0.6739
  134SAPE  H15X14551   2.656   6.527   8.431 -1.5231 -1.8366  2.0264
  134SAPE  H15Y14552   2.668   6.702   8.389 -2.5145  0.3154 -1.3625
  134SAPE  C31614553   2.471   6.626   8.389  0.2449  0.0138  0.3909
  134SAPE  H16X14554   2.420   6.717   8.427  1.1905  0.5138  0.5086
  134SAPE  H16Y14555   2.418   6.535   8.423 -1.2635 -0.0093 -1.8291
  134SAPE  C31714556   2.469   6.622   8.234  0.1107  0.2063 -0.0653
  134SAPE  H17X14557   2.542   6.547   8.198 -1.0654 -0.9158 -0.1534
  134SAPE  H17Y14558   2.499   6.727   8.214  2.0603 -0.1495  0.7501
  134SAPE  C31814559   2.333   6.588   8.166  0.0706 -0.0318 -0.4180
  134SAPE  H18X14560   2.316   6.480   8.183 -0.9465  0.2868  0.7307
  134SAPE  H18Y14561   2.350   6.616   8.060 -0.3289  0.6753 -0.3028
  134SAPE  H18Z14562   2.245   6.642   8.206 -0.0760 -1.5640  1.4665
  135SAPE     N14563   1.252   5.020  10.688  0.2586 -0.0820  0.4801
  135SAPE   HN114564   1.235   4.921  10.717 -0.8166 -0.2999 -0.7690
  135SAPE   HN214565   1.321   5.069  10.748 -0.7243  1.9394  0.0206
  135SAPE   HN314566   1.164   5.076  10.691  0.5353  0.3021  2.1915
  135SAPE   C1214567   1.325   5.021  10.559  0.1355  0.1899 -0.0942
  135SAPE  H12A14568   1.251   5.000  10.478 -0.8869  2.1279  0.2773
  135SAPE  H12B14569   1.404   4.943  10.564  0.4219  0.5691  1.8993
  135SAPE   C1114570   1.396   5.149  10.528 -0.4343 -0.4579  0.5292
  135SAPE  H11A14571   1.334   5.228  10.481  0.8654  0.3587  0.1083
  135SAPE  H11B14572   1.465   5.123  10.445 -0.1877 -0.0286  0.5917
  135SAPE     P14573   1.604   5.162  10.679 -0.3764  0.1700  0.1462
  135SAPE   O1314574   1.659   5.224  10.802 -0.1028  0.7424  0.3274
  135SAPE   O1414575   1.608   5.015  10.676  0.0752 -0.0829 -0.0341
  135SAPE   O1214576   1.453   5.199  10.653 -0.2116 -0.5106  0.2279
  135SAPE   O1114577   1.683   5.226  10.561  0.1493  0.1694 -0.6283
  135SAPE    C114578   1.667   5.366  10.530 -0.1659 -0.1388  0.7630
  135SAPE    HA14579   1.567   5.398  10.494  1.2052 -0.1198 -3.5523
  135SAPE    HB14580   1.686   5.432  10.618 -0.3461  0.4534  0.3640
  135SAPE    C214581   1.765   5.409  10.412 -0.0347  0.3867  0.0860
  135SAPE    HS14582   1.754   5.517  10.390  0.1379  0.5657  0.8405
  135SAPE   O2114583   1.749   5.325  10.295  0.1493  0.1786 -0.2505
  135SAPE   C2114584   1.647   5.351  10.218  0.0641  0.4704 -0.5838
  135SAPE   O2214585   1.589   5.452  10.223  0.2169 -0.5973 -0.5721
  135SAPE   C2214586   1.630   5.224  10.139  0.5828 -0.2337 -0.9973
  135SAPE   H2R14587   1.663   5.146  10.210 -1.3220  0.6989  1.0527
  135SAPE   H2S14588   1.521   5.206  10.126  1.0159 -2.2761 -2.2195
  135SAPE    C314589   1.915   5.391  10.460 -0.7188  0.4521 -0.7835
  135SAPE    HX14590   1.924   5.281  10.471 -0.9777  0.4789 -0.2834
  135SAPE    HY14591   1.914   5.442  10.558 -0.7126 -0.2936 -0.3877
  135SAPE   O3114592   2.016   5.435  10.368 -0.0785 -0.1422 -0.2051
  135SAPE   C3114593   2.018   5.565  10.352 -0.0605  0.3862  0.2741
  135SAPE   O3214594   1.940   5.641  10.402  0.2261  0.3921 -0.0563
  135SAPE   C3214595   2.139   5.597  10.257  0.1855  0.1898 -0.5363
  135SAPE   H2X14596   2.175   5.502  10.212  1.6428 -0.4348  1.7541
  135SAPE   H2Y14597   2.221   5.641  10.317 -1.9615  0.3664  2.5404
  135SAPE   C2314598   1.687   5.221   9.997  0.2609 -0.6349 -0.5680
  135SAPE   H3R14599   1.697   5.324   9.955 -2.8031 -0.4005 -0.9540
  135SAPE   H3S14600   1.622   5.159   9.932 -0.0639 -3.0224  1.8813
  135SAPE   C2414601   1.823   5.148   9.994  0.4745  0.5712 -0.2783
  135SAPE   H4R14602   1.851   5.142   9.887 -2.1867 -1.2047 -0.9841
  135SAPE   H4S14603   1.815   5.045  10.037  2.1973  0.1699 -0.8414
  135SAPE   C2514604   1.914   5.231  10.074  0.2682 -0.1898 -0.5295
  135SAPE   H5R14605   1.932   5.197  10.177 -2.4578  1.5569  0.6019
  135SAPE   C2614606   1.971   5.350  10.035  0.4782  1.0798  0.5154
  135SAPE   H6R14607   2.043   5.401  10.101  1.0718  0.0893  0.6636
  135SAPE   C2714608   1.970   5.405   9.891  0.4143 -0.2979 -0.2317
  135SAPE   H7R14609   1.927   5.332   9.819  0.2996 -0.5160  0.0539
  135SAPE   H7S14610   2.072   5.423   9.853  0.6845 -0.7499  0.2564
  135SAPE   C2814611   1.888   5.534   9.868 -0.0042  0.2563 -0.4053
  135SAPE   H8R14612   1.894   5.614   9.943  1.4860 -1.4489  1.4115
  135SAPE   C2914613   1.826   5.558   9.753  0.0233  0.3433 -0.3737
  135SAPE   H9R14614   1.781   5.658   9.744 -1.5653 -0.0541  2.0983
  135SAPE  C21014615   1.818   5.482   9.627 -0.1219 -0.6470 -0.3436
  135SAPE  H10R14616   1.710   5.455   9.624 -0.6105  1.0761  0.4180
  135SAPE  H10S14617   1.882   5.391   9.619 -1.2867 -1.6876  1.4160
  135SAPE  C21114618   1.854   5.564   9.510 -0.3980  0.2619 -0.0140
  135SAPE  H11R14619   1.944   5.625   9.531  1.1247 -1.9656  0.2653
  135SAPE  C21214620   1.808   5.547   9.383  0.1115 -0.0798  0.9451
  135SAPE  H12R14621   1.864   5.603   9.306 -1.4087  0.8345  0.4633
  135SAPE  C21314622   1.695   5.449   9.340 -1.1963  0.1966  0.0293
  135SAPE  H13R14623   1.637   5.496   9.258 -1.4704  1.1104  0.7387
  135SAPE  H13S14624   1.614   5.445   9.416  0.1962  0.0748  1.5568
  135SAPE  C21414625   1.750   5.310   9.305  0.8812  0.3828  0.0002
  135SAPE  H14R14626   1.790   5.251   9.389  1.0185  0.1572 -0.2236
  135SAPE  C21514627   1.752   5.253   9.181 -0.2798 -0.3966  0.0093
  135SAPE  H15R14628   1.796   5.152   9.170  2.2787  0.4972  1.2215
  135SAPE  C21614629   1.710   5.317   9.048 -0.3343  0.3956 -0.8487
  135SAPE  H16R14630   1.709   5.428   9.042  1.4221  0.6071  1.3364
  135SAPE  H16S14631   1.603   5.290   9.035 -0.9626  0.7413  2.5718
  135SAPE  C21714632   1.807   5.270   8.932  0.1626  0.5223 -0.4513
  135SAPE  H17R14633   1.804   5.161   8.915  1.1569  0.3171  0.6021
  135SAPE  H17S14634   1.911   5.286   8.966 -0.0381 -2.0270  1.5987
  135SAPE  C21814635   1.803   5.343   8.793  0.5314 -0.2354  0.5432
  135SAPE  H18R14636   1.888   5.308   8.731  1.9479  1.5924  1.3337
  135SAPE  H18S14637   1.818   5.453   8.803  1.2161 -0.4662  2.4110
  135SAPE  C21914638   1.676   5.326   8.714  1.2049 -0.4351  0.4162
  135SAPE  H19R14639   1.707   5.367   8.615  0.2950  0.5549  0.5215
  135SAPE  H19S14640   1.605   5.400   8.756  2.2924  1.3585 -0.7531
  135SAPE  C22014641   1.624   5.182   8.699 -0.2358  0.5836  0.2135
  135SAPE  H20R14642   1.527   5.176   8.646  0.0098 -2.1647 -0.0664
  135SAPE  H20S14643   1.612   5.143   8.802  1.2636  0.6500  0.4396
  135SAPE  H20T14644   1.700   5.121   8.645 -2.0541 -0.5838 -1.1646
  135SAPE   C3314645   2.103   5.695  10.145  0.1869 -0.9686  0.3721
  135SAPE   H3X14646   2.102   5.800  10.180 -0.5348 -0.3423 -1.4104
  135SAPE   H3Y14647   1.999   5.675  10.113  0.3215 -0.3952 -0.4400
  135SAPE   C3414648   2.194   5.678  10.021 -0.3453 -0.1091 -0.1496
  135SAPE   H4X14649   2.168   5.582   9.971  1.3789 -0.7424  0.0939
  135SAPE   H4Y14650   2.301   5.664  10.047 -0.5546 -0.2328  0.6470
  135SAPE   C3514651   2.173   5.799   9.931  0.2226 -0.1873 -0.0341
  135SAPE   H5X14652   2.175   5.897   9.983 -1.2790 -0.5092  0.6907
  135SAPE   H5Y14653   2.069   5.787   9.894  0.3577  0.4811 -0.6489
  135SAPE   C3614654   2.259   5.784   9.801  0.0483  0.2629 -1.0084
  135SAPE   H6X14655   2.272   5.674   9.807 -0.7548  0.2516  2.0665
  135SAPE   H6Y14656   2.356   5.832   9.828 -1.2081  0.9346  2.9218
  135SAPE   C3714657   2.201   5.840   9.668 -0.5360  0.6128 -0.6371
  135SAPE   H7X14658   2.212   5.951   9.659  3.3899  0.4330  0.4254
  135SAPE   H7Y14659   2.101   5.795   9.648  0.0255 -1.8850  1.7134
  135SAPE   C3814660   2.287   5.785   9.555  0.3137  0.0253  0.2876
  135SAPE   H8X14661   2.310   5.680   9.583  2.8535  0.6680  0.8938
  135SAPE   H8Y14662   2.383   5.840   9.546  0.3498 -0.2157 -1.0596
  135SAPE   C3914663   2.213   5.796   9.424  0.1144  0.1733 -0.3666
  135SAPE   H9X14664   2.204   5.906   9.416 -1.3778  0.4631  3.2804
  135SAPE   H9Y14665   2.115   5.744   9.433  0.4103 -0.2684  0.3542
  135SAPE  C31014666   2.295   5.728   9.321  0.0443 -1.0146  0.3783
  135SAPE  H10X14667   2.275   5.619   9.320  1.2731 -1.2658 -1.6180
  135SAPE  H10Y14668   2.404   5.744   9.335 -0.0996  1.2007 -0.6681
  135SAPE  C31114669   2.268   5.777   9.176  0.2050 -0.6645  0.0673
  135SAPE  H11X14670   2.350   5.737   9.112  1.2863  1.6631 -0.1321
  135SAPE  H11Y14671   2.274   5.888   9.175 -1.4671 -0.5487  0.0521
  135SAPE  C31214672   2.136   5.719   9.115 -0.4006 -0.7616  0.1283
  135SAPE  H12X14673   2.049   5.774   9.156  0.3065  2.2964 -2.1289
  135SAPE  H12Y14674   2.138   5.611   9.142 -2.1897 -1.3486 -1.8596
  135SAPE  C31314675   2.132   5.736   8.959 -0.5109  0.4504  0.0680
  135SAPE  H13X14676   2.225   5.694   8.915 -0.8938 -0.1378 -0.1939
  135SAPE  H13Y14677   2.119   5.841   8.927 -1.0228  0.9136  1.6866
  135SAPE  C31414678   2.019   5.659   8.902  0.6288  0.5298  0.9288
  135SAPE  H14X14679   1.925   5.700   8.945 -1.2527 -1.9501 -0.5779
  135SAPE  H14Y14680   2.020   5.553   8.934 -0.7281  0.1655 -0.1398
  135SAPE  C31514681   2.005   5.660   8.750  0.6385  0.2236  0.1651
  135SAPE  H15X14682   1.996   5.763   8.710  4.3623  1.2367  1.4651
  135SAPE  H15Y14683   1.923   5.591   8.720 -0.8623  1.3492  1.4976
  135SAPE  C31614684   2.128   5.603   8.675 -0.1707 -0.8616  1.1038
  135SAPE  H16X14685   2.167   5.510   8.722  0.1792 -1.0309  0.4914
  135SAPE  H16Y14686   2.209   5.678   8.687  0.3110 -0.7726 -1.8417
  135SAPE  C31714687   2.118   5.591   8.519 -1.2354  0.0918  0.3103
  135SAPE  H17X14688   2.223   5.591   8.481 -1.0801 -0.3199  0.7351
  135SAPE  H17Y14689   2.073   5.686   8.484 -0.2262  0.4471 -0.0694
  135SAPE  C31814690   2.045   5.465   8.477  0.6217 -0.1212 -0.0012
  135SAPE  H18X14691   2.098   5.377   8.520  0.5779  1.5040  3.8366
  135SAPE  H18Y14692   2.032   5.453   8.368  0.1542 -0.9667  0.1421
  135SAPE  H18Z14693   1.941   5.469   8.516  0.5647  1.4768 -0.2584
  136SAPE     N14694   3.152   3.942  10.997  0.2975 -0.0531 -0.0648
  136SAPE   HN114695   3.126   3.910  10.901  0.5220 -0.9290  0.1561
  136SAPE   HN214696   3.069   3.924  11.056  0.4154 -1.4428 -0.2909
  136SAPE   HN314697   3.166   4.044  10.986 -2.1350  0.2637 -0.8711
  136SAPE   C1214698   3.272   3.873  11.053  0.1675  0.8246  0.1601
  136SAPE  H12A14699   3.283   3.897  11.161 -1.1452  4.2443 -0.3314
  136SAPE  H12B14700   3.364   3.895  10.995  0.4577  0.6391  0.5450
  136SAPE   C1114701   3.241   3.723  11.044  0.0090  0.9565  0.0966
  136SAPE  H11A14702   3.236   3.702  10.935  0.6451 -1.9761  0.5653
  136SAPE  H11B14703   3.146   3.701  11.097 -0.9956  0.8484 -1.6789
  136SAPE     P14704   3.367   3.498  11.076  0.6060 -0.0956 -0.0016
  136SAPE   O1314705   3.498   3.451  11.129 -0.2815  0.3615  0.1687
  136SAPE   O1414706   3.249   3.430  11.122  0.0010 -0.0455 -0.0520
  136SAPE   O1214707   3.348   3.650  11.105  0.0914  0.4417  0.1187
  136SAPE   O1114708   3.375   3.485  10.917 -0.4249  0.0228  0.0460
  136SAPE    C114709   3.396   3.360  10.855  0.3900  0.4269 -0.7375
  136SAPE    HA14710   3.329   3.280  10.893 -0.7710  1.2507 -1.0095
  136SAPE    HB14711   3.354   3.363  10.752 -0.8350 -0.5722 -0.2906
  136SAPE    C214712   3.544   3.315  10.844  0.4107 -0.4623 -0.4586
  136SAPE    HS14713   3.580   3.320  10.949 -3.1378 -0.3465  0.8654
  136SAPE   O2114714   3.616   3.408  10.762  0.6053  0.1066  1.3930
  136SAPE   C2114715   3.751   3.401  10.768  0.0851  0.1875  1.2471
  136SAPE   O2214716   3.808   3.337  10.851 -0.1765  0.2095  1.1902
  136SAPE   C2214717   3.809   3.483  10.652  0.0953 -0.2664  0.3366
  136SAPE   H2R14718   3.767   3.585  10.642  0.2226 -0.2565 -0.1008
  136SAPE   H2S14719   3.915   3.497  10.682 -0.6828  0.7863  2.8689
  136SAPE    C314720   3.564   3.169  10.797  0.2820 -0.1078 -0.4965
  136SAPE    HX14721   3.493   3.106  10.855 -0.2400 -0.0236 -1.0286
  136SAPE    HY14722   3.671   3.143  10.813  0.4006  0.6123 -0.0896
  136SAPE   O3114723   3.561   3.145  10.654 -0.5641 -0.3685  0.4147
  136SAPE   C3114724   3.439   3.118  10.608 -0.4070 -0.1201  0.1701
  136SAPE   O3214725   3.335   3.102  10.673 -0.3680  0.2078  0.1944
  136SAPE   C3214726   3.453   3.122  10.455 -0.3457 -0.1232 -0.6120
  136SAPE   H2X14727   3.558   3.104  10.425 -0.8487 -2.7775 -1.0368
  136SAPE   H2Y14728   3.410   3.213  10.408 -0.4795 -0.1391 -0.5224
  136SAPE   C2314729   3.827   3.398  10.535  0.0710  0.0964 -0.1429
  136SAPE   H3R14730   3.743   3.334  10.498  0.6175 -0.0733 -1.1128
  136SAPE   H3S14731   3.903   3.325  10.568  0.0388 -0.1693 -0.6423
  136SAPE   C2414732   3.899   3.469  10.425 -0.4599  0.3620  0.3760
  136SAPE   H4R14733   3.927   3.385  10.358 -0.5334 -0.2218  1.0635
  136SAPE   H4S14734   3.995   3.514  10.460 -0.1610 -0.2990  0.4278
  136SAPE   C2514735   3.817   3.568  10.349 -0.0980  0.5050 -0.3495
  136SAPE   H5R14736   3.728   3.608  10.400 -0.7070 -1.4926  0.2446
  136SAPE   C2614737   3.855   3.613  10.229  0.3045  1.0337 -0.0195
  136SAPE   H6R14738   3.787   3.683  10.178 -0.8585 -0.9701 -1.3517
  136SAPE   C2714739   3.972   3.568  10.148 -0.2916 -0.0526  0.1616
  136SAPE   H7R14740   3.934   3.525  10.052  0.9639 -0.2705 -0.2540
  136SAPE   H7S14741   4.027   3.491  10.206  1.8974  1.1661 -0.1874
  136SAPE   C2814742   4.090   3.656  10.126 -0.5731 -0.7128  0.3635
  136SAPE   H8R14743   4.162   3.665  10.209 -2.6067  0.9113  2.1009
  136SAPE   C2914744   4.117   3.729  10.014 -0.2136 -0.4107  0.2204
  136SAPE   H9R14745   4.206   3.793  10.018 -0.5723  0.0371  1.6649
  136SAPE  C21014746   4.028   3.737   9.888 -0.4079  0.0320  0.2529
  136SAPE  H10R14747   4.057   3.834   9.844 -0.3323 -0.3890 -0.6474
  136SAPE  H10S14748   3.918   3.735   9.902 -0.2750 -0.4028  1.3493
  136SAPE  C21114749   4.051   3.624   9.785 -0.6716  0.3023  0.2889
  136SAPE  H11R14750   4.064   3.521   9.822  3.2425 -0.4562 -2.5245
  136SAPE  C21214751   4.052   3.639   9.647 -0.1962 -0.8109 -0.3886
  136SAPE  H12R14752   4.065   3.544   9.593 -1.2631  0.5419 -3.2240
  136SAPE  C21314753   4.045   3.764   9.567 -0.0872 -0.4001 -0.1500
  136SAPE  H13R14754   4.012   3.850   9.629  0.5523 -1.3580  1.6134
  136SAPE  H13S14755   3.970   3.757   9.486  1.4962 -2.4772 -1.5570
  136SAPE  C21414756   4.178   3.790   9.508  0.7104  0.2110 -0.6603
  136SAPE  H14R14757   4.245   3.838   9.579  1.3144 -2.0616  0.4106
  136SAPE  C21514758   4.218   3.769   9.380  0.2288 -0.0588  0.2814
  136SAPE  H15R14759   4.320   3.804   9.358 -0.0974  0.6323 -0.1857
  136SAPE  C21614760   4.140   3.707   9.271 -0.3101  0.0846 -0.5539
  136SAPE  H16R14761   4.031   3.688   9.279 -0.3669 -0.5035 -2.2424
  136SAPE  H16S14762   4.189   3.613   9.234  0.2913  1.1649 -2.6909
  136SAPE  C21714763   4.152   3.797   9.143 -0.2736 -0.8581 -0.6257
  136SAPE  H17R14764   4.126   3.901   9.169  0.2541 -1.3529  2.1262
  136SAPE  H17S14765   4.082   3.768   9.061 -0.7927  1.1064 -0.9258
  136SAPE  C21814766   4.293   3.790   9.085  0.1705  0.6699  0.1772
  136SAPE  H18R14767   4.319   3.683   9.077  3.3723  1.4478 -1.1727
  136SAPE  H18S14768   4.370   3.837   9.150  1.5581 -0.5126 -0.5718
  136SAPE  C21914769   4.305   3.838   8.936 -0.4039 -0.1329 -0.2432
  136SAPE  H19R14770   4.415   3.849   8.926  0.3189 -1.7417  3.8510
  136SAPE  H19S14771   4.259   3.936   8.910 -0.5534 -0.4853 -1.4007
  136SAPE  C22014772   4.254   3.735   8.828 -0.1326  0.5004  0.0487
  136SAPE  H20R14773   4.276   3.628   8.849  0.2643  0.6965  0.6620
  136SAPE  H20S14774   4.306   3.753   8.732  3.5855 -0.6930  1.6405
  136SAPE  H20T14775   4.145   3.746   8.810 -0.3447  0.5992  1.2900
  136SAPE   C3314776   3.371   3.010  10.384  0.1472 -0.0900 -0.5554
  136SAPE   H3X14777   3.266   3.001  10.418  0.8683 -1.8938  1.3870
  136SAPE   H3Y14778   3.420   2.911  10.388 -2.3746 -1.3503  1.3168
  136SAPE   C3414779   3.366   3.044  10.231  0.2718  0.6390  0.2847
  136SAPE   H4X14780   3.470   3.027  10.194 -0.1030  0.3036 -0.6389
  136SAPE   H4Y14781   3.330   3.146  10.206  0.2897  0.8489  1.1097
  136SAPE   C3514782   3.280   2.943  10.148 -0.4030  0.3397  0.7432
  136SAPE   H5X14783   3.174   2.946  10.180  0.2129 -0.2384  2.9836
  136SAPE   H5Y14784   3.329   2.843  10.155  1.2028  0.6939 -3.0512
  136SAPE   C3614785   3.288   2.977   9.996  0.0120 -0.3137 -0.2563
  136SAPE   H6X14786   3.276   2.879   9.945  1.5188 -1.6174  1.6974
  136SAPE   H6Y14787   3.392   3.013   9.978  0.2044 -1.3239 -1.2750
  136SAPE   C3714788   3.191   3.086   9.953 -0.8271  0.3598 -0.3174
  136SAPE   H7X14789   3.214   3.136   9.856  0.7875  1.5473  0.6385
  136SAPE   H7Y14790   3.197   3.170  10.025  0.4167 -0.8285  1.0198
  136SAPE   C3814791   3.047   3.040   9.946  0.2148 -0.2236  0.4895
  136SAPE   H8X14792   3.013   3.008  10.047  1.3651 -2.6625  0.1802
  136SAPE   H8Y14793   3.043   2.951   9.880  0.3212 -1.8315  2.5438
  136SAPE   C3914794   2.947   3.151   9.903  0.9838 -0.1241 -0.0476
  136SAPE   H9X14795   2.932   3.223   9.986 -2.3551 -1.0271  0.3097
  136SAPE   H9Y14796   2.848   3.108   9.875 -0.2918  1.9139  1.1481
  136SAPE  C31014797   2.976   3.240   9.780 -0.0583 -0.7559 -0.2657
  136SAPE  H10X14798   3.071   3.294   9.799 -1.3326  1.1330  1.2260
  136SAPE  H10Y14799   2.894   3.315   9.782 -1.1976 -1.8797 -2.2394
  136SAPE  C31114800   2.974   3.165   9.647 -0.0736  0.1591 -0.5118
  136SAPE  H11X14801   2.896   3.088   9.668  0.6507 -0.1537  1.1759
  136SAPE  H11Y14802   3.061   3.098   9.632  0.5866  0.9419 -0.2077
  136SAPE  C31214803   2.965   3.263   9.530  0.3905  0.4260  0.0800
  136SAPE  H12X14804   3.069   3.291   9.502  1.2311 -2.5835 -0.0586
  136SAPE  H12Y14805   2.889   3.341   9.555 -1.8227 -2.2472  2.2923
  136SAPE  C31314806   2.901   3.196   9.405 -0.3103  0.6149  0.4963
  136SAPE  H13X14807   2.802   3.150   9.425 -0.3455 -0.6151 -2.0677
  136SAPE  H13Y14808   2.966   3.112   9.374 -2.4441 -1.5757  1.6227
  136SAPE  C31414809   2.903   3.289   9.283  0.0930 -0.3447 -0.5013
  136SAPE  H14X14810   3.001   3.341   9.271 -0.7018  1.5297  0.7027
  136SAPE  H14Y14811   2.830   3.368   9.311  1.5496  0.7426  0.3352
  136SAPE  C31514812   2.857   3.232   9.148 -0.0359  0.6914 -0.3716
  136SAPE  H15X14813   2.747   3.212   9.145  0.1599 -1.0115  1.4889
  136SAPE  H15Y14814   2.914   3.137   9.137 -0.3765  0.2461  1.3491
  136SAPE  C31614815   2.895   3.335   9.038  0.5837 -0.0604  1.1945
  136SAPE  H16X14816   3.004   3.338   9.015  0.0435  1.2743 -1.4660
  136SAPE  H16Y14817   2.874   3.440   9.067  2.5904  1.3986 -2.1110
  136SAPE  C31714818   2.824   3.314   8.902 -0.1442 -0.0650  0.7697
  136SAPE  H17X14819   2.717   3.335   8.919 -0.2739 -1.1237  1.3470
  136SAPE  H17Y14820   2.840   3.209   8.867  1.3052  0.6413 -0.8670
  136SAPE  C31814821   2.886   3.402   8.787  0.4021 -0.5540 -0.8195
  136SAPE  H18X14822   2.887   3.507   8.823  1.6437 -0.7619 -0.2213
  136SAPE  H18Y14823   2.844   3.395   8.685 -0.1660  1.4207 -0.7521
  136SAPE  H18Z14824   2.996   3.386   8.786  1.1969  3.7752 -1.1010
  137SAPE     N14825   3.015   2.264  11.054 -0.0088  0.1571  0.6656
  137SAPE   HN114826   3.015   2.329  10.972 -1.7765 -1.2726 -0.5392
  137SAPE   HN214827   3.114   2.231  11.061 -0.0739  0.1970  2.2701
  137SAPE   HN314828   2.965   2.175  11.036  1.3351 -0.3273 -0.9474
  137SAPE   C1214829   2.976   2.325  11.179  0.1888  0.6358  0.2126
  137SAPE  H12A14830   2.995   2.433  11.167  0.3682  0.3699 -2.3649
  137SAPE  H12B14831   3.045   2.294  11.261  1.3915  2.8594  0.1160
  137SAPE   C1114832   2.827   2.303  11.211 -0.6021  0.0405 -0.2889
  137SAPE  H11A14833   2.798   2.361  11.301  0.9827  0.3359  0.0729
  137SAPE  H11B14834   2.807   2.198  11.242 -0.6269  0.7552  2.3514
  137SAPE     P14835   2.715   2.468  11.045  0.0707 -0.3450 -0.4285
  137SAPE   O1314836   2.571   2.497  11.067 -0.5248  0.1160  0.1739
  137SAPE   O1414837   2.804   2.564  11.110  0.3736 -0.1596  0.0665
  137SAPE   O1214838   2.742   2.323  11.102  0.4894 -0.1485  0.0635
  137SAPE   O1114839   2.751   2.452  10.891 -0.7857  0.4647 -0.5644
  137SAPE    C114840   2.698   2.346  10.816 -0.5866  0.5467  0.2918
  137SAPE    HA14841   2.649   2.275  10.885 -1.8339  0.6049 -0.5091
  137SAPE    HB14842   2.623   2.384  10.744 -1.0900 -1.6127 -0.4196
  137SAPE    C214843   2.804   2.263  10.734  0.5058  0.6012  0.4343
  137SAPE    HS14844   2.897   2.244  10.792  1.2960 -0.0135 -0.9915
  137SAPE   O2114845   2.844   2.348  10.620  0.4193  0.6395  0.2358
  137SAPE   C2114846   2.966   2.320  10.568 -0.7235  0.2933  0.4952
  137SAPE   O2214847   3.048   2.247  10.616 -0.2555  0.0590  1.1038
  137SAPE   C2214848   2.984   2.407  10.442 -0.7687  0.0141 -0.2814
  137SAPE   H2R14849   2.919   2.371  10.359  0.6646 -1.0708 -0.9860
  137SAPE   H2S14850   2.951   2.509  10.472  1.0017  1.0613 -1.6342
  137SAPE    C314851   2.750   2.122  10.686 -0.2359 -0.3963  0.0324
  137SAPE    HX14852   2.752   2.052  10.772 -0.8225 -2.5104 -1.5841
  137SAPE    HY14853   2.810   2.068  10.609  1.5589  0.3558  0.8561
  137SAPE   O3114854   2.618   2.127  10.633  0.1090  0.1611  0.3479
  137SAPE   C3114855   2.602   2.175  10.511  0.2148  0.0073 -0.7755
  137SAPE   O3214856   2.685   2.206  10.433  0.3939 -0.3660  0.0597
  137SAPE   C3214857   2.451   2.156  10.477 -0.2372  0.1650  0.0114
  137SAPE   H2X14858   2.393   2.251  10.484  0.9576  0.9010  0.0603
  137SAPE   H2Y14859   2.405   2.079  10.543 -0.5973  0.7619  0.4851
  137SAPE   C2314860   3.138   2.419  10.387  0.4866  0.0491  0.7847
  137SAPE   H3R14861   3.151   2.358  10.295 -2.2580  2.2220 -1.2317
  137SAPE   H3S14862   3.201   2.369  10.464 -1.6205 -1.1217  1.8605
  137SAPE   C2414863   3.190   2.563  10.362  0.0025 -0.0431 -0.0839
  137SAPE   H4R14864   3.293   2.554  10.323 -0.0923 -1.7613 -0.0331
  137SAPE   H4S14865   3.191   2.615  10.460  0.2997 -0.4669  0.1412
  137SAPE   C2514866   3.112   2.646  10.269  0.5475  0.1995  0.1201
  137SAPE   H5R14867   3.043   2.714  10.321  0.3262 -1.6182  2.3783
  137SAPE   C2614868   3.125   2.652  10.133  0.2501  0.7090  0.6379
  137SAPE   H6R14869   3.056   2.710  10.070 -0.1007 -0.5389 -0.1464
  137SAPE   C2714870   3.230   2.568  10.052  0.9166  0.1511 -0.5463
  137SAPE   H7R14871   3.269   2.478  10.105  0.1865 -1.7692 -3.1139
  137SAPE   H7S14872   3.309   2.644  10.036 -0.2236  0.9692 -2.6504
  137SAPE   C2814873   3.183   2.511   9.923 -0.1669  0.6673 -0.1235
  137SAPE   H8R14874   3.110   2.431   9.939  1.0067 -0.9095 -2.0981
  137SAPE   C2914875   3.204   2.548   9.800  0.7341 -0.3177  0.8595
  137SAPE   H9R14876   3.151   2.491   9.723  0.2269 -0.4749  1.3184
  137SAPE  C21014877   3.302   2.655   9.749  0.2377 -0.4061 -0.5073
  137SAPE  H10R14878   3.389   2.608   9.700  1.3300  0.2767  0.7135
  137SAPE  H10S14879   3.351   2.710   9.832  0.5710  1.3127 -1.7924
  137SAPE  C21114880   3.242   2.749   9.645  0.6461 -0.4007 -1.1476
  137SAPE  H11R14881   3.185   2.833   9.689 -0.1940 -1.6761  0.3107
  137SAPE  C21214882   3.242   2.736   9.511 -0.7110  0.2827 -0.0123
  137SAPE  H12R14883   3.193   2.812   9.448 -0.3729 -0.2520 -0.9363
  137SAPE  C21314884   3.321   2.628   9.439  0.2821  0.1622 -0.3991
  137SAPE  H13R14885   3.336   2.539   9.503  2.1179 -0.0244 -1.0203
  137SAPE  H13S14886   3.424   2.670   9.437  0.2620  0.2638  0.4227
  137SAPE  C21414887   3.257   2.577   9.311  0.2331  0.1451 -0.0613
  137SAPE  H14R14888   3.161   2.524   9.319 -1.3268  2.6874 -0.5746
  137SAPE  C21514889   3.298   2.599   9.183  0.2163 -0.4338 -0.2301
  137SAPE  H15R14890   3.224   2.570   9.107 -3.3915 -0.3118  2.9833
  137SAPE  C21614891   3.421   2.678   9.131 -0.7189 -0.1722 -0.4842
  137SAPE  H16R14892   3.505   2.608   9.110 -0.5200 -0.8833  2.3109
  137SAPE  H16S14893   3.469   2.740   9.209 -1.5076 -1.9378  1.4928
  137SAPE  C21714894   3.392   2.778   9.017 -0.2869  0.4608 -0.0997
  137SAPE  H17R14895   3.353   2.721   8.930 -0.4892  0.5474 -0.0666
  137SAPE  H17S14896   3.490   2.826   8.997 -0.0142 -0.1866 -0.3551
  137SAPE  C21814897   3.285   2.885   9.049  0.0107 -0.2080  0.5941
  137SAPE  H18R14898   3.323   2.942   9.137  1.0204  0.6426 -0.3705
  137SAPE  H18S14899   3.194   2.836   9.090 -0.8055 -0.0109 -0.9123
  137SAPE  C21914900   3.267   2.982   8.936 -0.3790 -0.3995  0.0929
  137SAPE  H19R14901   3.236   2.923   8.848 -0.7433  1.0599 -0.7908
  137SAPE  H19S14902   3.357   3.040   8.904 -0.5717  1.1118  2.0767
  137SAPE  C22014903   3.159   3.093   8.970  0.2392  0.6298  0.6932
  137SAPE  H20R14904   3.056   3.054   8.955  0.8657 -0.1896 -1.8906
  137SAPE  H20S14905   3.164   3.178   8.898  1.8762  0.6316  0.7809
  137SAPE  H20T14906   3.172   3.131   9.074 -2.5098  1.8946  0.6812
  137SAPE   C3314907   2.436   2.129  10.326  0.4255 -0.0220  0.6345
  137SAPE   H3X14908   2.484   2.205  10.262  0.9364 -0.6489  0.2548
  137SAPE   H3Y14909   2.330   2.107  10.302  0.5537 -0.7764  0.7183
  137SAPE   C3414910   2.501   2.002  10.284 -0.6779 -0.0576  0.9279
  137SAPE   H4X14911   2.467   1.915  10.343  1.4771 -0.2532  1.9667
  137SAPE   H4Y14912   2.607   2.017  10.313 -0.4772  0.7752 -0.1659
  137SAPE   C3514913   2.495   1.985  10.136  0.1601  0.4153 -0.4369
  137SAPE   H5X14914   2.387   1.979  10.109 -0.0297 -2.4767  0.6660
  137SAPE   H5Y14915   2.539   1.892  10.094  0.6716  0.2993  0.3453
  137SAPE   C3614916   2.557   2.089  10.046  0.3672  0.2196  0.0972
  137SAPE   H6X14917   2.653   2.128  10.084  0.0174  0.3723  0.8462
  137SAPE   H6Y14918   2.488   2.175  10.046 -0.1716 -0.1898  1.2222
  137SAPE   C3714919   2.587   2.048   9.901  0.0314  0.9289  0.3358
  137SAPE   H7X14920   2.494   1.989   9.884  1.4738 -1.1292 -0.8604
  137SAPE   H7Y14921   2.680   1.990   9.917 -0.5174 -0.4492 -1.1684
  137SAPE   C3814922   2.608   2.169   9.805 -0.1957 -0.8176  0.1821
  137SAPE   H8X14923   2.698   2.221   9.844 -0.6331  0.4047 -0.3608
  137SAPE   H8Y14924   2.529   2.240   9.839 -0.9106 -1.4519 -0.1191
  137SAPE   C3914925   2.603   2.137   9.658  0.9036 -0.7588  0.7833
  137SAPE   H9X14926   2.689   2.084   9.613 -0.6169 -1.2567 -1.7485
  137SAPE   H9Y14927   2.603   2.236   9.607  0.8013 -1.8704 -1.5032
  137SAPE  C31014928   2.473   2.073   9.611  0.0798  0.4973 -0.2456
  137SAPE  H10X14929   2.398   2.112   9.683  2.0485 -1.4624  3.1457
  137SAPE  H10Y14930   2.473   1.962   9.614  1.5630  0.4938  1.0198
  137SAPE  C31114931   2.429   2.125   9.480 -0.7413 -0.0057  0.3332
  137SAPE  H11X14932   2.389   2.228   9.488 -1.1918 -0.3255  4.5037
  137SAPE  H11Y14933   2.340   2.063   9.454 -0.2509 -0.1829 -0.9831
  137SAPE  C31214934   2.535   2.115   9.370  0.6935 -0.4550 -0.4707
  137SAPE  H12X14935   2.558   2.007   9.353 -1.0373 -1.3701  2.3494
  137SAPE  H12Y14936   2.630   2.167   9.394  0.7990 -0.7702 -0.1924
  137SAPE  C31314937   2.479   2.160   9.237 -1.0690  0.4549 -0.3901
  137SAPE  H13X14938   2.429   2.258   9.258 -2.2119 -0.2792  0.4669
  137SAPE  H13Y14939   2.396   2.097   9.199 -0.5982 -1.1239  1.0571
  137SAPE  C31414940   2.593   2.178   9.137 -0.5609 -0.4036  0.0370
  137SAPE  H14X14941   2.643   2.084   9.105  0.3107  0.7828 -2.3843
  137SAPE  H14Y14942   2.676   2.231   9.188  0.4794 -0.7590 -1.2308
  137SAPE  C31514943   2.558   2.256   9.004 -0.5181  0.6154 -0.1947
  137SAPE  H15X14944   2.528   2.362   9.016  0.1574  0.7635  0.2631
  137SAPE  H15Y14945   2.485   2.204   8.939  1.9442 -4.0406  0.3147
  137SAPE  C31614946   2.685   2.267   8.921  0.0150  0.5655  0.0060
  137SAPE  H16X14947   2.737   2.171   8.902 -0.0521  0.7074 -0.9201
  137SAPE  H16Y14948   2.767   2.324   8.972  0.5296 -0.8166  0.7641
  137SAPE  C31714949   2.655   2.340   8.788  0.0719  0.7234  0.8740
  137SAPE  H17X14950   2.641   2.447   8.815  0.1977  2.2230 -4.0916
  137SAPE  H17Y14951   2.554   2.313   8.751  0.3217 -0.3704  0.9432
  137SAPE  C31814952   2.754   2.335   8.674  0.2756 -0.1272  0.0470
  137SAPE  H18X14953   2.723   2.374   8.575  0.0382  0.1520  0.2276
  137SAPE  H18Y14954   2.801   2.235   8.665 -0.1107 -0.1948 -1.4441
  137SAPE  H18Z14955   2.829   2.410   8.708 -0.7959 -0.1838  2.8331
  138SAPE     N14956   6.721   1.720  10.785  0.2978  0.2887  0.1914
  138SAPE   HN114957   6.819   1.720  10.751  0.7788  2.4430  1.3871
  138SAPE   HN214958   6.730   1.778  10.871  0.4097  1.7065 -0.7494
  138SAPE   HN314959   6.692   1.620  10.782  1.2341  0.0279 -0.5830
  138SAPE   C1214960   6.639   1.791  10.684  0.7771  1.0925 -0.4234
  138SAPE  H12A14961   6.658   1.748  10.583 -0.0392 -0.8554  0.1933
  138SAPE  H12B14962   6.675   1.896  10.687  0.5644  1.2237 -1.9870
  138SAPE   C1114963   6.483   1.787  10.710 -0.2334  0.8143  0.0014
  138SAPE  H11A14964   6.449   1.681  10.701  1.2232  0.4040 -1.1263
  138SAPE  H11B14965   6.426   1.849  10.637  1.0987  0.4051 -1.4539
  138SAPE     P14966   6.421   1.967  10.905  0.0538  0.1031 -0.1490
  138SAPE   O1314967   6.296   1.949  10.982  0.4051 -0.5930  0.7231
  138SAPE   O1414968   6.540   2.030  10.969  0.3756 -0.1344 -0.6812
  138SAPE   O1214969   6.463   1.833  10.844 -0.1442 -0.5881 -0.1211
  138SAPE   O1114970   6.374   2.048  10.780  0.0717 -0.2066  0.4606
  138SAPE    C114971   6.250   2.015  10.717 -0.1613  0.3027 -0.4473
  138SAPE    HA14972   6.229   1.906  10.721 -0.2747  0.3550  0.8404
  138SAPE    HB14973   6.162   2.054  10.773  0.4904  1.0559  0.0700
  138SAPE    C214974   6.249   2.048  10.566  0.2802  0.2087 -1.1057
  138SAPE    HS14975   6.158   1.998  10.526 -1.0887 -1.0650  3.1157
  138SAPE   O2114976   6.364   1.998  10.496  0.4718 -0.0350  0.5620
  138SAPE   C2114977   6.347   1.974  10.369  0.2411  0.9229 -0.0452
  138SAPE   O2214978   6.243   1.981  10.311 -0.1938 -0.0641 -0.2646
  138SAPE   C2214979   6.485   1.962  10.304  0.7283  0.1315 -0.9240
  138SAPE   H2R14980   6.556   2.032  10.353 -0.4164 -0.0291  1.0950
  138SAPE   H2S14981   6.509   1.854  10.318 -1.8899 -0.2853  1.2886
  138SAPE    C314982   6.242   2.207  10.552 -0.1063 -0.1035 -0.3642
  138SAPE    HX14983   6.342   2.241  10.585 -1.2379  2.0256  1.0526
  138SAPE    HY14984   6.173   2.254  10.625  1.4967  0.7009  0.6945
  138SAPE   O3114985   6.207   2.254  10.419 -0.5239 -0.3673 -1.4058
  138SAPE   C3114986   6.073   2.261  10.389  0.8448 -0.3720  0.1405
  138SAPE   O3214987   5.983   2.226  10.463 -0.4382 -0.5467 -0.3944
  138SAPE   C3214988   6.062   2.289  10.249  0.3499 -0.0675  0.2353
  138SAPE   H2X14989   6.153   2.322  10.195 -1.4214  2.1330 -1.6533
  138SAPE   H2Y14990   5.990   2.374  10.250  1.3141  0.8315  3.3828
  138SAPE   C2314991   6.487   2.000  10.152 -0.2836 -0.4323 -0.0273
  138SAPE   H3R14992   6.410   1.944  10.097  0.0144  1.8571 -3.0178
  138SAPE   H3S14993   6.591   1.981  10.116 -0.0349 -0.6140  0.7530
  138SAPE   C2414994   6.471   2.153  10.127 -0.2113 -1.0265 -0.1796
  138SAPE   H4R14995   6.381   2.194  10.176  0.1462 -0.3804 -0.0562
  138SAPE   H4S14996   6.463   2.171  10.017  0.7746 -0.3486 -0.1551
  138SAPE   C2514997   6.583   2.245  10.176 -0.1880  0.3042  0.2316
  138SAPE   H5R14998   6.575   2.237  10.285  1.7497  0.9928  0.4478
  138SAPE   C2614999   6.689   2.295  10.114 -0.6202 -0.0413  0.0160
  138SAPE   H6R15000   6.769   2.349  10.166  0.2838  0.1800 -1.5418
  138SAPE   C2715001   6.719   2.287   9.966 -0.0333 -0.2524 -0.1921
  138SAPE   H7R15002   6.806   2.351   9.943  0.2862 -0.5237  0.2541
  138SAPE   H7S15003   6.642   2.342   9.907 -0.5137  0.8501  1.4227
  138SAPE   C2815004   6.726   2.147   9.906 -0.5761 -0.3610 -0.3097
  138SAPE   H8R15005   6.790   2.082   9.967 -0.3112  0.1922  0.0139
  138SAPE   C2915006   6.660   2.095   9.801 -0.2410  0.5381 -0.2227
  138SAPE   H9R15007   6.686   1.992   9.772  0.4286  1.2788 -2.5235
  138SAPE  C21015008   6.570   2.179   9.717  0.7221  0.5895 -0.6850
  138SAPE  H10R15009   6.514   2.253   9.778 -1.8945 -1.6621 -0.1428
  138SAPE  H10S15010   6.486   2.119   9.676 -0.1143  0.4820  1.0705
  138SAPE  C21115011   6.647   2.240   9.602 -0.6966 -0.1896 -0.1825
  138SAPE  H11R15012   6.756   2.227   9.606 -0.8926 -1.6985  1.0712
  138SAPE  C21215013   6.600   2.323   9.507 -0.0088  0.2194 -0.0009
  138SAPE  H12R15014   6.676   2.375   9.446  2.6956  0.6520  3.4161
  138SAPE  C21315015   6.457   2.365   9.492 -0.4641 -0.2459  0.5254
  138SAPE  H13R15016   6.439   2.467   9.532  1.1597 -0.3708  1.6840
  138SAPE  H13S15017   6.390   2.293   9.545  0.4802 -1.6453 -0.0989
  138SAPE  C21415018   6.423   2.362   9.346 -0.2311 -0.3785  0.2790
  138SAPE  H14R15019   6.413   2.463   9.301  0.6123 -0.9510 -1.2734
  138SAPE  C21515020   6.379   2.256   9.281 -0.2410  0.3553 -0.0187
  138SAPE  H15R15021   6.333   2.273   9.183 -0.4305 -0.2262 -0.0366
  138SAPE  C21615022   6.362   2.113   9.331 -0.0753 -0.2877  0.4938
  138SAPE  H16R15023   6.277   2.054   9.290  0.5964 -0.6007 -0.4995
  138SAPE  H16S15024   6.359   2.115   9.442  1.3283  1.4482  0.5484
  138SAPE  C21715025   6.491   2.030   9.295 -0.5538 -0.2868 -0.4858
  138SAPE  H17R15026   6.475   1.933   9.347  0.1807 -0.2548 -0.1907
  138SAPE  H17S15027   6.584   2.075   9.335 -0.9267 -0.0688  0.1615
  138SAPE  C21815028   6.529   2.005   9.143  1.1785  0.0774 -0.4952
  138SAPE  H18R15029   6.521   2.101   9.088  1.4101  0.4306  0.0779
  138SAPE  H18S15030   6.453   1.938   9.099 -0.9659  1.0429  1.5588
  138SAPE  C21915031   6.668   1.941   9.129 -0.4642  0.0069 -0.2847
  138SAPE  H19R15032   6.661   1.832   9.150 -1.1807 -0.2009 -1.4952
  138SAPE  H19S15033   6.750   1.969   9.197  0.2894  1.8192 -1.8343
  138SAPE  C22015034   6.713   1.968   8.988 -0.5572 -0.1039 -0.8313
  138SAPE  H20R15035   6.725   2.077   8.973  2.5841 -0.5145 -2.0489
  138SAPE  H20S15036   6.650   1.922   8.908  3.2786  0.0321 -4.2401
  138SAPE  H20T15037   6.806   1.909   8.974 -0.7616 -0.5922 -0.2324
  138SAPE   C3315038   6.001   2.180  10.152  0.3824 -0.9077 -0.1398
  138SAPE   H3X15039   5.904   2.144  10.192 -0.2861 -0.5076 -1.3459
  138SAPE   H3Y15040   6.077   2.099  10.157  0.8490 -0.4958 -0.4977
  138SAPE   C3415041   5.975   2.234  10.007 -0.3390 -0.3393  0.5413
  138SAPE   H4X15042   6.077   2.270   9.979 -0.9215  0.7642 -0.2365
  138SAPE   H4Y15043   5.904   2.319  10.000 -0.5169 -0.5041  0.3185
  138SAPE   C3515044   5.941   2.111   9.918  0.6170 -0.2984  0.1247
  138SAPE   H5X15045   5.841   2.076   9.952 -0.1607 -1.3432 -2.9744
  138SAPE   H5Y15046   6.009   2.023   9.930 -0.5771 -0.9977  2.3821
  138SAPE   C3615047   5.928   2.143   9.767  0.2287 -0.1208  0.1429
  138SAPE   H6X15048   5.871   2.237   9.749  0.4525 -0.4222 -2.5634
  138SAPE   H6Y15049   5.874   2.056   9.722 -0.9186 -0.8245  2.7155
  138SAPE   C3715050   6.065   2.144   9.699 -0.1564 -0.4889 -0.0743
  138SAPE   H7X15051   6.107   2.042   9.686  1.3891  0.2390 -1.0224
  138SAPE   H7Y15052   6.134   2.213   9.753  1.1847 -2.1346  0.3823
  138SAPE   C3815053   6.059   2.201   9.551 -0.1392 -0.0527 -0.0687
  138SAPE   H8X15054   6.161   2.195   9.505 -0.0166  0.1917  0.1648
  138SAPE   H8Y15055   6.025   2.304   9.575  0.1507  0.0871 -0.2435
  138SAPE   C3915056   5.963   2.114   9.465  0.1196 -0.4207 -0.0780
  138SAPE   H9X15057   5.866   2.113   9.520  0.5232 -3.4380  0.7849
  138SAPE   H9Y15058   5.995   2.008   9.477 -2.5106 -1.5362 -1.9561
  138SAPE  C31015059   5.954   2.132   9.314 -1.1227  0.6440 -1.1083
  138SAPE  H10X15060   5.892   2.051   9.270 -0.0483 -0.9779  0.2443
  138SAPE  H10Y15061   6.058   2.127   9.276 -1.2390 -2.3567 -1.2659
  138SAPE  C31115062   5.879   2.261   9.281 -0.2390 -0.0086  0.6743
  138SAPE  H11X15063   5.946   2.344   9.311  0.5355 -0.2699 -0.2864
  138SAPE  H11Y15064   5.783   2.266   9.337 -3.3019 -1.5980 -3.9051
  138SAPE  C31215065   5.833   2.268   9.134 -0.2652  0.3791  0.9767
  138SAPE  H12X15066   5.784   2.174   9.102  0.6763  0.8770 -2.2900
  138SAPE  H12Y15067   5.910   2.273   9.054  0.0633 -1.9202  1.0856
  138SAPE  C31315068   5.740   2.381   9.099  0.1576  0.0482  0.0685
  138SAPE  H13X15069   5.796   2.475   9.117  0.2007 -0.2647  1.6866
  138SAPE  H13Y15070   5.650   2.385   9.165  0.5452  0.9707  0.5527
  138SAPE  C31415071   5.685   2.382   8.953 -1.2750 -0.2738 -0.2200
  138SAPE  H14X15072   5.607   2.303   8.946  1.4547 -3.1762 -0.0936
  138SAPE  H14Y15073   5.767   2.358   8.883 -1.0373 -2.9303  0.8585
  138SAPE  C31515074   5.611   2.516   8.910 -0.5942 -0.0784  0.1489
  138SAPE  H15X15075   5.683   2.600   8.907  0.7388 -1.1837 -2.4809
  138SAPE  H15Y15076   5.536   2.544   8.987 -2.9057 -0.4053 -1.8700
  138SAPE  C31615077   5.533   2.496   8.780 -0.3545 -0.0483  0.2169
  138SAPE  H16X15078   5.451   2.423   8.800 -0.3062  0.4169  2.4450
  138SAPE  H16Y15079   5.602   2.458   8.702 -0.3279  0.1787  0.1297
  138SAPE  C31715080   5.474   2.618   8.709 -0.0674  0.1501  0.2056
  138SAPE  H17X15081   5.545   2.699   8.681 -1.1325  1.3508  0.8349
  138SAPE  H17Y15082   5.405   2.657   8.787  0.8457 -0.2855  1.2502
  138SAPE  C31815083   5.387   2.593   8.585  0.2654 -0.2023  0.4027
  138SAPE  H18X15084   5.432   2.537   8.499  0.3399  0.9466 -0.3319
  138SAPE  H18Y15085   5.355   2.686   8.534 -0.4497 -0.1685  0.9023
  138SAPE  H18Z15086   5.297   2.536   8.617 -0.0235  0.3369  0.5563
  139SAPE     N15087   0.900   0.103  10.535  0.1476 -0.7893  0.1305
  139SAPE   HN115088   0.862   0.051  10.452  1.0150 -1.2329 -0.0021
  139SAPE   HN215089   0.840   0.180  10.570 -0.7774 -1.6691  0.5508
  139SAPE   HN315090   0.997   0.130  10.509 -0.2655 -0.7572 -1.5457
  139SAPE   C1215091   0.894   0.002  10.650 -0.4777 -1.3077  0.2236
  139SAPE  H12A15092   0.793   0.003  10.697  1.0105 -0.1779  3.7329
  139SAPE  H12B15093   0.973   0.030  10.724 -0.6072 -1.5733  0.4643
  139SAPE   C1115094   0.943  -0.128  10.581  0.1650  0.1361  0.2163
  139SAPE  H11A15095   0.956  -0.202  10.663 -2.0186  0.0688  0.5623
  139SAPE  H11B15096   1.046  -0.121  10.540  0.3328 -0.7374  0.4543
  139SAPE     P15097   0.726  -0.277  10.530  0.1931 -0.0907 -0.0751
  139SAPE   O1315098   0.778  -0.422  10.533  0.1552 -0.7440 -0.2396
  139SAPE   O1415099   0.673  -0.223  10.655 -0.3000  0.4440 -0.2747
  139SAPE   O1215100   0.849  -0.176  10.490 -0.8053 -0.1850 -0.4340
  139SAPE   O1115101   0.638  -0.261  10.402 -0.6304 -0.1087 -0.1453
  139SAPE    C115102   0.679  -0.300  10.268 -0.2308 -0.6016 -0.2189
  139SAPE    HA15103   0.739  -0.216  10.226 -0.3894 -0.2663  0.2183
  139SAPE    HB15104   0.738  -0.394  10.276  0.1445 -0.3692 -0.2287
  139SAPE    C215105   0.550  -0.306  10.176 -0.6294  0.6819  0.3033
  139SAPE    HS15106   0.495  -0.399  10.201  0.1052  0.2915  0.5150
  139SAPE   O2115107   0.604  -0.308  10.038 -0.1685 -0.3423 -0.0662
  139SAPE   C2115108   0.562  -0.406   9.955  0.9319 -0.3064  0.6252
  139SAPE   O2215109   0.489  -0.497   9.989  0.2233  0.7257 -0.5608
  139SAPE   C2215110   0.617  -0.372   9.812  0.0603 -0.2957  0.5640
  139SAPE   H2R15111   0.583  -0.270   9.781 -1.5591 -1.2728 -1.0589
  139SAPE   H2S15112   0.728  -0.367   9.818 -0.0002  1.5817  0.9493
  139SAPE    C315113   0.469  -0.183  10.206 -0.4064 -0.0802 -0.3125
  139SAPE    HX15114   0.539  -0.097  10.201  0.8162 -1.1101 -1.5778
  139SAPE    HY15115   0.424  -0.189  10.307 -1.1256  0.8733 -0.5614
  139SAPE   O3115116   0.360  -0.169  10.118 -0.1569 -0.6130  0.4597
  139SAPE   C3115117   0.345  -0.057  10.045 -1.2209  0.4873  0.0482
  139SAPE   O3215118   0.423   0.036  10.044 -0.1329 -0.3226 -0.1822
  139SAPE   C3215119   0.229  -0.076   9.946 -0.2513  0.0205 -0.2810
  139SAPE   H2X15120   0.205   0.016   9.889  1.4443 -0.2093 -1.4326
  139SAPE   H2Y15121   0.147  -0.110  10.012 -0.3291 -0.4885 -0.6343
  139SAPE   C2315122   0.561  -0.477   9.709  0.5852  0.3960  0.1992
  139SAPE   H3R15123   0.458  -0.464   9.672  1.5669  0.3157 -2.7971
  139SAPE   H3S15124   0.558  -0.579   9.753 -1.1221 -0.6105 -2.0739
  139SAPE   C2415125   0.646  -0.476   9.584 -0.6646  0.4028 -0.4299
  139SAPE   H4R15126   0.749  -0.499   9.619 -0.0773  3.3072  0.0186
  139SAPE   H4S15127   0.645  -0.373   9.543  0.3443 -0.7470 -3.5978
  139SAPE   C2515128   0.611  -0.585   9.484  0.1461 -0.2436 -0.1194
  139SAPE   H5R15129   0.621  -0.688   9.521  1.7711 -0.3515 -0.7718
  139SAPE   C2615130   0.548  -0.564   9.368 -1.5807 -0.1536  0.2552
  139SAPE   H6R15131   0.544  -0.647   9.295  0.6429 -0.1704  0.0696
  139SAPE   C2715132   0.511  -0.437   9.302 -0.0915  0.3491 -0.0098
  139SAPE   H7R15133   0.573  -0.353   9.337  0.1592 -0.7570  2.3532
  139SAPE   H7S15134   0.405  -0.413   9.324 -0.1726  1.4536 -1.4726
  139SAPE   C2815135   0.520  -0.439   9.152  0.1397 -0.2591  0.1144
  139SAPE   H8R15136   0.603  -0.385   9.105  0.0502 -0.4681 -0.2880
  139SAPE   C2915137   0.436  -0.499   9.069  0.4475 -0.7037  0.0882
  139SAPE   H9R15138   0.470  -0.490   8.965  3.0441  0.0309  0.9323
  139SAPE  C21015139   0.328  -0.594   9.112  0.1811  0.3064 -0.2000
  139SAPE  H10R15140   0.264  -0.540   9.184  1.3687 -0.2189  1.2991
  139SAPE  H10S15141   0.366  -0.687   9.161 -2.4056 -0.6329  0.1504
  139SAPE  C21115142   0.222  -0.626   9.010 -0.4604 -0.9405 -0.0349
  139SAPE  H11R15143   0.127  -0.575   9.034  0.4184 -0.6868  3.4620
  139SAPE  C21215144   0.249  -0.708   8.905  1.0261  0.2454 -0.0930
  139SAPE  H12R15145   0.166  -0.720   8.834  0.7258 -1.2701  0.4856
  139SAPE  C21315146   0.375  -0.783   8.865 -0.7833 -0.5886 -0.2409
  139SAPE  H13R15147   0.369  -0.871   8.933  0.3273  1.0255  2.0821
  139SAPE  H13S15148   0.465  -0.725   8.891 -1.3883  0.8304 -1.2047
  139SAPE  C21415149   0.392  -0.818   8.720 -0.1624  0.2389  0.0511
  139SAPE  H14R15150   0.379  -0.732   8.653 -0.7691 -0.5197 -0.8298
  139SAPE  C21515151   0.447  -0.932   8.671  0.2015 -0.0176  0.4040
  139SAPE  H15R15152   0.463  -0.936   8.562 -1.3306 -1.3402  0.1926
  139SAPE  C21615153   0.475  -1.057   8.751 -0.5661 -0.0752 -0.7069
  139SAPE  H16R15154   0.441  -1.054   8.856  2.1584 -1.4403  0.2927
  139SAPE  H16S15155   0.583  -1.084   8.757 -0.7819 -0.7052  0.4701
  139SAPE  C21715156   0.401  -1.179   8.685 -0.0318 -0.4255  0.6646
  139SAPE  H17R15157   0.295  -1.159   8.659  0.1542 -1.7830 -1.3758
  139SAPE  H17S15158   0.406  -1.263   8.757 -0.4596 -1.0504 -0.0284
  139SAPE  C21815159   0.454  -1.216   8.545  0.2937  0.3842  0.8930
  139SAPE  H18R15160   0.457  -1.126   8.480 -2.2193  1.1613  1.7407
  139SAPE  H18S15161   0.375  -1.281   8.501 -0.2282  0.8688  1.1004
  139SAPE  C21915162   0.585  -1.293   8.559  0.1568 -0.0397 -0.0972
  139SAPE  H19R15163   0.580  -1.369   8.640 -0.6036 -1.6495 -1.5818
  139SAPE  H19S15164   0.670  -1.224   8.577  0.9177 -0.7017 -1.0759
  139SAPE  C22015165   0.617  -1.359   8.428 -0.3553  0.5947 -0.3218
  139SAPE  H20R15166   0.533  -1.340   8.357  0.4191  0.7844 -1.1965
  139SAPE  H20S15167   0.640  -1.467   8.440 -0.4474  0.1488 -3.2626
  139SAPE  H20T15168   0.710  -1.318   8.383  0.0264  2.0091  1.6185
  139SAPE   C3315169   0.253  -0.189   9.844 -0.4649 -0.4865  0.0164
  139SAPE   H3X15170   0.227  -0.290   9.881 -2.7668  0.4908  1.3322
  139SAPE   H3Y15171   0.361  -0.169   9.833 -0.5573  0.5844  0.8465
  139SAPE   C3415172   0.182  -0.172   9.706 -0.7388 -0.2960  0.2350
  139SAPE   H4X15173   0.198  -0.067   9.671  1.0725 -0.8975 -0.8621
  139SAPE   H4Y15174   0.076  -0.195   9.728 -0.8604 -0.5742 -0.6145
  139SAPE   C3515175   0.241  -0.261   9.594  1.1600 -0.4602 -0.6701
  139SAPE   H5X15176   0.192  -0.358   9.617 -0.4542  0.4226 -0.2090
  139SAPE   H5Y15177   0.352  -0.262   9.599  1.1148 -2.1329  1.5126
  139SAPE   C3615178   0.196  -0.229   9.448  0.2318  0.7345 -0.0982
  139SAPE   H6X15179   0.270  -0.278   9.381  0.8951 -0.3762  1.3884
  139SAPE   H6Y15180   0.207  -0.119   9.439  1.0540  0.9549  2.6068
  139SAPE   C3715181   0.057  -0.281   9.407 -0.1554 -0.1094 -1.1241
  139SAPE   H7X15182  -0.022  -0.225   9.462  0.5581 -0.8231  0.7111
  139SAPE   H7Y15183   0.050  -0.381   9.456 -1.3891  0.5314  0.0987
  139SAPE   C3815184   0.021  -0.270   9.257  0.2566  0.3486 -0.9812
  139SAPE   H8X15185  -0.078  -0.316   9.234  1.3279 -1.8325 -1.4147
  139SAPE   H8Y15186   0.097  -0.329   9.201  1.1536 -3.2307  3.4260
  139SAPE   C3915187   0.023  -0.124   9.211  0.5195  0.2304  0.2398
  139SAPE   H9X15188   0.120  -0.075   9.232  0.0223  0.8049  1.2513
  139SAPE   H9Y15189  -0.045  -0.071   9.280  0.0093 -1.1516  0.8455
  139SAPE  C31015190  -0.006  -0.095   9.066  0.4489  0.2187  0.3001
  139SAPE  H10X15191   0.006   0.013   9.041 -0.0430  0.2809  0.3206
  139SAPE  H10Y15192  -0.109  -0.115   9.031  0.4956 -0.6533  0.6427
  139SAPE  C31115193   0.108  -0.150   8.970 -0.0831  0.1495 -0.0348
  139SAPE  H11X15194   0.105  -0.260   8.978 -1.0102  0.2703  1.8161
  139SAPE  H11Y15195   0.209  -0.115   9.001  0.8214 -1.4331 -1.0667
  139SAPE  C31215196   0.081  -0.108   8.825  0.5542  0.1750  0.4865
  139SAPE  H12X15197  -0.027  -0.127   8.807  1.2845 -1.2713 -3.4539
  139SAPE  H12Y15198   0.128  -0.182   8.755 -1.2596 -1.3809  0.8246
  139SAPE  C31315199   0.139   0.027   8.781  0.0249  0.3233 -0.4820
  139SAPE  H13X15200   0.245   0.025   8.813 -0.2016 -1.4485  0.2450
  139SAPE  H13Y15201   0.090   0.110   8.837 -0.6106 -0.3605 -0.0117
  139SAPE  C31415202   0.130   0.068   8.634 -0.0418  0.2317 -0.0953
  139SAPE  H14X15203   0.184   0.165   8.627 -0.5860  0.7076  1.7329
  139SAPE  H14Y15204   0.027   0.087   8.598 -0.8642 -1.5187  1.1748
  139SAPE  C31515205   0.202  -0.026   8.540  0.1934 -0.8400 -0.1051
  139SAPE  H15X15206   0.132  -0.111   8.528 -0.9562 -0.0204  0.5995
  139SAPE  H15Y15207   0.295  -0.055   8.594 -0.0885 -1.7745 -0.1118
  139SAPE  C31615208   0.236   0.034   8.403 -0.4150 -0.4864 -0.5480
  139SAPE  H16X15209   0.146   0.069   8.348  0.3827 -0.0949 -1.6285
  139SAPE  H16Y15210   0.308   0.116   8.419  0.5202 -1.4499  0.4069
  139SAPE  C31715211   0.309  -0.079   8.324 -0.1828  0.3606  0.1375
  139SAPE  H17X15212   0.237  -0.163   8.330 -0.4849  0.5860 -0.2639
  139SAPE  H17Y15213   0.399  -0.115   8.378  0.0044  0.8129  0.1281
  139SAPE  C31815214   0.337  -0.040   8.174  0.2516 -0.1614  0.0372
  139SAPE  H18X15215   0.378   0.063   8.167  0.4346 -0.2880 -0.8053
  139SAPE  H18Y15216   0.239  -0.031   8.122  0.0919  0.5629  0.4496
  139SAPE  H18Z15217   0.416  -0.102   8.126  1.1330  1.0604 -0.1222
  140SAPE     N15218   1.391   3.196  11.024  0.7477  0.0724 -0.5928
  140SAPE   HN115219   1.475   3.253  11.001  0.7211 -0.1185 -1.1885
  140SAPE   HN215220   1.331   3.174  10.941  1.0970  0.4247 -0.9470
  140SAPE   HN315221   1.328   3.253  11.084  0.9837 -2.4809  2.2527
  140SAPE   C1215222   1.433   3.068  11.087  0.4266  0.5457 -0.1405
  140SAPE  H12A15223   1.333   3.020  11.090  1.2490 -1.2909 -0.5893
  140SAPE  H12B15224   1.477   3.091  11.187 -2.1174 -0.4553  1.3191
  140SAPE   C1115225   1.529   2.983  10.997 -0.2776  0.4978  0.7634
  140SAPE  H11A15226   1.550   3.041  10.905  1.0781 -0.6298  0.3379
  140SAPE  H11B15227   1.478   2.892  10.958 -1.2135  1.6134 -0.7298
  140SAPE     P15228   1.666   2.794  11.106  0.0619  0.3013  0.0566
  140SAPE   O1315229   1.766   2.788  11.217  0.0588 -0.0498 -0.1952
  140SAPE   O1415230   1.536   2.723  11.128 -0.1463  0.2171  0.1786
  140SAPE   O1215231   1.644   2.946  11.075  0.2966  0.1155 -0.2635
  140SAPE   O1115232   1.734   2.752  10.972 -0.1323 -0.1422 -0.6026
  140SAPE    C115233   1.784   2.620  10.939 -0.8962  0.2724 -0.6491
  140SAPE    HA15234   1.895   2.622  10.936 -0.7429 -1.2336  1.8226
  140SAPE    HB15235   1.762   2.547  11.019 -1.0963  1.2155  0.1878
  140SAPE    C215236   1.732   2.562  10.802  0.0110  0.4187  0.0400
  140SAPE    HS15237   1.762   2.455  10.796  0.0663  0.4461 -0.1763
  140SAPE   O2115238   1.786   2.631  10.692  0.1101 -0.0611  0.4214
  140SAPE   C2115239   1.920   2.613  10.661  0.7227 -0.1158  0.0641
  140SAPE   O2215240   1.985   2.524  10.711 -0.3962 -0.1675 -0.0043
  140SAPE   C2215241   1.966   2.720  10.566 -0.1972  0.1492 -0.0351
  140SAPE   H2R15242   1.887   2.749  10.494  1.2782 -0.1038 -1.8395
  140SAPE   H2S15243   2.002   2.809  10.622  3.1823 -1.4637  0.6498
  140SAPE    C315244   1.583   2.584  10.788  0.6624 -0.6084 -0.0508
  140SAPE    HX15245   1.562   2.693  10.798 -0.5181 -0.8658  0.4975
  140SAPE    HY15246   1.536   2.536  10.877 -0.7680  1.8235  0.5972
  140SAPE   O3115247   1.530   2.538  10.664 -0.2095  0.2265  0.0512
  140SAPE   C3115248   1.502   2.406  10.651  0.5727  0.5204 -0.2114
  140SAPE   O3215249   1.534   2.323  10.728  0.0828 -0.5709 -0.1185
  140SAPE   C3215250   1.460   2.379  10.506 -0.4357 -0.0069  0.0573
  140SAPE   H2X15251   1.533   2.412  10.429 -0.6528 -0.7982 -0.4945
  140SAPE   H2Y15252   1.368   2.434  10.475 -0.6918 -1.4043 -1.8774
  140SAPE   C2315253   2.103   2.684  10.501  0.6528  0.0630 -0.8652
  140SAPE   H3R15254   2.168   2.639  10.580 -0.1224 -2.8714 -1.7573
  140SAPE   H3S15255   2.153   2.768  10.449  0.5279 -0.1578 -1.3452
  140SAPE   C2415256   2.082   2.563  10.407  0.9864  0.0424 -0.4913
  140SAPE   H4R15257   2.019   2.602  10.324 -0.0926 -1.4838 -0.4327
  140SAPE   H4S15258   2.025   2.488  10.466 -0.7578  1.2308 -0.5965
  140SAPE   C2515259   2.209   2.508  10.351 -0.0959 -0.5801  0.5511
  140SAPE   H5R15260   2.279   2.469  10.426 -0.0816 -0.1490  0.7713
  140SAPE   C2615261   2.241   2.515  10.223 -0.5443  0.3073 -0.4648
  140SAPE   H6R15262   2.337   2.470  10.194 -0.7748 -0.7064  0.2962
  140SAPE   C2715263   2.154   2.558  10.109  0.3955 -0.3096 -0.1425
  140SAPE   H7R15264   2.106   2.657  10.116  1.6087  0.2095  2.5455
  140SAPE   H7S15265   2.069   2.488  10.115  0.3700 -0.3889 -1.2484
  140SAPE   C2815266   2.222   2.539   9.979 -0.3111  0.1805 -0.6925
  140SAPE   H8R15267   2.294   2.618   9.953  0.7279 -0.0782  1.2101
  140SAPE   C2915268   2.197   2.448   9.886  0.4253 -0.4027  0.0029
  140SAPE   H9R15269   2.265   2.444   9.800  1.6638 -1.3327  0.9804
  140SAPE  C21015270   2.104   2.332   9.893  0.6635  0.7096  0.3423
  140SAPE  H10R15271   2.004   2.356   9.849 -0.1035 -3.0577 -0.2628
  140SAPE  H10S15272   2.090   2.314  10.002 -0.9659 -0.8649 -0.0823
  140SAPE  C21115273   2.145   2.200   9.822 -0.5829 -0.4772 -0.1136
  140SAPE  H11R15274   2.193   2.128   9.890 -2.1114 -0.5497  0.9438
  140SAPE  C21215275   2.112   2.157   9.700 -0.3088  0.2140  0.1073
  140SAPE  H12R15276   2.144   2.058   9.664  0.6477  0.3734  0.4812
  140SAPE  C21315277   2.037   2.230   9.588 -0.4860 -0.0348 -0.4875
  140SAPE  H13R15278   1.980   2.319   9.623 -1.3836  0.0210 -2.0248
  140SAPE  H13S15279   1.959   2.156   9.562 -0.3677 -0.4650  0.3511
  140SAPE  C21415280   2.116   2.290   9.474 -0.5807 -0.0108 -0.2629
  140SAPE  H14R15281   2.195   2.353   9.518 -0.3933 -0.3288 -0.1390
  140SAPE  C21515282   2.089   2.290   9.343  0.6046 -0.1898  0.2162
  140SAPE  H15R15283   2.153   2.352   9.279 -1.2109  1.1463 -0.4089
  140SAPE  C21615284   1.975   2.217   9.277  0.5948  0.0820  0.9278
  140SAPE  H16R15285   1.942   2.277   9.190  0.7404 -0.2693  0.6267
  140SAPE  H16S15286   1.896   2.196   9.353 -0.1436  0.4078  0.2629
  140SAPE  C21715287   2.013   2.089   9.211 -1.0907 -0.0752 -0.1596
  140SAPE  H17R15288   1.940   2.007   9.224 -1.6160  0.2827 -0.8296
  140SAPE  H17S15289   2.099   2.043   9.265 -1.3048  0.4453  0.6349
  140SAPE  C21815290   2.059   2.100   9.062 -0.6908 -0.5064 -0.2132
  140SAPE  H18R15291   2.129   2.185   9.069 -2.0031  0.5677  0.4596
  140SAPE  H18S15292   1.980   2.131   8.990 -0.8413 -3.4932 -1.4751
  140SAPE  C21915293   2.123   1.967   9.008  0.5051  0.8037  0.0806
  140SAPE  H19R15294   2.183   1.924   9.091  0.2492 -4.5469 -2.1596
  140SAPE  H19S15295   2.181   1.986   8.916  0.5582  0.6747  0.0876
  140SAPE  C22015296   2.015   1.861   8.978  0.3894 -0.3696 -0.3174
  140SAPE  H20R15297   1.955   1.902   8.894 -2.5001 -1.0404  1.3026
  140SAPE  H20S15298   1.951   1.836   9.065 -0.2339 -0.2987 -0.7528
  140SAPE  H20T15299   2.068   1.768   8.949 -0.2180 -0.9978  0.5322
  140SAPE   C3315300   1.435   2.234  10.471  0.2881  0.8964  0.2609
  140SAPE   H3X15301   1.381   2.185  10.555 -0.5336  0.9203 -0.2481
  140SAPE   H3Y15302   1.535   2.186  10.468  2.2959  4.5909  1.3373
  140SAPE   C3415303   1.361   2.203  10.334  0.7107  0.1203 -0.2312
  140SAPE   H4X15304   1.254   2.232  10.337  0.7950  0.8088 -2.2397
  140SAPE   H4Y15305   1.354   2.095  10.309 -1.2362  0.2507 -0.4275
  140SAPE   C3515306   1.426   2.276  10.217 -0.3704  0.3600 -0.3028
  140SAPE   H5X15307   1.528   2.236  10.201 -0.4842  0.0457 -0.2467
  140SAPE   H5Y15308   1.448   2.384  10.232  0.5735  0.3069 -1.1960
  140SAPE   C3615309   1.343   2.243  10.091  0.6049  0.3162  0.3467
  140SAPE   H6X15310   1.238   2.270  10.115  0.5770 -0.4498  1.1143
  140SAPE   H6Y15311   1.350   2.133  10.080  2.5319  0.4364 -0.0325
  140SAPE   C3715312   1.390   2.303   9.958  0.3250 -0.5302  0.7184
  140SAPE   H7X15313   1.479   2.248   9.920  2.3374  2.6987  0.3902
  140SAPE   H7Y15314   1.435   2.403   9.980  1.6418 -1.0990  0.7375
  140SAPE   C3815315   1.279   2.311   9.849  0.1888  0.0856  0.5354
  140SAPE   H8X15316   1.222   2.398   9.887  1.7892  0.8919  1.2085
  140SAPE   H8Y15317   1.219   2.220   9.829  0.4506 -0.7677  3.1482
  140SAPE   C3915318   1.345   2.347   9.710  0.3193 -0.0859 -0.1586
  140SAPE   H9X15319   1.410   2.259   9.688  1.3953  0.4929  0.5973
  140SAPE   H9Y15320   1.414   2.434   9.723  0.9828 -0.6113 -0.0861
  140SAPE  C31015321   1.242   2.370   9.608 -0.0232  0.4908  0.4685
  140SAPE  H10X15322   1.194   2.468   9.629 -1.6693  0.1575 -1.3376
  140SAPE  H10Y15323   1.152   2.305   9.617 -0.1893  0.5336 -0.7020
  140SAPE  C31115324   1.277   2.361   9.462 -0.3910 -0.2463 -0.2545
  140SAPE  H11X15325   1.179   2.363   9.410 -1.3558  1.4279  1.5373
  140SAPE  H11Y15326   1.336   2.267   9.451  2.8055  1.5764  0.0365
  140SAPE  C31215327   1.356   2.472   9.408  0.1420  0.7441 -0.3897
  140SAPE  H12X15328   1.444   2.480   9.476 -2.3137 -0.1875  3.1303
  140SAPE  H12Y15329   1.298   2.565   9.425 -0.9907 -0.5293  3.7784
  140SAPE  C31315330   1.388   2.457   9.258  0.9693  0.3318  1.1203
  140SAPE  H13X15331   1.451   2.542   9.223 -1.5480  1.1344 -1.9180
  140SAPE  H13Y15332   1.305   2.444   9.186  0.6142  0.1798  1.5517
  140SAPE  C31415333   1.477   2.333   9.225  0.8934  0.3777  0.2526
  140SAPE  H14X15334   1.418   2.243   9.251  3.3395 -1.5087 -0.3440
  140SAPE  H14Y15335   1.564   2.342   9.294  0.2928  2.3759  0.8386
  140SAPE  C31515336   1.531   2.322   9.083  0.2471 -0.2423  0.2312
  140SAPE  H15X15337   1.579   2.413   9.040  1.2146 -0.3689  1.0161
  140SAPE  H15Y15338   1.442   2.293   9.024 -0.2806  3.3447 -1.0463
  140SAPE  C31615339   1.641   2.215   9.065  0.1288 -0.7927 -0.0677
  140SAPE  H16X15340   1.648   2.140   9.146 -2.5193 -2.8070 -1.5464
  140SAPE  H16Y15341   1.741   2.255   9.040  0.8448 -3.9895 -3.0292
  140SAPE  C31715342   1.616   2.133   8.937  0.0674  0.1345  0.7889
  140SAPE  H17X15343   1.718   2.092   8.918  0.4930  1.7686 -0.7854
  140SAPE  H17Y15344   1.588   2.206   8.858  1.4482 -1.0489 -0.8787
  140SAPE  C31815345   1.507   2.026   8.943  0.0470 -0.2379  0.7179
  140SAPE  H18X15346   1.410   2.051   8.992  0.3547  1.3717  0.5488
  140SAPE  H18Y15347   1.551   1.943   9.003  0.5920  0.2889  1.0537
  140SAPE  H18Z15348   1.489   1.986   8.841  0.7493  0.0596  0.4741
  141SAPE     N15349   2.647   5.097  10.754  0.3507 -0.0300 -0.4322
  141SAPE   HN115350   2.673   5.197  10.762  0.1383  0.0534 -0.7733
  141SAPE   HN215351   2.696   5.046  10.830 -0.2887  0.8168  0.5757
  141SAPE   HN315352   2.693   5.056  10.671 -0.5808  1.4993 -1.7631
  141SAPE   C1215353   2.505   5.077  10.761  0.6010  0.0949  0.5968
  141SAPE  H12A15354   2.453   5.162  10.713 -0.5714 -0.3610  1.0298
  141SAPE  H12B15355   2.472   5.080  10.867 -2.3698 -0.5287 -0.2076
  141SAPE   C1115356   2.472   4.945  10.704  0.5269 -0.1975  0.3056
  141SAPE  H11A15357   2.469   4.949  10.593 -3.3858  0.0343  0.2646
  141SAPE  H11B15358   2.369   4.920  10.739 -0.4340 -0.0899 -2.2501
  141SAPE     P15359   2.525   4.700  10.767  0.1426 -0.1042 -0.4187
  141SAPE   O1315360   2.608   4.612  10.687 -0.6276  0.0533 -0.2416
  141SAPE   O1415361   2.536   4.675  10.916  0.0418 -0.5149 -0.3606
  141SAPE   O1215362   2.568   4.848  10.743  0.0264 -0.1998 -0.0113
  141SAPE   O1115363   2.374   4.693  10.728 -0.0991 -0.1540 -0.3729
  141SAPE    C115364   2.323   4.673  10.593  0.1972  0.5901  0.4999
  141SAPE    HA15365   2.215   4.697  10.593  0.2880  1.0851  2.1514
  141SAPE    HB15366   2.374   4.742  10.522 -1.5237  2.5913  1.1014
  141SAPE    C215367   2.347   4.520  10.549 -0.0125  0.1795  0.0269
  141SAPE    HS15368   2.457   4.503  10.549 -0.2369 -1.4445  0.0160
  141SAPE   O2115369   2.278   4.498  10.422  0.7986 -0.0171 -0.1386
  141SAPE   C2115370   2.365   4.514  10.320 -0.1284  0.6287  0.5443
  141SAPE   O2215371   2.480   4.542  10.334 -0.0697 -0.0251  0.6888
  141SAPE   C2215372   2.282   4.507  10.186 -0.2701  0.1616 -0.6173
  141SAPE   H2R15373   2.279   4.396  10.181  0.7365  0.0787  0.3518
  141SAPE   H2S15374   2.185   4.557  10.206 -2.5603 -4.2759  0.7584
  141SAPE    C315375   2.289   4.429  10.660  0.5944 -0.7863 -0.2690
  141SAPE    HX15376   2.184   4.467  10.658  0.6596 -0.5459  0.7621
  141SAPE    HY15377   2.330   4.458  10.758 -3.2058  0.2951  1.1893
  141SAPE   O3115378   2.287   4.285  10.619  0.3447  0.2238  0.0698
  141SAPE   C3115379   2.404   4.219  10.637 -0.4348 -0.2570  0.0746
  141SAPE   O3215380   2.500   4.268  10.692 -0.1865 -0.2323  0.1152
  141SAPE   C3215381   2.407   4.075  10.566 -0.0283 -0.2158 -0.0170
  141SAPE   H2X15382   2.422   4.005  10.651  1.6732  0.5090  0.3224
  141SAPE   H2Y15383   2.503   4.071  10.510 -0.0489 -2.4257  0.0337
  141SAPE   C2315384   2.366   4.566  10.074  0.3445  0.4634  0.1330
  141SAPE   H3R15385   2.473   4.536  10.070  0.6958  1.5687  0.7781
  141SAPE   H3S15386   2.387   4.674  10.093  1.3855  0.8349 -2.6180
  141SAPE   C2415387   2.307   4.555   9.932  0.0109 -0.1865  0.0078
  141SAPE   H4R15388   2.221   4.623   9.918  1.5189  2.4662  2.5925
  141SAPE   H4S15389   2.269   4.451   9.919  0.9160 -0.2504 -3.0844
  141SAPE   C2515390   2.395   4.577   9.817  0.1383  0.1703 -0.2609
  141SAPE   H5R15391   2.477   4.649   9.826  1.9451 -1.9602  1.5892
  141SAPE   C2615392   2.373   4.534   9.689 -0.3058  0.6000 -0.1747
  141SAPE   H6R15393   2.451   4.552   9.614  0.1755 -1.4165 -0.2278
  141SAPE   C2715394   2.251   4.458   9.639  0.0997  0.1374 -0.4359
  141SAPE   H7R15395   2.156   4.505   9.672  1.7621  1.1667  3.4460
  141SAPE   H7S15396   2.252   4.360   9.690 -2.3680  1.2163  1.9627
  141SAPE   C2815397   2.250   4.437   9.486 -0.1005 -0.3242  0.2296
  141SAPE   H8R15398   2.343   4.397   9.443  0.9811 -0.2893  2.3966
  141SAPE   C2915399   2.143   4.465   9.405  0.0143 -0.4906 -0.0759
  141SAPE   H9R15400   2.146   4.446   9.296  0.7973  0.9995 -0.3451
  141SAPE  C21015401   2.011   4.526   9.451 -0.3887 -0.3197  0.2046
  141SAPE  H10R15402   2.016   4.636   9.459 -2.2533 -0.1651 -0.2371
  141SAPE  H10S15403   1.998   4.497   9.557  0.2685  2.9895  1.2931
  141SAPE  C21115404   1.890   4.493   9.362  0.1879 -0.0330 -0.6684
  141SAPE  H11R15405   1.900   4.465   9.256 -1.1643  3.0060 -1.7088
  141SAPE  C21215406   1.763   4.507   9.405 -0.3268 -0.4893  0.2063
  141SAPE  H12R15407   1.682   4.481   9.336  1.2230 -0.7880 -1.5783
  141SAPE  C21315408   1.720   4.552   9.546 -0.4697  0.2270  0.2262
  141SAPE  H13R15409   1.802   4.617   9.581 -2.0419  1.3265  2.0408
  141SAPE  H13S15410   1.710   4.461   9.610 -2.0549  0.0900 -0.1613
  141SAPE  C21415411   1.597   4.643   9.536 -0.3186 -0.2052  0.0953
  141SAPE  H14R15412   1.560   4.671   9.437 -0.9498 -0.2591  0.3103
  141SAPE  C21515413   1.508   4.661   9.630  1.0147 -0.2945 -1.3174
  141SAPE  H15R15414   1.433   4.738   9.607  1.6253  1.2744  1.4617
  141SAPE  C21615415   1.499   4.610   9.770  0.5205  1.3641 -0.1944
  141SAPE  H16R15416   1.594   4.556   9.789 -0.4587 -0.0856  0.7206
  141SAPE  H16S15417   1.420   4.533   9.780  0.2827  1.8210  1.8358
  141SAPE  C21715418   1.474   4.734   9.856  0.0536 -0.2968 -0.4483
  141SAPE  H17R15419   1.384   4.787   9.819  0.5292  0.1981 -0.9310
  141SAPE  H17S15420   1.547   4.816   9.837  0.2327 -0.2752  0.2968
  141SAPE  C21815421   1.477   4.717  10.006  0.7973 -0.0290 -0.5921
  141SAPE  H18R15422   1.568   4.657  10.030 -1.2376 -3.5493 -0.9989
  141SAPE  H18S15423   1.394   4.653  10.042  0.2523  0.4278 -1.0007
  141SAPE  C21915424   1.483   4.841  10.088  0.8585  0.2817  0.5001
  141SAPE  H19R15425   1.406   4.910  10.049  0.3304 -0.1571  0.7466
  141SAPE  H19S15426   1.582   4.891  10.076  1.9850 -2.4298 -3.6116
  141SAPE  C22015427   1.452   4.827  10.233  1.0889 -0.0334 -0.4400
  141SAPE  H20R15428   1.526   4.774  10.296  0.0369 -0.9090  0.0925
  141SAPE  H20S15429   1.346   4.796  10.246  0.8274 -0.1765 -2.4670
  141SAPE  H20T15430   1.465   4.931  10.267  2.0980 -0.0372 -0.7756
  141SAPE   C3315431   2.282   4.040  10.482  0.7343  0.0330 -0.2846
  141SAPE   H3X15432   2.195   4.069  10.545  1.5952  2.7459 -0.1886
  141SAPE   H3Y15433   2.270   3.934  10.451 -1.9253 -0.1740  1.1858
  141SAPE   C3415434   2.281   4.113  10.351  0.4347  0.3607 -0.3273
  141SAPE   H4X15435   2.365   4.075  10.288  1.9805  0.2370  1.7100
  141SAPE   H4Y15436   2.304   4.220  10.369  0.7201  0.2807 -0.2192
  141SAPE   C3515437   2.148   4.112  10.273 -0.8702  1.2993  0.8149
  141SAPE   H5X15438   2.143   4.177  10.183 -2.8934  0.6420  0.4111
  141SAPE   H5Y15439   2.067   4.160  10.331 -1.2538  2.9679 -0.9948
  141SAPE   C3615440   2.121   3.969  10.223 -0.1719  0.4765  0.8644
  141SAPE   H6X15441   2.027   3.973  10.165  0.3313 -0.8727 -0.0835
  141SAPE   H6Y15442   2.115   3.888  10.299  1.1250 -1.3999 -0.9334
  141SAPE   C3715443   2.228   3.927  10.117  0.7484  0.4144 -0.4825
  141SAPE   H7X15444   2.314   3.884  10.172 -1.0442  1.3139  3.3623
  141SAPE   H7Y15445   2.257   4.015  10.055 -0.1736 -0.1501 -1.7785
  141SAPE   C3815446   2.165   3.833  10.013 -0.3057  0.4937  0.1844
  141SAPE   H8X15447   2.075   3.885   9.973  0.9568  0.8705 -2.4003
  141SAPE   H8Y15448   2.129   3.744  10.069  1.8818 -1.4759 -1.3609
  141SAPE   C3915449   2.254   3.791   9.898  0.0837  0.0906  0.1020
  141SAPE   H9X15450   2.270   3.866   9.817  1.0875  0.4602  0.6291
  141SAPE   H9Y15451   2.191   3.710   9.856 -1.1197  0.3376  1.3533
  141SAPE  C31015452   2.387   3.736   9.940  0.1779 -0.5839  0.7795
  141SAPE  H10X15453   2.376   3.655  10.015 -1.1224  1.5635  3.0797
  141SAPE  H10Y15454   2.453   3.815   9.981  0.5943 -0.3528 -0.2866
  141SAPE  C31115455   2.458   3.671   9.822 -0.3112 -0.7576  0.0503
  141SAPE  H11X15456   2.388   3.597   9.777 -1.2557 -0.0816  0.3720
  141SAPE  H11Y15457   2.544   3.615   9.864  1.1622  1.8239  0.7041
  141SAPE  C31215458   2.499   3.761   9.700 -0.1152  0.1846  0.3541
  141SAPE  H12X15459   2.554   3.849   9.741  0.0474  0.0996  0.3235
  141SAPE  H12Y15460   2.401   3.800   9.667 -0.0471 -0.1986 -0.3076
  141SAPE  C31315461   2.569   3.686   9.587 -0.3118 -0.1173  0.1072
  141SAPE  H13X15462   2.500   3.608   9.548 -0.4142  0.3707 -0.7293
  141SAPE  H13Y15463   2.667   3.647   9.622  0.9404  1.8714 -0.9650
  141SAPE  C31415464   2.596   3.783   9.470  0.7210 -1.0637 -0.1213
  141SAPE  H14X15465   2.657   3.863   9.517  0.4831  0.0770 -1.6975
  141SAPE  H14Y15466   2.506   3.829   9.423  2.4570  0.7274 -1.8958
  141SAPE  C31515467   2.658   3.711   9.355  0.7737 -0.0220  0.0628
  141SAPE  H15X15468   2.601   3.616   9.360 -1.3051  1.2107  1.1981
  141SAPE  H15Y15469   2.765   3.681   9.368  0.6093 -1.8665 -2.2289
  141SAPE  C31615470   2.640   3.783   9.214  0.1729  0.2756  0.0201
  141SAPE  H16X15471   2.671   3.890   9.217  2.8845 -0.3892 -1.1029
  141SAPE  H16Y15472   2.536   3.780   9.176  0.3418  2.2859 -0.7253
  141SAPE  C31715473   2.725   3.715   9.110 -0.1635 -0.4230  0.1840
  141SAPE  H17X15474   2.705   3.608   9.132  1.3658 -0.9848 -0.9657
  141SAPE  H17Y15475   2.831   3.745   9.130 -0.6228  1.4765 -0.0695
  141SAPE  C31815476   2.696   3.753   8.967 -1.0783  0.0979 -0.6136
  141SAPE  H18X15477   2.721   3.858   8.943 -0.6360 -0.5110 -3.1857
  141SAPE  H18Y15478   2.589   3.733   8.941 -1.1531 -1.1434  0.5418
  141SAPE  H18Z15479   2.756   3.698   8.891 -1.9488  1.7114 -2.5635
  142SAPE     N15480   1.650   5.077  11.023  0.5108 -0.0871  0.0290
  142SAPE   HN115481   1.668   5.124  10.932  0.1882 -1.7453 -0.9362
  142SAPE   HN215482   1.607   4.985  11.001  3.6707 -1.1277 -2.5717
  142SAPE   HN315483   1.576   5.125  11.078 -0.1017  0.3307 -1.1344
  142SAPE   C1215484   1.772   5.062  11.103 -0.5305  0.6417 -0.4201
  142SAPE  H12A15485   1.757   5.051  11.212  1.5782 -1.3202 -0.2492
  142SAPE  H12B15486   1.827   5.156  11.083  0.9166  0.1695  1.1039
  142SAPE   C1115487   1.852   4.941  11.062  0.4003  0.2794  0.4288
  142SAPE  H11A15488   1.783   4.854  11.059  0.7329  0.0308 -1.2913
  142SAPE  H11B15489   1.931   4.924  11.138 -0.0110 -2.5038  0.3325
  142SAPE     P15490   2.034   5.044  10.905  0.0387 -0.1784 -0.2771
  142SAPE   O1315491   2.019   5.190  10.930 -0.4799  0.0679 -0.2001
  142SAPE   O1415492   2.141   4.971  10.976 -0.4181  0.1607 -0.1089
  142SAPE   O1215493   1.891   4.962  10.922 -0.1725 -0.2173 -1.0200
  142SAPE   O1115494   2.061   5.014  10.756  0.9428  0.6594 -0.2377
  142SAPE    C115495   1.964   5.050  10.658 -0.4138  0.4191 -0.3066
  142SAPE    HA15496   1.864   5.023  10.700 -0.1401  1.2388  0.9328
  142SAPE    HB15497   1.967   5.158  10.633 -0.9221 -0.0219 -2.4027
  142SAPE    C215498   1.982   4.962  10.524 -0.0517 -0.3474 -0.3574
  142SAPE    HS15499   2.014   4.861  10.558  0.6105 -0.0409 -0.0494
  142SAPE   O2115500   2.078   5.024  10.431 -0.3206  0.2240 -1.3653
  142SAPE   C2115501   2.146   4.934  10.353  0.3318 -0.7863  0.2029
  142SAPE   O2215502   2.142   4.814  10.360  0.1815 -0.2802 -0.0925
  142SAPE   C2215503   2.229   5.018  10.247  0.1510 -0.0629  0.4877
  142SAPE   H2R15504   2.182   5.117  10.225  1.7286  0.2350 -1.9392
  142SAPE   H2S15505   2.328   5.035  10.294  0.4501  2.1330 -0.7858
  142SAPE    C315506   1.850   4.956  10.443  0.4767  0.0912  0.4757
  142SAPE    HX15507   1.821   5.062  10.426  1.6405  0.7254  2.1530
  142SAPE    HY15508   1.769   4.912  10.505 -0.5915  0.6115 -0.5056
  142SAPE   O3115509   1.858   4.894  10.312  0.4198  0.0934  0.5570
  142SAPE   C3115510   1.853   4.765  10.324 -0.0359  0.6725 -0.1458
  142SAPE   O3215511   1.841   4.701  10.429  0.2216 -0.2670  0.2323
  142SAPE   C3215512   1.867   4.695  10.187 -0.1148  0.3146  0.3968
  142SAPE   H2X15513   1.967   4.708  10.141 -2.0437 -2.5225 -5.5823
  142SAPE   H2Y15514   1.785   4.732  10.122  0.4281  0.9154  0.0373
  142SAPE   C2315515   2.251   4.933  10.121  0.0647  0.6260  0.0359
  142SAPE   H3R15516   2.241   4.825  10.143 -1.6230  0.9025  0.7537
  142SAPE   H3S15517   2.360   4.947  10.101  0.0856 -2.1019 -2.3101
  142SAPE   C2415518   2.169   4.969   9.993 -0.3826  0.6010  0.1654
  142SAPE   H4R15519   2.165   5.080   9.986  0.0062  0.5499 -1.3300
  142SAPE   H4S15520   2.066   4.928  10.002  0.4965 -2.5534 -2.2396
  142SAPE   C2515521   2.243   4.911   9.873  0.0382 -0.1994  0.1989
  142SAPE   H5R15522   2.345   4.881   9.899  0.4405  0.8651 -0.1082
  142SAPE   C2615523   2.185   4.873   9.759  0.1620 -1.0576  0.8900
  142SAPE   H6R15524   2.256   4.830   9.687  1.4689  0.8114  1.0002
  142SAPE   C2715525   2.041   4.895   9.718 -0.2892 -0.2465 -0.3023
  142SAPE   H7R15526   1.981   4.893   9.811 -0.1575 -0.3125 -0.2178
  142SAPE   H7S15527   2.003   4.812   9.654  1.1453 -0.2516 -1.1803
  142SAPE   C2815528   2.026   5.029   9.653  0.0764  0.2215  0.6642
  142SAPE   H8R15529   2.033   5.117   9.718 -1.9695 -0.0056  1.2697
  142SAPE   C2915530   1.981   5.044   9.526  1.2686  0.3710 -0.2288
  142SAPE   H9R15531   1.977   5.147   9.489  1.7717  0.1935 -0.7815
  142SAPE  C21015532   1.939   4.937   9.424 -0.2111 -0.0061 -0.0583
  142SAPE  H10R15533   1.830   4.951   9.408 -0.0022 -0.0535 -1.6497
  142SAPE  H10S15534   1.952   4.834   9.463 -1.5806 -0.8790 -1.7884
  142SAPE  C21115535   2.016   4.952   9.292 -0.0643 -0.0968  0.1806
  142SAPE  H11R15536   2.114   5.000   9.311  0.1816 -0.7772  0.6553
  142SAPE  C21215537   1.973   4.934   9.161 -1.0354  0.6441 -0.5811
  142SAPE  H12R15538   2.042   4.947   9.077 -1.6570 -0.9379 -1.3642
  142SAPE  C21315539   1.841   4.873   9.115  0.7493  0.7595  0.5067
  142SAPE  H13R15540   1.779   4.946   9.060 -2.4959 -0.8994  1.7204
  142SAPE  H13S15541   1.765   4.843   9.190 -1.0406 -0.3733 -1.6617
  142SAPE  C21415542   1.875   4.756   9.024  0.2680  0.4039 -0.1133
  142SAPE  H14R15543   1.894   4.669   9.090 -0.7326  2.3078  2.8875
  142SAPE  C21515544   1.864   4.746   8.892  1.1467 -0.6425  0.5278
  142SAPE  H15R15545   1.904   4.661   8.836  0.9463 -1.9352  2.2727
  142SAPE  C21615546   1.812   4.860   8.800 -0.1390 -0.2129 -0.2054
  142SAPE  H16R15547   1.805   4.953   8.860  1.4459 -0.1108 -0.1503
  142SAPE  H16S15548   1.709   4.853   8.759 -0.0456  2.0775 -0.9431
  142SAPE  C21715549   1.919   4.904   8.696 -0.0611 -0.3245 -0.0281
  142SAPE  H17R15550   1.886   4.967   8.611  1.1192 -0.9782 -1.0109
  142SAPE  H17S15551   1.964   4.815   8.648  1.3039  1.3291 -1.9683
  142SAPE  C21815552   2.032   4.984   8.761  0.3632 -0.7217 -0.1864
  142SAPE  H18R15553   2.036   4.964   8.870  3.0356  0.5478  0.0427
  142SAPE  H18S15554   2.012   5.093   8.748  2.2276 -0.7180 -4.4816
  142SAPE  C21915555   2.173   4.958   8.705  0.8583 -0.2997 -0.6145
  142SAPE  H19R15556   2.195   4.852   8.728 -0.4445 -0.6416 -0.8375
  142SAPE  H19S15557   2.248   5.005   8.772  0.3810 -2.8332  1.8674
  142SAPE  C22015558   2.193   4.996   8.557  0.4520 -0.3747 -0.6247
  142SAPE  H20R15559   2.117   4.936   8.502  1.7538 -2.0552 -0.6709
  142SAPE  H20S15560   2.294   4.967   8.522  1.2023  0.9892  0.3198
  142SAPE  H20T15561   2.168   5.103   8.540  0.1659 -0.6067 -1.7029
  142SAPE   C3315562   1.842   4.547  10.214 -0.3397  0.0403  0.5041
  142SAPE   H3X15563   1.755   4.538  10.283 -0.4372  4.2434  1.1865
  142SAPE   H3Y15564   1.928   4.497  10.263  0.9257 -0.1254 -1.7552
  142SAPE   C3415565   1.809   4.466  10.089 -0.2661  0.3736  0.7087
  142SAPE   H4X15566   1.707   4.491  10.052  0.2686  1.9660  0.2433
  142SAPE   H4Y15567   1.825   4.357  10.104  0.5125 -0.2180 -3.3069
  142SAPE   C3515568   1.906   4.501   9.980 -0.7027  0.2032 -0.0768
  142SAPE   H5X15569   2.006   4.479  10.023 -2.1643 -1.5764  2.6804
  142SAPE   H5Y15570   1.892   4.607   9.948  0.0569  0.1193 -0.6872
  142SAPE   C3615571   1.900   4.421   9.849  0.0660 -0.7147 -0.4205
  142SAPE   H6X15572   1.951   4.473   9.765 -1.4343 -0.0124 -0.9495
  142SAPE   H6Y15573   1.791   4.410   9.828 -0.6709 -1.0457  2.9042
  142SAPE   C3715574   1.967   4.281   9.854 -0.1897 -0.3648 -0.7050
  142SAPE   H7X15575   1.927   4.213   9.932  2.9771 -0.5440  0.9278
  142SAPE   H7Y15576   2.074   4.305   9.875 -0.1035  0.5998 -2.1413
  142SAPE   C3815577   1.950   4.214   9.712  0.9576 -0.8632  0.0984
  142SAPE   H8X15578   1.981   4.289   9.636 -0.3329  0.3898  0.7573
  142SAPE   H8Y15579   1.841   4.195   9.696  0.3677  0.4070  2.2032
  142SAPE   C3915580   2.039   4.080   9.697 -0.1461 -0.1308 -0.1424
  142SAPE   H9X15581   1.968   3.997   9.718 -1.3383  0.2200 -2.4283
  142SAPE   H9Y15582   2.117   4.088   9.775  1.9642  2.5293 -2.2967
  142SAPE  C31015583   2.100   4.070   9.558  0.0488 -0.4758  0.3207
  142SAPE  H10X15584   2.167   3.981   9.564 -1.1071 -1.3670  0.2402
  142SAPE  H10Y15585   2.171   4.155   9.549  1.3014 -1.5754 -0.8230
  142SAPE  C31115586   2.005   4.068   9.435  0.4829  0.1375 -0.8886
  142SAPE  H11X15587   1.943   4.160   9.427  0.2018  0.0074 -0.2870
  142SAPE  H11Y15588   1.932   3.986   9.452 -0.1970  1.0504  0.8491
  142SAPE  C31215589   2.084   4.041   9.308  0.1633  0.4271 -0.3244
  142SAPE  H12X15590   2.161   4.121   9.304  0.6607  0.0669  1.2788
  142SAPE  H12Y15591   2.024   4.049   9.215  2.8158 -1.7375 -2.4288
  142SAPE  C31315592   2.155   3.902   9.296 -1.0280  0.9761 -0.4852
  142SAPE  H13X15593   2.087   3.826   9.342  1.0870 -0.4221  0.4758
  142SAPE  H13Y15594   2.233   3.907   9.375 -1.3953 -2.4841  0.2260
  142SAPE  C31415595   2.214   3.857   9.163  0.4208 -0.3203  0.9926
  142SAPE  H14X15596   2.232   3.748   9.167  3.4943  0.0118 -0.7695
  142SAPE  H14Y15597   2.317   3.899   9.160  0.5343 -0.6510  0.1204
  142SAPE  C31515598   2.138   3.904   9.042  0.2507  0.2239 -0.6418
  142SAPE  H15X15599   2.144   4.015   9.046  1.2138  0.1610 -0.2519
  142SAPE  H15Y15600   2.030   3.879   9.053  0.8557 -1.6054  2.1541
  142SAPE  C31615601   2.195   3.843   8.914 -0.1306 -0.2086 -0.1783
  142SAPE  H16X15602   2.187   3.732   8.916 -0.8285 -0.1777  2.3379
  142SAPE  H16Y15603   2.305   3.861   8.913 -0.0296 -0.7125 -2.5002
  142SAPE  C31715604   2.137   3.890   8.786  0.1128 -0.4504 -0.2656
  142SAPE  H17X15605   2.170   3.995   8.774  0.7334 -0.6743 -0.5779
  142SAPE  H17Y15606   2.026   3.890   8.793  0.1440 -0.7011  0.3260
  142SAPE  C31815607   2.179   3.816   8.662  0.1033 -0.2544  0.1106
  142SAPE  H18X15608   2.116   3.846   8.576 -0.9510 -3.2396 -0.2838
  142SAPE  H18Y15609   2.175   3.708   8.686 -0.8260 -0.4456 -0.8539
  142SAPE  H18Z15610   2.283   3.846   8.639 -0.0813 -0.1845 -0.6496
  143SAPE     N15611   3.235   2.921  11.146  0.0082  0.1383 -0.2451
  143SAPE   HN115612   3.289   3.004  11.113  0.5647 -0.1458 -0.0428
  143SAPE   HN215613   3.147   2.954  11.191 -0.5823 -0.5696 -0.8535
  143SAPE   HN315614   3.297   2.872  11.213 -0.2139 -1.2432 -1.0155
  143SAPE   C1215615   3.200   2.836  11.026  0.2822  0.1919  0.1896
  143SAPE  H12A15616   3.298   2.819  10.976  1.6990  3.2963  1.6870
  143SAPE  H12B15617   3.130   2.896  10.964 -1.2492 -1.2979  0.3828
  143SAPE   C1115618   3.126   2.704  11.082 -0.4825  0.6216 -0.4162
  143SAPE  H11A15619   3.084   2.635  11.005  0.0399 -1.1402  0.8158
  143SAPE  H11B15620   3.038   2.736  11.141 -0.5463  0.3068 -0.3428
  143SAPE     P15621   3.316   2.535  11.127 -0.5400 -0.1297  0.2928
  143SAPE   O1315622   3.381   2.473  11.244 -0.6325  0.6775 -0.3564
  143SAPE   O1415623   3.263   2.441  11.028 -0.7135 -0.1212  0.1883
  143SAPE   O1215624   3.205   2.631  11.176 -0.1625 -0.3892 -0.0417
  143SAPE   O1115625   3.414   2.642  11.050 -0.2361 -0.0777 -0.3415
  143SAPE    C115626   3.554   2.627  11.075  0.4492  0.5441  0.3567
  143SAPE    HA15627   3.584   2.695  11.158  2.0544  0.4589 -0.1235
  143SAPE    HB15628   3.589   2.523  11.089  0.1360  0.0100 -2.2210
  143SAPE    C215629   3.626   2.668  10.946  0.4755  1.1284  1.2103
  143SAPE    HS15630   3.595   2.770  10.915  0.4055  0.4715 -1.1088
  143SAPE   O2115631   3.577   2.574  10.843 -0.4334  0.6696 -0.1774
  143SAPE   C2115632   3.500   2.618  10.750  0.9699 -0.6694 -0.0418
  143SAPE   O2215633   3.445   2.725  10.742 -0.7195  0.2154  0.0784
  143SAPE   C2215634   3.479   2.506  10.650 -0.2679 -0.1396 -0.0595
  143SAPE   H2R15635   3.454   2.416  10.710  1.4775 -1.6741 -1.5061
  143SAPE   H2S15636   3.387   2.523  10.590 -0.5714 -0.1180  0.4086
  143SAPE    C315637   3.777   2.647  10.959 -0.0429 -0.1727 -0.8084
  143SAPE    HX15638   3.804   2.548  11.000 -0.9022  0.5650  1.7089
  143SAPE    HY15639   3.812   2.718  11.037 -0.3920  1.1380 -1.8033
  143SAPE   O3115640   3.851   2.663  10.834 -0.1861 -0.0939 -0.1855
  143SAPE   C3115641   3.866   2.792  10.801 -0.0804  0.0177  0.1284
  143SAPE   O3215642   3.816   2.886  10.865  0.1126  0.2817  0.5825
  143SAPE   C3215643   3.936   2.799  10.663 -0.0792  0.0061 -0.3352
  143SAPE   H2X15644   3.945   2.696  10.622  2.1384  0.3815 -0.9176
  143SAPE   H2Y15645   4.037   2.834  10.696 -0.3684 -0.3775  1.0249
  143SAPE   C2315646   3.599   2.485  10.560 -0.3274 -0.6841  0.1615
  143SAPE   H3R15647   3.565   2.403  10.494 -1.9859  0.8860 -1.0437
  143SAPE   H3S15648   3.693   2.466  10.616  0.6035  0.9766 -0.7694
  143SAPE   C2415649   3.626   2.599  10.458 -0.6231  0.0429  0.3098
  143SAPE   H4R15650   3.650   2.690  10.516  2.1415  0.4827 -1.3730
  143SAPE   H4S15651   3.529   2.615  10.406 -0.9237 -0.5686  0.6596
  143SAPE   C2515652   3.741   2.579  10.357  0.6312  0.2604 -0.0587
  143SAPE   H5R15653   3.842   2.587  10.399  0.0640  0.1560  1.3783
  143SAPE   C2615654   3.733   2.561  10.229  0.3029  0.7553 -0.3507
  143SAPE   H6R15655   3.821   2.555  10.163  0.4893  0.2149 -0.0519
  143SAPE   C2715656   3.603   2.549  10.150 -0.0126  0.0449 -0.5385
  143SAPE   H7R15657   3.535   2.631  10.181  0.6453 -0.2634  1.9546
  143SAPE   H7S15658   3.551   2.459  10.188  2.5436 -1.3504 -0.0899
  143SAPE   C2815659   3.608   2.547  10.001  0.7016 -0.6564  0.5586
  143SAPE   H8R15660   3.584   2.449   9.957  0.6775 -0.3815 -0.0536
  143SAPE   C2915661   3.628   2.649   9.916 -0.4885  0.1581 -0.1750
  143SAPE   H9R15662   3.645   2.632   9.809  1.2906 -1.8818  0.3731
  143SAPE  C21015663   3.661   2.788   9.958 -0.2219 -0.1854  0.3144
  143SAPE  H10R15664   3.702   2.789  10.061 -1.2582 -2.5517  0.8327
  143SAPE  H10S15665   3.567   2.844   9.976 -0.4060 -0.3602 -0.0844
  143SAPE  C21115666   3.745   2.870   9.862 -0.5599  0.5259 -0.1600
  143SAPE  H11R15667   3.851   2.882   9.890 -0.0391 -0.4666 -1.5774
  143SAPE  C21215668   3.716   2.913   9.739  0.7919 -0.6400  0.1752
  143SAPE  H12R15669   3.799   2.943   9.674  2.9862 -0.5491  2.8843
  143SAPE  C21315670   3.573   2.907   9.681 -0.1759  0.7187  0.2017
  143SAPE  H13R15671   3.505   2.835   9.732 -1.5126  1.2214 -0.8061
  143SAPE  H13S15672   3.577   2.867   9.577 -2.6403 -0.3991  0.4742
  143SAPE  C21415673   3.507   3.042   9.690 -0.1320 -0.1684 -0.0400
  143SAPE  H14R15674   3.518   3.097   9.784  0.1920 -1.0157  0.4305
  143SAPE  C21515675   3.443   3.100   9.587  0.5432  0.2333  0.4326
  143SAPE  H15R15676   3.392   3.196   9.604 -2.0756 -0.8061 -1.0269
  143SAPE  C21615677   3.406   3.046   9.454 -0.2588 -0.3050 -0.4802
  143SAPE  H16R15678   3.312   2.990   9.474 -0.0729 -0.7440 -0.8307
  143SAPE  H16S15679   3.468   2.965   9.410 -0.5682 -1.2216  0.7323
  143SAPE  C21715680   3.381   3.153   9.344 -0.2857 -0.8463  0.5223
  143SAPE  H17R15681   3.326   3.239   9.391 -1.2737  0.0029 -2.0007
  143SAPE  H17S15682   3.306   3.115   9.271 -0.2949  0.6837 -0.3136
  143SAPE  C21815683   3.511   3.201   9.275  0.3547  0.2424 -0.3645
  143SAPE  H18R15684   3.564   3.122   9.219  0.4721  0.8352 -1.1007
  143SAPE  H18S15685   3.591   3.234   9.345  1.1546 -0.7239 -0.8127
  143SAPE  C21915686   3.478   3.314   9.173  0.3086  0.0272  0.6214
  143SAPE  H19R15687   3.383   3.294   9.120  0.4134 -1.6171  0.9993
  143SAPE  H19S15688   3.560   3.313   9.098  0.6693  0.2491  1.0050
  143SAPE  C22015689   3.475   3.453   9.233 -0.3051  0.1230  0.3261
  143SAPE  H20R15690   3.579   3.490   9.236 -0.0276 -0.6832  2.1037
  143SAPE  H20S15691   3.436   3.467   9.336 -0.3463  1.4982  0.1366
  143SAPE  H20T15692   3.413   3.526   9.177 -0.1404  1.0970  1.3885
  143SAPE   C3315693   3.887   2.900  10.563  0.8350 -0.0961  0.6376
  143SAPE   H3X15694   3.866   3.000  10.607  0.7342  0.5893 -0.8790
  143SAPE   H3Y15695   3.784   2.878  10.526  1.3265  2.1527 -2.4836
  143SAPE   C3415696   3.972   2.931  10.435  0.7837  0.6748  0.5952
  143SAPE   H4X15697   3.968   2.839  10.372  2.3298 -0.2284  1.7472
  143SAPE   H4Y15698   4.075   2.955  10.470  0.1318  1.5965  1.9241
  143SAPE   C3515699   3.916   3.038  10.354  0.4029  0.2342  0.6790
  143SAPE   H5X15700   3.986   3.068  10.273 -0.6834  1.0039  0.0007
  143SAPE   H5Y15701   3.903   3.127  10.420  2.3015  0.4523  0.8001
  143SAPE   C3615702   3.789   2.988  10.283  0.0096  0.2353 -0.0371
  143SAPE   H6X15703   3.713   2.976  10.363 -0.3122 -0.0634 -0.3836
  143SAPE   H6Y15704   3.801   2.889  10.234 -1.1071 -0.6662  1.4291
  143SAPE   C3715705   3.737   3.095  10.181 -0.1996  0.9800 -0.5433
  143SAPE   H7X15706   3.698   3.195  10.209  1.4634  1.8953 -1.3022
  143SAPE   H7Y15707   3.655   3.044  10.127  0.8673  0.0602 -1.3622
  143SAPE   C3815708   3.841   3.121  10.073 -0.0669 -0.5289 -0.4972
  143SAPE   H8X15709   3.879   3.021  10.043  0.7420 -0.0937 -0.9505
  143SAPE   H8Y15710   3.934   3.170  10.108 -0.5298  0.0626 -0.0748
  143SAPE   C3915711   3.778   3.202   9.960 -0.1724  0.3019  0.1501
  143SAPE   H9X15712   3.744   3.303   9.993 -3.5901 -0.6585 -0.0631
  143SAPE   H9Y15713   3.694   3.147   9.912  1.6681 -0.7373 -2.1294
  143SAPE  C31015714   3.875   3.223   9.845 -0.2098  0.6319  0.2921
  143SAPE  H10X15715   3.891   3.124   9.797 -0.8839  0.5948  0.1232
  143SAPE  H10Y15716   3.965   3.273   9.887  0.0586  0.3924  0.0097
  143SAPE  C31115717   3.807   3.318   9.749  0.2229 -0.3414 -0.3017
  143SAPE  H11X15718   3.818   3.420   9.791  1.3652 -0.7354  0.4002
  143SAPE  H11Y15719   3.698   3.303   9.733 -0.1113  0.4313  1.0285
  143SAPE  C31215720   3.872   3.312   9.610 -0.0766 -0.8976 -0.6266
  143SAPE  H12X15721   3.873   3.207   9.574 -1.0542 -0.4258 -2.0950
  143SAPE  H12Y15722   3.980   3.334   9.630 -0.8743  1.8763  1.2915
  143SAPE  C31315723   3.816   3.418   9.518  0.1883  0.2494  0.1577
  143SAPE  H13X15724   3.807   3.508   9.582 -2.1365  0.2890 -0.1484
  143SAPE  H13Y15725   3.716   3.387   9.480  0.7652 -4.4859  1.7477
  143SAPE  C31415726   3.908   3.449   9.402  0.2507 -0.5498  0.1489
  143SAPE  H14X15727   4.016   3.458   9.424 -0.2678  0.6897  2.5921
  143SAPE  H14Y15728   3.885   3.552   9.369  0.5860 -0.4157  0.3401
  143SAPE  C31515729   3.884   3.356   9.282 -0.0143 -0.5837 -0.1918
  143SAPE  H15X15730   3.778   3.372   9.253  0.2790  1.3534 -0.3281
  143SAPE  H15Y15731   3.903   3.250   9.309 -1.7369 -0.5250  1.4284
  143SAPE  C31615732   3.990   3.380   9.171 -0.0883  0.5442 -0.5452
  143SAPE  H16X15733   4.003   3.282   9.120  0.9301 -0.1329  0.9728
  143SAPE  H16Y15734   4.084   3.412   9.221  1.0877 -2.1180 -0.8657
  143SAPE  C31715735   3.946   3.474   9.062 -0.8488  0.4083  0.6110
  143SAPE  H17X15736   4.036   3.491   9.000 -0.4826 -2.1075  0.3359
  143SAPE  H17Y15737   3.904   3.569   9.101 -0.7625  0.5006  0.4760
  143SAPE  C31815738   3.839   3.417   8.965  0.0874 -0.5411  0.0448
  143SAPE  H18X15739   3.822   3.495   8.887  0.5292 -1.1370 -0.6608
  143SAPE  H18Y15740   3.751   3.408   9.031  1.4368  0.2308  2.0612
  143SAPE  H18Z15741   3.879   3.326   8.916  0.1445 -0.1917 -0.5586
  144SAPE     N15742   2.681   1.509  11.057 -0.2978  0.0958 -0.4606
  144SAPE   HN115743   2.707   1.593  11.000  1.0368  1.7992  2.4242
  144SAPE   HN215744   2.677   1.415  11.015  3.1564  0.3152 -1.6436
  144SAPE   HN315745   2.585   1.531  11.089 -1.3365 -1.1713 -2.5246
  144SAPE   C1215746   2.788   1.497  11.164 -0.0972  0.1677 -0.7508
  144SAPE  H12A15747   2.745   1.433  11.244 -0.7728  0.8291 -0.5779
  144SAPE  H12B15748   2.803   1.600  11.203  1.2000 -0.5330  0.7160
  144SAPE   C1115749   2.924   1.445  11.120  0.1847 -0.2464  0.1852
  144SAPE  H11A15750   2.993   1.446  11.207 -0.8584  2.0759  1.0838
  144SAPE  H11B15751   2.958   1.514  11.040  3.4492 -0.7687  0.9809
  144SAPE     P15752   3.009   1.227  11.010  0.5139  0.2552 -0.6460
  144SAPE   O1315753   3.104   1.205  11.120 -0.0673 -0.3725 -0.1701
  144SAPE   O1415754   2.957   1.114  10.929 -0.0413 -0.4882  0.0742
  144SAPE   O1215755   2.896   1.317  11.073 -0.5113  0.3802 -0.3484
  144SAPE   O1115756   3.080   1.319  10.899 -0.3914 -0.1354  0.0501
  144SAPE    C115757   3.019   1.353  10.776  0.5066  0.0189  0.2061
  144SAPE    HA15758   3.035   1.264  10.710 -3.2533 -0.5282 -0.1522
  144SAPE    HB15759   2.912   1.379  10.786  0.1505 -0.9376 -0.7945
  144SAPE    C215760   3.091   1.479  10.711  0.0280  0.3401  0.2746
  144SAPE    HS15761   3.041   1.492  10.612  2.2636 -0.7959 -1.0894
  144SAPE   O2115762   3.230   1.438  10.694  0.4737 -0.1192  0.4285
  144SAPE   C2115763   3.287   1.485  10.579  0.0855 -0.8272 -0.0435
  144SAPE   O2215764   3.226   1.548  10.492  0.2998 -0.4487  0.3102
  144SAPE   C2215765   3.433   1.460  10.578 -0.0671 -0.5630 -0.5391
  144SAPE   H2R15766   3.472   1.520  10.662  1.1312 -1.3162 -0.5367
  144SAPE   H2S15767   3.450   1.350  10.584 -0.7359 -0.8155 -2.4314
  144SAPE    C315768   3.086   1.604  10.799  0.3505 -0.3862 -0.3914
  144SAPE    HX15769   3.153   1.593  10.887 -1.2445 -0.5902  0.8522
  144SAPE    HY15770   2.989   1.614  10.853  1.2290  0.3535  1.1283
  144SAPE   O3115771   3.113   1.726  10.726 -0.2419  0.4298  0.3612
  144SAPE   C3115772   3.007   1.783  10.678 -0.0003  0.1285  0.1408
  144SAPE   O3215773   2.891   1.760  10.708 -0.5809 -0.9253 -0.1695
  144SAPE   C3215774   3.051   1.893  10.580  0.4141  0.4855 -0.7792
  144SAPE   H2X15775   3.161   1.883  10.568  0.4529 -2.0959  0.7901
  144SAPE   H2Y15776   3.038   1.993  10.627  1.2863 -0.1483  0.8904
  144SAPE   C2315777   3.495   1.523  10.451  0.6033  0.7009  0.1109
  144SAPE   H3R15778   3.479   1.632  10.439  4.6304  1.3183 -1.5087
  144SAPE   H3S15779   3.445   1.461  10.374 -0.6682 -0.2364  1.6197
  144SAPE   C2415780   3.645   1.498  10.430 -0.2659 -0.3306 -0.2627
  144SAPE   H4R15781   3.673   1.522  10.325 -0.0329 -1.5204 -0.4848
  144SAPE   H4S15782   3.677   1.393  10.441  2.1313  0.2080 -1.4256
  144SAPE   C2515783   3.727   1.568  10.537  0.1486 -1.0633 -0.2257
  144SAPE   H5R15784   3.733   1.520  10.635  1.7590 -1.6849 -0.6061
  144SAPE   C2615785   3.788   1.690  10.526  0.3108  0.4845  0.1256
  144SAPE   H6R15786   3.820   1.727  10.624 -0.7220 -3.9606  2.3736
  144SAPE   C2715787   3.794   1.788  10.414 -0.5143 -0.1807  0.7837
  144SAPE   H7R15788   3.765   1.887  10.455 -0.6589 -0.3454  1.0890
  144SAPE   H7S15789   3.718   1.756  10.339  0.4874  0.9310 -0.7517
  144SAPE   C2815790   3.928   1.804  10.338 -1.0092 -0.9919  0.0692
  144SAPE   H8R15791   4.010   1.816  10.410 -0.8836  3.3028 -0.5353
  144SAPE   C2915792   3.949   1.824  10.207  0.5359  0.1862 -0.1126
  144SAPE   H9R15793   4.055   1.828  10.176  1.2042  0.3271  2.0341
  144SAPE  C21015794   3.843   1.817  10.106 -0.0514 -0.5867  0.4377
  144SAPE  H10R15795   3.744   1.785  10.145  0.4168  1.5331  3.7668
  144SAPE  H10S15796   3.862   1.751  10.019  1.2201 -0.5392  0.6713
  144SAPE  C21115797   3.818   1.959  10.041  0.7768 -0.2826  0.4971
  144SAPE  H11R15798   3.795   2.041  10.111 -1.2209  0.5573 -1.0212
  144SAPE  C21215799   3.821   1.987   9.910  0.3068 -1.0319  0.1271
  144SAPE  H12R15800   3.786   2.086   9.877 -0.6016 -0.7541  1.7685
  144SAPE  C21315801   3.856   1.888   9.798 -0.1215  0.0499  0.4066
  144SAPE  H13R15802   3.775   1.814   9.815 -1.0848  0.4098 -2.0801
  144SAPE  H13S15803   3.946   1.825   9.819  0.0290 -0.0839 -0.5775
  144SAPE  C21415804   3.850   1.932   9.652 -0.4246  0.4597 -0.3056
  144SAPE  H14R15805   3.781   1.862   9.604  1.8142 -1.3235 -1.1395
  144SAPE  C21515806   3.896   2.042   9.583  0.3532  0.1010  0.0338
  144SAPE  H15R15807   3.870   2.050   9.476  0.8085 -0.5949 -0.1379
  144SAPE  C21615808   3.982   2.152   9.639 -0.0795 -0.6627 -1.0153
  144SAPE  H16R15809   4.064   2.183   9.571 -1.5699  1.0854 -2.1036
  144SAPE  H16S15810   4.027   2.120   9.736  0.9861  1.4765 -0.7463
  144SAPE  C21715811   3.903   2.286   9.667  0.5552  0.6048  0.1886
  144SAPE  H17R15812   3.971   2.362   9.711  1.4759  0.9452 -1.7071
  144SAPE  H17S15813   3.823   2.274   9.743 -0.0426 -0.2157 -0.5539
  144SAPE  C21815814   3.845   2.361   9.542 -0.2085  0.1778  0.0088
  144SAPE  H18R15815   3.760   2.307   9.496 -0.2955  2.3132 -2.5321
  144SAPE  H18S15816   3.930   2.359   9.470  0.4519  0.1063  0.7693
  144SAPE  C21915817   3.799   2.500   9.576 -0.2966 -0.3109  0.2747
  144SAPE  H19R15818   3.882   2.556   9.625  0.4072 -3.0801  2.5473
  144SAPE  H19S15819   3.722   2.489   9.656 -1.5438  0.4496 -0.7821
  144SAPE  C22015820   3.744   2.572   9.450 -0.2294  0.1296  0.2707
  144SAPE  H20R15821   3.657   2.516   9.407  0.8030 -0.3628 -1.2362
  144SAPE  H20S15822   3.810   2.582   9.361  0.5270 -1.6882  0.5762
  144SAPE  H20T15823   3.688   2.666   9.468  0.9520  0.9159 -0.1203
  144SAPE   C3315824   2.970   1.886  10.451 -0.7971 -0.0524 -0.2866
  144SAPE   H3X15825   2.861   1.888  10.469 -0.4804  2.2906  1.9921
  144SAPE   H3Y15826   2.994   1.795  10.393  2.5758  1.5073 -1.6295
  144SAPE   C3415827   2.988   2.017  10.366  0.1106  0.7389  0.2868
  144SAPE   H4X15828   3.052   2.097  10.408  1.2777 -0.3248  0.5804
  144SAPE   H4Y15829   2.889   2.068  10.357 -1.7378 -2.4931  0.9085
  144SAPE   C3515830   3.040   1.974  10.223 -0.8132  0.1413 -0.5792
  144SAPE   H5X15831   2.986   1.885  10.183  2.4109 -2.2788 -0.0131
  144SAPE   H5Y15832   3.143   1.930  10.225 -0.8718  0.0012 -0.5847
  144SAPE   C3615833   3.028   2.083  10.122  0.3503 -0.8104 -0.4645
  144SAPE   H6X15834   3.099   2.166  10.146 -1.7280  0.1186  3.1818
  144SAPE   H6Y15835   2.925   2.121  10.136  0.9668  0.5782  0.5541
  144SAPE   C3715836   3.053   2.030   9.979  0.4578  0.0730 -0.1396
  144SAPE   H7X15837   2.974   1.954   9.957  0.7549 -0.2105 -0.2308
  144SAPE   H7Y15838   3.149   1.976   9.965 -0.1208 -1.3835  1.1059
  144SAPE   C3815839   3.025   2.142   9.881  0.3774  0.0059  0.9270
  144SAPE   H8X15840   3.106   2.218   9.890 -1.1984  1.6783  1.7514
  144SAPE   H8Y15841   2.936   2.198   9.917  0.8232  1.7795 -0.5047
  144SAPE   C3915842   3.015   2.075   9.742 -0.0479 -0.3883 -0.9605
  144SAPE   H9X15843   2.926   2.013   9.720  0.9829 -1.6599 -1.6838
  144SAPE   H9Y15844   3.100   2.004   9.728  0.2213 -0.5664  1.2621
  144SAPE  C31015845   3.033   2.182   9.635 -0.4447  0.0679  0.5468
  144SAPE  H10X15846   3.135   2.222   9.650 -0.4595  0.2111  0.2684
  144SAPE  H10Y15847   2.947   2.252   9.640 -1.3332 -0.7490 -1.7641
  144SAPE  C31115848   3.036   2.116   9.498 -0.0632 -0.0419 -0.1574
  144SAPE  H11X15849   2.937   2.071   9.481 -0.3971  1.0139 -1.1151
  144SAPE  H11Y15850   3.114   2.037   9.490  2.5591  2.4735 -1.7569
  144SAPE  C31215851   3.054   2.218   9.387 -0.2510 -0.4646 -0.0368
  144SAPE  H12X15852   3.152   2.269   9.399 -1.0152  0.6404  2.0256
  144SAPE  H12Y15853   2.981   2.301   9.401  0.0705 -0.3434  1.0489
  144SAPE  C31315854   3.050   2.160   9.244 -0.7214 -0.3719  0.4105
  144SAPE  H13X15855   2.954   2.108   9.227 -1.6770  1.3729  0.2080
  144SAPE  H13Y15856   3.134   2.087   9.244  0.0877  0.5261 -0.2511
  144SAPE  C31415857   3.066   2.273   9.138  0.4087  0.6599 -0.3995
  144SAPE  H14X15858   3.161   2.329   9.150 -0.5148  2.6137 -1.7128
  144SAPE  H14Y15859   2.978   2.340   9.149 -0.0458 -0.2299  1.8697
  144SAPE  C31515860   3.066   2.205   8.997 -0.0588 -0.2702 -0.4045
  144SAPE  H15X15861   2.982   2.133   8.996 -0.1951 -0.1057 -0.6811
  144SAPE  H15Y15862   3.164   2.154   9.010  0.3301  0.3407 -0.8745
  144SAPE  C31615863   3.075   2.300   8.877  0.1682  0.1506 -0.1858
  144SAPE  H16X15864   3.144   2.386   8.886  0.0044  0.1615  1.3552
  144SAPE  H16Y15865   2.977   2.352   8.866  0.4962  0.8468  0.0676
  144SAPE  C31715866   3.096   2.229   8.749  0.2801  0.4145  0.2098
  144SAPE  H17X15867   3.076   2.292   8.660  1.0926  0.4781  0.0639
  144SAPE  H17Y15868   3.039   2.133   8.742 -0.2660  0.7304  0.2554
  144SAPE  C31815869   3.242   2.186   8.734 -0.9081  0.6968  0.2722
  144SAPE  H18X15870   3.269   2.109   8.809  0.0974  1.0393  0.2848
  144SAPE  H18Y15871   3.309   2.271   8.757 -1.8928  1.4831  0.3107
  144SAPE  H18Z15872   3.259   2.141   8.634 -0.6545 -0.9556  1.0142
  145SAPE     N15873   4.914   2.901  11.635  0.3176 -0.1784  0.2182
  145SAPE   HN115874   4.990   2.945  11.691  0.6909 -1.7269  0.9760
  145SAPE   HN215875   4.820   2.928  11.670  1.5736  1.8668  2.3133
  145SAPE   HN315876   4.925   2.798  11.642 -1.2381 -0.3358  0.7387
  145SAPE   C1215877   4.934   2.958  11.495  0.3285  0.3225  0.1890
  145SAPE  H12A15878   5.043   2.959  11.474  0.0938  0.3345 -1.0938
  145SAPE  H12B15879   4.901   3.064  11.491 -1.2269 -0.1564 -1.6430
  145SAPE   C1115880   4.843   2.876  11.398 -0.5291  0.4567  0.4643
  145SAPE  H11A15881   4.869   2.768  11.404 -2.5506 -0.0208  1.8354
  145SAPE  H11B15882   4.858   2.917  11.296 -3.1856 -2.4841 -1.3055
  145SAPE     P15883   4.596   2.938  11.335  0.2355  0.4990 -0.1456
  145SAPE   O1315884   4.461   2.898  11.379 -0.1128  0.3916 -0.1988
  145SAPE   O1415885   4.617   3.080  11.319 -0.0397  0.3721  0.2456
  145SAPE   O1215886   4.706   2.890  11.442 -0.2191  0.4911  0.2965
  145SAPE   O1115887   4.629   2.865  11.200 -0.2302  0.5790 -0.1969
  145SAPE    C115888   4.544   2.770  11.144 -0.1963 -0.2238 -0.0899
  145SAPE    HA15889   4.442   2.813  11.130  0.1213  0.0572 -1.7882
  145SAPE    HB15890   4.585   2.755  11.042  1.7439 -0.6653  0.7239
  145SAPE    C215891   4.542   2.625  11.204  0.2673 -0.1877  0.7041
  145SAPE    HS15892   4.459   2.622  11.278 -1.0340  2.1820 -0.5571
  145SAPE   O2115893   4.669   2.600  11.273 -0.0623  0.3210 -0.0593
  145SAPE   C2115894   4.657   2.485  11.350 -0.9068 -0.4072 -0.3086
  145SAPE   O2215895   4.558   2.416  11.364  0.2541  0.2423  0.9605
  145SAPE   C2215896   4.792   2.464  11.428 -0.0397  0.5764  0.5898
  145SAPE   H2R15897   4.875   2.477  11.355 -1.3810 -0.0970 -1.1186
  145SAPE   H2S15898   4.806   2.545  11.503  1.5662  0.9126 -0.0397
  145SAPE    C315899   4.506   2.528  11.087  0.0948  0.1264  0.3856
  145SAPE    HX15900   4.491   2.427  11.130 -2.2445  0.6074  0.7991
  145SAPE    HY15901   4.603   2.524  11.033  0.2267 -1.4894  0.6840
  145SAPE   O3115902   4.387   2.578  11.022 -0.2821  0.0779  0.7192
  145SAPE   C3115903   4.274   2.542  11.094 -0.4070 -0.9002  0.2533
  145SAPE   O3215904   4.281   2.479  11.196  0.4350 -0.1169 -0.2833
  145SAPE   C3215905   4.145   2.585  11.019 -0.7484 -0.1415  0.2660
  145SAPE   H2X15906   4.105   2.684  11.051 -0.9428  0.4482 -1.6767
  145SAPE   H2Y15907   4.069   2.512  11.054 -0.3136 -0.6515  0.1658
  145SAPE   C2315908   4.806   2.329  11.497  0.5151  0.5272  0.0571
  145SAPE   H3R15909   4.724   2.317  11.570 -0.6943 -0.7591 -1.4351
  145SAPE   H3S15910   4.899   2.325  11.556  0.8287  1.0529 -0.3876
  145SAPE   C2415911   4.807   2.206  11.394 -0.0383  0.0922  0.0886
  145SAPE   H4R15912   4.705   2.182  11.358 -0.1210  0.1240  0.3019
  145SAPE   H4S15913   4.830   2.117  11.455  0.7956 -0.2515 -0.6916
  145SAPE   C2515914   4.913   2.200  11.281 -0.3934  0.9801  0.7234
  145SAPE   H5R15915   5.016   2.202  11.318  0.8566 -1.6751 -2.1806
  145SAPE   C2615916   4.895   2.194  11.148 -0.3758  0.0832 -0.0744
  145SAPE   H6R15917   4.986   2.194  11.087 -0.1686 -0.1400  0.2328
  145SAPE   C2715918   4.766   2.193  11.075  0.4668  0.2133 -0.0558
  145SAPE   H7R15919   4.752   2.285  11.015  0.9302 -0.2506 -0.8936
  145SAPE   H7S15920   4.679   2.199  11.143  0.5526 -0.3059  0.1109
  145SAPE   C2815921   4.767   2.082  10.974 -0.5125  0.9333 -0.6273
  145SAPE   H8R15922   4.869   2.044  10.959 -0.2804  0.2671  2.1303
  145SAPE   C2915923   4.658   2.044  10.901  0.2866  1.0010 -0.0733
  145SAPE   H9R15924   4.684   1.968  10.826  1.0870 -0.6169  1.7333
  145SAPE  C21015925   4.521   2.100  10.909 -0.4035 -0.0143  0.2208
  145SAPE  H10R15926   4.508   2.157  11.004 -0.7236 -2.1797  1.5487
  145SAPE  H10S15927   4.445   2.020  10.896 -1.1377  0.5727  0.8131
  145SAPE  C21115928   4.520   2.196  10.795  0.3989 -0.0676  0.0224
  145SAPE  H11R15929   4.521   2.302  10.821 -0.9385  0.4194 -1.6915
  145SAPE  C21215930   4.496   2.164  10.665 -0.0774 -0.5707  0.8032
  145SAPE  H12R15931   4.501   2.244  10.591 -0.6890 -0.5173  0.8119
  145SAPE  C21315932   4.469   2.024  10.609 -0.3370 -0.1372 -0.0420
  145SAPE  H13R15933   4.505   1.953  10.686  0.1641  1.3316  1.1390
  145SAPE  H13S15934   4.521   1.998  10.514  1.3538  0.6390  0.6101
  145SAPE  C21415935   4.312   2.005  10.598 -0.3907 -0.4058 -0.7096
  145SAPE  H14R15936   4.253   2.062  10.670  0.3088  0.1353 -0.5493
  145SAPE  C21515937   4.239   1.939  10.510  0.5628  0.5193  0.3848
  145SAPE  H15R15938   4.130   1.960  10.514  0.6421  1.1613 -0.5314
  145SAPE  C21615939   4.296   1.875  10.387  0.4999 -0.1968  0.6241
  145SAPE  H16R15940   4.225   1.803  10.341 -1.2036  2.3807 -1.0160
  145SAPE  H16S15941   4.387   1.818  10.414  2.0333  1.8194  0.0040
  145SAPE  C21715942   4.330   1.988  10.282  0.4182  0.1869 -0.3776
  145SAPE  H17R15943   4.410   2.050  10.328  1.6506 -2.1704  0.8636
  145SAPE  H17S15944   4.234   2.038  10.257 -0.4796 -0.7298  1.0600
  145SAPE  C21815945   4.388   1.932  10.150 -0.1634 -0.1437  0.1615
  145SAPE  H18R15946   4.310   1.865  10.108  0.2383  0.0156 -0.8633
  145SAPE  H18S15947   4.473   1.867  10.180  0.5694 -0.2503 -1.9516
  145SAPE  C21915948   4.451   2.041  10.063  0.9477  0.2220 -0.2960
  145SAPE  H19R15949   4.521   1.999   9.988  0.4454 -1.4748  0.1413
  145SAPE  H19S15950   4.509   2.102  10.136  2.1950 -1.6151  0.3178
  145SAPE  C22015951   4.352   2.135   9.992  0.1680  0.0153  0.1404
  145SAPE  H20R15952   4.398   2.191   9.908  2.1549 -1.2276  0.3356
  145SAPE  H20S15953   4.318   2.206  10.071 -0.1808  0.5432 -0.4771
  145SAPE  H20T15954   4.263   2.073   9.964  1.1024 -0.4320 -2.0568
  145SAPE   C3315955   4.170   2.584  10.873 -0.3855 -0.0315  0.5029
  145SAPE   H3X15956   4.268   2.630  10.849  0.6676 -1.8242  1.1093
  145SAPE   H3Y15957   4.096   2.651  10.825 -0.8999 -0.5874  0.4940
  145SAPE   C3415958   4.169   2.445  10.819  0.1843 -0.0829 -0.0933
  145SAPE   H4X15959   4.077   2.386  10.839  0.5523 -0.1804  1.4907
  145SAPE   H4Y15960   4.259   2.394  10.861  0.7862  1.1740  0.1643
  145SAPE   C3515961   4.194   2.427  10.668 -0.3222  0.4836  0.3468
  145SAPE   H5X15962   4.110   2.487  10.626 -1.3882  1.0659  3.1292
  145SAPE   H5Y15963   4.182   2.322  10.633  2.4871  0.3465 -0.4672
  145SAPE   C3615964   4.324   2.489  10.605 -0.1959 -0.1801  0.3013
  145SAPE   H6X15965   4.404   2.424  10.645 -1.1967 -0.6296  1.6253
  145SAPE   H6Y15966   4.342   2.595  10.632  1.3872 -0.7076  1.4314
  145SAPE   C3715967   4.321   2.489  10.445 -0.4205 -0.6775  0.2282
  145SAPE   H7X15968   4.247   2.565  10.410 -0.6141 -1.2863 -0.7323
  145SAPE   H7Y15969   4.279   2.391  10.415  1.4109 -1.5866  0.5325
  145SAPE   C3815970   4.463   2.525  10.393  0.0745 -0.3931 -0.6817
  145SAPE   H8X15971   4.537   2.442  10.401 -0.0261 -0.4820 -0.6749
  145SAPE   H8Y15972   4.504   2.613  10.446  2.3119 -0.9722 -1.3301
  145SAPE   C3915973   4.460   2.560  10.243  0.4885  1.0667 -0.7029
  145SAPE   H9X15974   4.419   2.661  10.228  0.4971  1.0461 -0.8737
  145SAPE   H9Y15975   4.391   2.487  10.195  1.5964 -1.8667  1.8476
  145SAPE  C31015976   4.600   2.549  10.178 -0.1725  0.2473  0.2589
  145SAPE  H10X15977   4.656   2.455  10.197  0.1534  0.4444  0.2799
  145SAPE  H10Y15978   4.664   2.633  10.211  1.4794 -0.4175 -1.0364
  145SAPE  C31115979   4.590   2.553  10.020 -0.0225 -0.6530 -0.0414
  145SAPE  H11X15980   4.693   2.559   9.979  0.2301  0.7227  0.7409
  145SAPE  H11Y15981   4.535   2.643   9.984 -0.3722 -1.3711 -1.3879
  145SAPE  C31215982   4.518   2.436   9.959  0.4446  0.3377 -0.4398
  145SAPE  H12X15983   4.415   2.422   9.998  1.4953  0.4479  2.6958
  145SAPE  H12Y15984   4.567   2.342   9.993  0.9603  1.1346  1.1255
  145SAPE  C31315985   4.526   2.438   9.801  0.3265  0.5470 -0.3322
  145SAPE  H13X15986   4.543   2.331   9.776 -0.9104  0.0733  0.7447
  145SAPE  H13Y15987   4.606   2.499   9.755 -0.1794  0.6022 -1.1815
  145SAPE  C31415988   4.390   2.477   9.736 -0.2185 -0.0496 -1.0879
  145SAPE  H14X15989   4.358   2.579   9.765  2.7699  0.1645  2.1526
  145SAPE  H14Y15990   4.307   2.410   9.768  0.9021 -0.8276  0.3045
  145SAPE  C31515991   4.412   2.472   9.590  0.2382  0.0554  0.7100
  145SAPE  H15X15992   4.425   2.367   9.558 -1.1878  0.5459 -1.7084
  145SAPE  H15Y15993   4.498   2.537   9.563  1.3509 -1.2800  0.9851
  145SAPE  C31615994   4.282   2.539   9.520  0.3584 -0.2849  0.5500
  145SAPE  H16X15995   4.283   2.646   9.548 -0.9119 -0.2651  0.5946
  145SAPE  H16Y15996   4.188   2.491   9.555 -0.5034  1.1815  0.3339
  145SAPE  C31715997   4.287   2.526   9.369 -0.6515 -0.5138 -0.3318
  145SAPE  H17X15998   4.192   2.573   9.335 -1.1563 -0.4303  1.1252
  145SAPE  H17Y15999   4.280   2.421   9.331  1.6671 -0.6311 -0.5649
  145SAPE  C31816000   4.405   2.590   9.297  0.4126  0.3999 -0.3809
  145SAPE  H18X16001   4.428   2.687   9.347  1.3639 -0.5263  1.0684
  145SAPE  H18Y16002   4.380   2.608   9.191 -2.6874  1.2799  0.3949
  145SAPE  H18Z16003   4.494   2.525   9.312  0.7586  1.2576  1.6567
  146SAPE     N16004   2.038   2.203  10.938  0.2381 -0.7828  0.2628
  146SAPE   HN116005   2.053   2.305  10.951  1.6087 -0.7197 -1.4800
  146SAPE   HN216006   2.128   2.155  10.918  1.4408  0.9054  1.3413
  146SAPE   HN316007   1.969   2.194  10.861  0.9244  2.0925 -0.8154
  146SAPE   C1216008   1.978   2.153  11.073 -0.0128  0.1413  0.0397
  146SAPE  H12A16009   1.879   2.202  11.085  0.4243  0.8453  0.8403
  146SAPE  H12B16010   2.040   2.180  11.161 -0.1137  0.5387 -0.0098
  146SAPE   C1116011   1.982   2.000  11.058  0.8193  0.0748 -0.1188
  146SAPE  H11A16012   1.923   1.969  10.970  0.1753  0.2410  0.2512
  146SAPE  H11B16013   1.931   1.953  11.144  1.9965 -1.1864 -0.0769
  146SAPE     P16014   2.189   1.899  10.936  0.1434  0.2812  0.3555
  146SAPE   O1316015   2.221   2.012  10.854 -0.6014 -0.1691  0.3214
  146SAPE   O1416016   2.299   1.806  10.973 -0.0791 -0.0299 -0.1367
  146SAPE   O1216017   2.122   1.954  11.065  0.7080 -0.5484  0.4099
  146SAPE   O1116018   2.066   1.822  10.867  0.3820  0.3219 -0.6476
  146SAPE    C116019   2.082   1.678  10.847  0.2711 -0.2459 -0.2334
  146SAPE    HA16020   2.104   1.624  10.942 -2.0984  1.4266  1.4055
  146SAPE    HB16021   1.991   1.621  10.815  0.3355 -0.5604  0.1278
  146SAPE    C216022   2.172   1.650  10.722  0.4054 -0.3264 -0.2263
  146SAPE    HS16023   2.272   1.686  10.753  0.1243  2.6579 -2.3599
  146SAPE   O2116024   2.131   1.729  10.607  0.1658  0.2202  0.1701
  146SAPE   C2116025   2.231   1.786  10.538 -0.1189 -0.7273  0.4760
  146SAPE   O2216026   2.344   1.808  10.572  0.1329 -0.0322 -0.2555
  146SAPE   C2216027   2.181   1.814  10.403 -0.4510 -0.3958 -0.5500
  146SAPE   H2R16028   2.070   1.818  10.404 -0.4282  1.4980 -0.7776
  146SAPE   H2S16029   2.212   1.918  10.376 -0.2537 -0.5059 -0.7518
  146SAPE    C316030   2.185   1.502  10.675  0.0306  0.5418 -0.1118
  146SAPE    HX16031   2.084   1.475  10.637  0.8515 -0.3027 -1.7920
  146SAPE    HY16032   2.206   1.435  10.761  2.7861  2.7928  1.1164
  146SAPE   O3116033   2.288   1.482  10.575 -0.4843 -0.4495  0.2011
  146SAPE   C3116034   2.416   1.487  10.618  0.5252 -0.3962  0.3399
  146SAPE   O3216035   2.445   1.487  10.741 -0.2104  0.1220  0.4676
  146SAPE   C3216036   2.511   1.499  10.497 -0.2730 -0.0018  0.5866
  146SAPE   H2X16037   2.450   1.499  10.405  3.1795  3.7321 -2.0656
  146SAPE   H2Y16038   2.577   1.410  10.489  0.1016  0.2452  0.8345
  146SAPE   C2316039   2.243   1.720  10.308  0.3783 -0.2010 -0.3944
  146SAPE   H3R16040   2.238   1.612  10.335  1.2939  0.2064  1.5500
  146SAPE   H3S16041   2.349   1.753  10.312 -0.1458  1.4473  0.6109
  146SAPE   C2416042   2.185   1.752  10.168  0.6067 -0.2056 -0.0276
  146SAPE   H4R16043   2.181   1.862  10.150  0.6049 -0.2359 -0.2066
  146SAPE   H4S16044   2.082   1.713  10.170  0.5246 -0.0067 -0.4337
  146SAPE   C2516045   2.277   1.678  10.069  0.7022 -0.0268 -0.4171
  146SAPE   H5R16046   2.318   1.582  10.104  0.2521  0.2219  0.8434
  146SAPE   C2616047   2.303   1.725   9.942 -0.0399  0.5256  0.5232
  146SAPE   H6R16048   2.360   1.663   9.870 -3.4353 -1.3920 -0.7273
  146SAPE   C2716049   2.240   1.848   9.881  0.4762  0.7624  0.5145
  146SAPE   H7R16050   2.315   1.893   9.812  1.5051 -0.6472  0.6851
  146SAPE   H7S16051   2.202   1.928   9.948 -0.6994 -0.4855  1.3796
  146SAPE   C2816052   2.115   1.810   9.806 -0.1917 -0.1382  0.8558
  146SAPE   H8R16053   2.029   1.802   9.874 -0.4983 -1.2806  0.3576
  146SAPE   C2916054   2.096   1.792   9.672  0.6205  0.4606 -0.2720
  146SAPE   H9R16055   1.996   1.764   9.635 -0.2319  0.5959  1.7994
  146SAPE  C21016056   2.209   1.796   9.573 -0.0074 -0.3809  0.9720
  146SAPE  H10R16057   2.290   1.740   9.625  1.1821  0.6407  0.2690
  146SAPE  H10S16058   2.247   1.900   9.565  0.5350 -0.6661 -0.4088
  146SAPE  C21116059   2.165   1.737   9.436 -0.9986 -0.5607  0.5445
  146SAPE  H11R16060   2.056   1.741   9.420 -0.9464  1.6340  0.4008
  146SAPE  C21216061   2.247   1.705   9.336 -0.7457  0.3469  0.3873
  146SAPE  H12R16062   2.214   1.663   9.239  2.8227 -3.1950  0.4547
  146SAPE  C21316063   2.398   1.705   9.334 -0.6256 -0.0507 -0.4620
  146SAPE  H13R16064   2.433   1.704   9.439 -0.7820  1.1600 -0.3862
  146SAPE  H13S16065   2.420   1.807   9.295 -0.8675 -0.5731 -2.0668
  146SAPE  C21416066   2.459   1.599   9.245  0.3674  0.4535  0.1237
  146SAPE  H14R16067   2.493   1.503   9.286  0.0384 -0.3378 -1.4266
  146SAPE  C21516068   2.470   1.611   9.114  0.9676 -0.2772 -0.7688
  146SAPE  H15R16069   2.532   1.540   9.056  0.5402  0.7022 -2.5235
  146SAPE  C21616070   2.420   1.729   9.025 -0.4874 -0.1372 -0.0445
  146SAPE  H16R16071   2.345   1.790   9.079 -0.9714 -0.8979  0.1445
  146SAPE  H16S16072   2.353   1.686   8.947 -1.1511  4.6134 -2.4473
  146SAPE  C21716073   2.536   1.806   8.973  0.0168  0.0447  0.0923
  146SAPE  H17R16074   2.588   1.746   8.896 -2.1981 -0.0334 -1.4354
  146SAPE  H17S16075   2.603   1.834   9.057 -1.9659  0.1720  1.7108
  146SAPE  C21816076   2.485   1.929   8.904  0.1320 -0.2494  0.3916
  146SAPE  H18R16077   2.563   2.002   8.875  0.1833 -0.4629 -0.0100
  146SAPE  H18S16078   2.417   1.981   8.976  1.1574 -0.2147  1.3700
  146SAPE  C21916079   2.411   1.897   8.771 -0.1876 -0.5082  0.1011
  146SAPE  H19R16080   2.320   1.835   8.788 -1.3671  0.8780 -0.9542
  146SAPE  H19S16081   2.481   1.831   8.716  0.4580 -0.6357  1.0498
  146SAPE  C22016082   2.372   2.018   8.681 -0.1756  0.3193 -0.6348
  146SAPE  H20R16083   2.450   2.096   8.665 -0.3093  0.7305  0.6361
  146SAPE  H20S16084   2.282   2.068   8.723 -0.1633 -0.1083 -0.0833
  146SAPE  H20T16085   2.347   1.980   8.579 -0.3392  1.1440 -0.9134
  146SAPE   C3316086   2.599   1.627  10.468  0.0916 -0.0521  0.0154
  146SAPE   H3X16087   2.663   1.637  10.558  0.1877  2.6822 -0.2788
  146SAPE   H3Y16088   2.537   1.717  10.451 -0.8852 -0.7438 -0.1495
  146SAPE   C3416089   2.697   1.621  10.345 -0.5852  0.5595 -0.3005
  146SAPE   H4X16090   2.762   1.532  10.338 -1.5828 -0.1607 -0.5777
  146SAPE   H4Y16091   2.760   1.710  10.364 -1.6332  1.2420  0.1088
  146SAPE   C3516092   2.628   1.641  10.209  0.2922 -0.0471  0.8145
  146SAPE   H5X16093   2.592   1.745  10.224  1.4219 -0.0302  4.3709
  146SAPE   H5Y16094   2.552   1.568  10.173  0.7290  0.8551 -2.2362
  146SAPE   C3616095   2.728   1.644  10.097 -0.9701 -0.4429 -0.0891
  146SAPE   H6X16096   2.818   1.582  10.120 -0.5497  0.1809 -0.0210
  146SAPE   H6Y16097   2.770   1.747  10.100  0.1741 -0.8907 -0.2059
  146SAPE   C3716098   2.672   1.624   9.955 -0.5751  0.1182  0.5216
  146SAPE   H7X16099   2.602   1.710   9.944  1.3599  1.8456  0.9611
  146SAPE   H7Y16100   2.608   1.534   9.953 -0.3112 -0.0574 -1.0719
  146SAPE   C3816101   2.782   1.638   9.850  0.1358 -0.1281 -0.2098
  146SAPE   H8X16102   2.845   1.547   9.839  0.1046 -0.3132  1.0632
  146SAPE   H8Y16103   2.834   1.729   9.886 -1.9539  1.7734 -1.7228
  146SAPE   C3916104   2.727   1.661   9.705 -0.3497 -0.7235  0.4113
  146SAPE   H9X16105   2.657   1.746   9.694  0.0671 -0.6254 -2.2975
  146SAPE   H9Y16106   2.659   1.581   9.670 -0.4351 -0.1307 -0.8394
  146SAPE  C31016107   2.834   1.688   9.603  0.0044  0.2578  0.9701
  146SAPE  H10X16108   2.903   1.601   9.601 -1.0422 -0.6042 -1.4683
  146SAPE  H10Y16109   2.894   1.780   9.619  2.4170 -0.4999 -2.5488
  146SAPE  C31116110   2.773   1.702   9.457 -1.0402  0.1378  0.8681
  146SAPE  H11X16111   2.720   1.800   9.454 -1.3819 -0.0364  1.0880
  146SAPE  H11Y16112   2.705   1.615   9.442 -0.0083 -0.5950  0.3887
  146SAPE  C31216113   2.882   1.698   9.347 -1.3166  0.1115 -0.2940
  146SAPE  H12X16114   2.937   1.604   9.368  1.7401  2.2151  1.9353
  146SAPE  H12Y16115   2.963   1.773   9.358  1.7774 -3.1810  1.3107
  146SAPE  C31316116   2.833   1.701   9.203  0.9160  0.1803  0.0612
  146SAPE  H13X16117   2.807   1.808   9.188  1.7781  0.3302 -0.3782
  146SAPE  H13Y16118   2.742   1.637   9.197  0.9077  0.3422 -3.3859
  146SAPE  C31416119   2.934   1.648   9.106  0.6645 -0.0291  0.0201
  146SAPE  H14X16120   2.943   1.537   9.117 -0.8694 -0.3196 -1.3606
  146SAPE  H14Y16121   3.031   1.696   9.131  0.5036 -0.7420  2.2231
  146SAPE  C31516122   2.898   1.681   8.956  0.0480 -0.5059  0.0014
  146SAPE  H15X16123   2.799   1.729   8.935  0.4521 -0.1914 -1.2804
  146SAPE  H15Y16124   2.919   1.589   8.898  0.2298 -0.7185  0.4004
  146SAPE  C31616125   3.006   1.782   8.902  0.6755 -0.2234  0.1953
  146SAPE  H16X16126   3.111   1.747   8.908  0.8681  0.5982  2.8677
  146SAPE  H16Y16127   2.995   1.864   8.976  0.3805 -1.2419  1.3177
  146SAPE  C31716128   2.968   1.834   8.759  0.4744  0.3577  0.6027
  146SAPE  H17X16129   2.926   1.745   8.707  1.0317 -0.9867  2.3331
  146SAPE  H17Y16130   3.057   1.878   8.709 -0.2686  0.8396 -0.3081
  146SAPE  C31816131   2.863   1.943   8.766 -0.0283 -0.2095  0.7796
  146SAPE  H18X16132   2.763   1.918   8.807  0.4614 -0.2833  1.9510
  146SAPE  H18Y16133   2.841   1.975   8.662  0.3290 -1.8877  0.1572
  146SAPE  H18Z16134   2.904   2.031   8.821  1.6129  0.4780 -1.3531
  147SAPE     N16135   4.779   4.839   6.043 -0.3262 -0.3445 -0.1861
  147SAPE   HN116136   4.708   4.823   6.118 -0.3835  1.0382  0.0892
  147SAPE   HN216137   4.729   4.886   5.965  1.4333  0.0356 -1.1292
  147SAPE   HN316138   4.814   4.744   6.019  1.4724  0.1371  0.3788
  147SAPE   C1216139   4.894   4.923   6.094 -0.3755 -0.0893  0.3685
  147SAPE  H12A16140   4.859   5.019   6.138  0.5041 -0.3077  1.6141
  147SAPE  H12B16141   4.953   4.952   6.005 -0.6459  0.0125  0.2222
  147SAPE   C1116142   4.975   4.840   6.194  0.1352 -0.1717  0.0695
  147SAPE  H11A16143   5.060   4.903   6.229 -0.5428  0.4565  0.6407
  147SAPE  H11B16144   5.003   4.755   6.129  0.2214  1.0541 -1.5762
  147SAPE     P16145   4.852   4.666   6.341  0.3228  0.3912 -0.3409
  147SAPE   O1316146   4.780   4.677   6.465 -0.2709  0.3122 -0.5309
  147SAPE   O1416147   4.767   4.629   6.226 -0.5399 -0.0175  0.7040
  147SAPE   O1216148   4.909   4.808   6.309 -0.2760 -0.1143  0.6729
  147SAPE   O1116149   4.976   4.570   6.356 -0.6687 -0.1201  0.3663
  147SAPE    C116150   5.101   4.622   6.411  0.5092 -0.4373  0.1010
  147SAPE    HA16151   5.183   4.578   6.351  0.4602 -1.3265  0.6589
  147SAPE    HB16152   5.109   4.732   6.407 -0.9357 -0.2850  0.7491
  147SAPE    C216153   5.123   4.562   6.554  0.2639  0.1663  0.0293
  147SAPE    HS16154   5.136   4.451   6.546 -0.7471  0.0835 -0.6148
  147SAPE   O2116155   5.018   4.605   6.639 -0.5635  0.3599 -0.3712
  147SAPE   C2116156   4.939   4.519   6.677  0.0696  0.1333  0.3016
  147SAPE   O2216157   4.941   4.396   6.646 -0.1601 -0.3021 -0.0454
  147SAPE   C2216158   4.838   4.579   6.780 -0.1242  0.9930 -0.3542
  147SAPE   H2R16159   4.890   4.656   6.841 -0.0951 -0.2349  1.2625
  147SAPE   H2S16160   4.755   4.621   6.720 -0.3931  1.1232  0.1023
  147SAPE    C316161   5.249   4.623   6.618 -0.4211 -0.2321 -0.2873
  147SAPE    HX16162   5.240   4.731   6.642  0.3976  0.1658 -1.6309
  147SAPE    HY16163   5.335   4.623   6.548  0.4849 -1.7872  0.7566
  147SAPE   O3116164   5.293   4.543   6.728  0.6080 -0.5846 -0.2750
  147SAPE   C3116165   5.241   4.575   6.849  0.3988  0.7108  0.6194
  147SAPE   O3216166   5.165   4.671   6.878  0.4815 -0.3374 -0.3153
  147SAPE   C3216167   5.310   4.480   6.943 -0.4702  0.5320  0.5002
  147SAPE   H2X16168   5.417   4.511   6.950 -0.1021 -0.3619 -0.8737
  147SAPE   H2Y16169   5.301   4.374   6.910  0.0465  0.3052  1.0741
  147SAPE   C2316170   4.784   4.466   6.879  1.1720 -0.4684  0.4811
  147SAPE   H3R16171   4.762   4.372   6.824 -2.9755 -0.7663  2.2797
  147SAPE   H3S16172   4.689   4.506   6.920  0.6002  0.5122 -1.6535
  147SAPE   C2416173   4.885   4.439   6.988 -0.4019  0.3267  0.3699
  147SAPE   H4R16174   4.903   4.534   7.042  0.9798  0.1863  0.1931
  147SAPE   H4S16175   4.975   4.399   6.936  0.4536 -1.4438  3.0300
  147SAPE   C2516176   4.830   4.328   7.072 -0.0990  0.1305  0.0680
  147SAPE   H5R16177   4.832   4.234   7.014 -1.7701 -1.2164  2.0732
  147SAPE   C2616178   4.792   4.333   7.200  0.3404 -0.3515  0.2896
  147SAPE   H6R16179   4.760   4.241   7.251 -0.2836 -1.0338 -1.2507
  147SAPE   C2716180   4.811   4.449   7.292  0.4057 -0.5095  0.1436
  147SAPE   H7R16181   4.737   4.444   7.375  0.2043  1.5501  0.1614
  147SAPE   H7S16182   4.799   4.545   7.237  1.3093 -0.6113 -0.2510
  147SAPE   C2816183   4.947   4.438   7.352  0.0362  0.4596  0.1915
  147SAPE   H8R16184   5.035   4.431   7.287  1.2889  0.1167  1.8515
  147SAPE   C2916185   4.973   4.441   7.479  0.5232  0.7290 -0.2625
  147SAPE   H9R16186   5.080   4.430   7.503  0.0876 -1.9958  0.8387
  147SAPE  C21016187   4.872   4.461   7.598 -0.6858  0.6985 -0.2775
  147SAPE  H10R16188   4.846   4.359   7.633  0.7096  0.1441 -0.7780
  147SAPE  H10S16189   4.775   4.508   7.570 -0.5289  0.3931 -1.4103
  147SAPE  C21116190   4.923   4.551   7.707  0.1646  0.4595  1.0930
  147SAPE  H11R16191   5.010   4.613   7.680 -1.6260  1.8402 -2.1461
  147SAPE  C21216192   4.874   4.540   7.830 -0.1860  0.2053 -0.0345
  147SAPE  H12R16193   4.904   4.621   7.899 -0.3481 -0.6149  1.0327
  147SAPE  C21316194   4.769   4.447   7.882  0.5593 -0.3284  0.2062
  147SAPE  H13R16195   4.704   4.389   7.813 -1.3890 -0.8229  2.3177
  147SAPE  H13S16196   4.702   4.510   7.944 -2.0404 -0.2361 -2.4978
  147SAPE  C21416197   4.834   4.340   7.960  1.8188  0.2688 -0.6160
  147SAPE  H14R16198   4.852   4.242   7.914 -0.4215 -0.2075 -0.5603
  147SAPE  C21516199   4.851   4.344   8.093 -0.4594 -0.3611  0.5348
  147SAPE  H15R16200   4.915   4.265   8.136  0.4939 -0.4084 -0.8992
  147SAPE  C21616201   4.805   4.447   8.192 -0.1693 -0.2027  0.2090
  147SAPE  H16R16202   4.711   4.413   8.241  0.2718 -1.5818  0.1470
  147SAPE  H16S16203   4.775   4.541   8.141 -1.5561 -0.3547  0.7083
  147SAPE  C21716204   4.914   4.477   8.302 -0.3522 -0.0177  0.1441
  147SAPE  H17R16205   5.015   4.486   8.256 -0.4699 -0.7228 -0.2720
  147SAPE  H17S16206   4.931   4.391   8.370  1.6940  0.7387  0.6469
  147SAPE  C21816207   4.869   4.604   8.377  0.3094 -0.4767 -0.6280
  147SAPE  H18R16208   4.764   4.589   8.411 -0.8388  2.8499 -2.1556
  147SAPE  H18S16209   4.866   4.688   8.304  2.1637 -0.4202 -0.6766
  147SAPE  C21916210   4.949   4.648   8.502  0.1299 -0.2369 -0.3510
  147SAPE  H19R16211   5.041   4.699   8.464 -0.1399  0.2036 -0.4199
  147SAPE  H19S16212   4.981   4.561   8.562  1.2338  0.4403  0.0788
  147SAPE  C22016213   4.869   4.745   8.595  0.6816 -0.0091  0.2000
  147SAPE  H20R16214   4.771   4.694   8.609  0.4157  0.2267 -0.7091
  147SAPE  H20S16215   4.850   4.839   8.538  0.9898 -0.1408 -0.1236
  147SAPE  H20T16216   4.915   4.770   8.693 -0.6926  0.9268  0.6432
  147SAPE   C3316217   5.253   4.516   7.084  0.1318  0.0217  0.5372
  147SAPE   H3X16218   5.147   4.481   7.084  0.2608 -0.5369 -1.7677
  147SAPE   H3Y16219   5.249   4.624   7.106 -1.3086  0.2495 -0.6765
  147SAPE   C3416220   5.334   4.440   7.192 -0.4527 -0.5383 -0.2584
  147SAPE   H4X16221   5.359   4.345   7.141  1.0727  0.5465 -1.6343
  147SAPE   H4Y16222   5.268   4.425   7.280  2.5025  0.5236  2.3148
  147SAPE   C3516223   5.461   4.504   7.249 -0.5915  0.3863  0.2374
  147SAPE   H5X16224   5.429   4.599   7.297  0.3708  0.5848  0.5163
  147SAPE   H5Y16225   5.523   4.531   7.161  1.8763 -0.5184  1.5941
  147SAPE   C3616226   5.536   4.406   7.347 -0.8883  0.1330 -0.4263
  147SAPE   H6X16227   5.585   4.338   7.273 -3.0570 -0.0996 -1.7392
  147SAPE   H6Y16228   5.457   4.348   7.398 -0.4312 -0.5447 -0.4788
  147SAPE   C3716229   5.636   4.474   7.436 -0.3881 -0.6112 -0.6225
  147SAPE   H7X16230   5.598   4.577   7.450  2.8943  0.5413  0.7583
  147SAPE   H7Y16231   5.735   4.491   7.388 -0.7231  0.4199 -0.9774
  147SAPE   C3816232   5.655   4.402   7.578  0.1176 -0.9528  1.8467
  147SAPE   H8X16233   5.699   4.303   7.554  0.0342 -1.1918  2.6603
  147SAPE   H8Y16234   5.555   4.390   7.625 -1.0162  0.7227 -0.0077
  147SAPE   C3916235   5.753   4.478   7.664 -0.1950  0.5018  0.7665
  147SAPE   H9X16236   5.725   4.584   7.683  0.9138  1.4068 -2.1169
  147SAPE   H9Y16237   5.840   4.484   7.595 -0.9766 -2.9426 -0.7299
  147SAPE  C31016238   5.778   4.405   7.795  0.8946 -0.0193 -0.6185
  147SAPE  H10X16239   5.796   4.295   7.789  0.1037 -0.1584 -0.4493
  147SAPE  H10Y16240   5.681   4.417   7.847  0.6894  0.0549 -1.0165
  147SAPE  C31116241   5.885   4.468   7.880 -0.1998  0.1655 -1.1733
  147SAPE  H11X16242   5.862   4.574   7.903 -2.1459 -0.3600 -0.5429
  147SAPE  H11Y16243   5.979   4.483   7.823  2.0553  0.0385  2.2263
  147SAPE  C31216244   5.920   4.390   8.012 -0.1656 -0.9047 -0.4226
  147SAPE  H12X16245   5.966   4.294   7.979 -0.0988 -1.3389  0.8835
  147SAPE  H12Y16246   5.828   4.381   8.074  0.2446  1.2738  0.5856
  147SAPE  C31316247   6.035   4.453   8.107 -0.0617  0.4049  0.1933
  147SAPE  H13X16248   6.018   4.562   8.119  0.8647  0.7429 -1.2933
  147SAPE  H13Y16249   6.129   4.455   8.048 -0.4113  0.5319 -0.3704
  147SAPE  C31416250   6.063   4.374   8.235 -0.0374  0.0235  0.6842
  147SAPE  H14X16251   6.076   4.270   8.198  0.1087  1.3088 -3.3261
  147SAPE  H14Y16252   5.970   4.375   8.296 -0.5618 -3.6712  0.1501
  147SAPE  C31516253   6.185   4.408   8.313 -0.3418 -0.5123 -1.0301
  147SAPE  H15X16254   6.273   4.424   8.247  2.7136 -0.2459  2.7640
  147SAPE  H15Y16255   6.202   4.316   8.373  0.5595 -1.3105 -2.4325
  147SAPE  C31616256   6.164   4.529   8.405  0.4830 -0.7977 -0.2614
  147SAPE  H16X16257   6.114   4.493   8.498 -1.9265 -0.3887 -1.3421
  147SAPE  H16Y16258   6.093   4.599   8.356 -0.3128 -1.9567 -0.8085
  147SAPE  C31716259   6.292   4.606   8.440  0.0285  0.1961  0.4774
  147SAPE  H17X16260   6.264   4.680   8.518 -0.2629 -0.5205  1.0673
  147SAPE  H17Y16261   6.324   4.662   8.349 -2.1698 -0.3177 -0.6890
  147SAPE  C31816262   6.396   4.512   8.493 -0.0200 -0.6491  0.7278
  147SAPE  H18X16263   6.433   4.443   8.414  0.1428 -0.4177  0.5999
  147SAPE  H18Y16264   6.339   4.453   8.568 -2.2851 -0.9484 -1.0857
  147SAPE  H18Z16265   6.477   4.576   8.532 -0.3173  0.5931 -0.6148
  148SAPE     N16266   4.523   1.878   6.569  0.0949 -0.2314 -0.4708
  148SAPE   HN116267   4.447   1.927   6.518 -1.3293 -1.9051 -0.0616
  148SAPE   HN216268   4.605   1.882   6.507  1.3509  0.6292  1.1520
  148SAPE   HN316269   4.488   1.780   6.568  0.0657 -0.2258 -0.1983
  148SAPE   C1216270   4.534   1.944   6.704  0.1633  0.2403  0.4976
  148SAPE  H12A16271   4.520   2.054   6.702 -1.1202  0.1501  1.9395
  148SAPE  H12B16272   4.631   1.917   6.751  0.7905  2.7876  0.8470
  148SAPE   C1116273   4.421   1.900   6.799  0.6158  0.1838  0.8389
  148SAPE  H11A16274   4.434   1.953   6.896 -1.3898  0.9012  0.7547
  148SAPE  H11B16275   4.442   1.795   6.826 -1.1044  0.0734  1.8931
  148SAPE     P16276   4.210   2.058   6.731  0.2341 -0.1175 -0.1066
  148SAPE   O1316277   4.256   2.129   6.614 -0.1404  0.2922  0.1756
  148SAPE   O1416278   4.063   2.029   6.742 -0.2971 -0.2618 -0.1513
  148SAPE   O1216279   4.288   1.916   6.742  0.0446 -0.5932 -0.1283
  148SAPE   O1116280   4.265   2.131   6.864 -0.0780  1.0907  0.0301
  148SAPE    C116281   4.313   2.268   6.853 -0.0559 -0.4476  0.3581
  148SAPE    HA16282   4.402   2.273   6.788 -1.4231 -0.0041 -1.5800
  148SAPE    HB16283   4.231   2.329   6.808  0.2353  1.4394  2.2005
  148SAPE    C216284   4.354   2.311   6.997 -0.0841 -0.1761 -0.0411
  148SAPE    HS16285   4.417   2.227   7.034  1.6288  1.6654  1.4789
  148SAPE   O2116286   4.225   2.344   7.055  0.1512  0.3366 -0.0409
  148SAPE   C2116287   4.206   2.282   7.166  0.2677  0.0016  0.4848
  148SAPE   O2216288   4.282   2.207   7.225  0.3116  0.2018  0.0908
  148SAPE   C2216289   4.065   2.319   7.223 -0.1734 -0.0915  0.0964
  148SAPE   H2R16290   3.990   2.295   7.145  1.0283  1.0529 -1.5003
  148SAPE   H2S16291   4.033   2.257   7.308 -1.5016  1.5473  0.8511
  148SAPE    C316292   4.444   2.440   6.984  0.5381 -0.5498 -0.1221
  148SAPE    HX16293   4.377   2.518   6.943 -0.1188 -2.0139 -1.9668
  148SAPE    HY16294   4.529   2.427   6.913  0.7535  1.8051 -0.3975
  148SAPE   O3116295   4.481   2.489   7.114  0.3294 -0.5785 -0.0568
  148SAPE   C3116296   4.613   2.482   7.140  0.1957  0.4986 -0.2604
  148SAPE   O3216297   4.700   2.470   7.054  0.2205 -0.1305  1.1199
  148SAPE   C3216298   4.641   2.493   7.286 -0.6814 -0.4700 -0.2426
  148SAPE   H2X16299   4.686   2.593   7.307  0.5248 -0.3249 -3.0889
  148SAPE   H2Y16300   4.731   2.428   7.292 -1.1918 -1.2644 -0.9587
  148SAPE   C2316301   4.060   2.466   7.272  0.0477  0.0913 -0.0765
  148SAPE   H3R16302   3.951   2.485   7.283  0.2701  1.2732  0.2232
  148SAPE   H3S16303   4.083   2.532   7.185  1.1122  1.4011  1.1455
  148SAPE   C2416304   4.147   2.496   7.388 -0.4551  0.3487 -0.0972
  148SAPE   H4R16305   4.242   2.450   7.353  0.2075  1.4516  0.1904
  148SAPE   H4S16306   4.110   2.456   7.484  0.2821 -0.2449 -0.0519
  148SAPE   C2516307   4.182   2.647   7.404  0.7608  0.3445  0.5844
  148SAPE   H5R16308   4.172   2.707   7.312  2.8647 -0.4241 -0.2247
  148SAPE   C2616309   4.216   2.707   7.524 -0.6800  0.0113 -0.4196
  148SAPE   H6R16310   4.218   2.817   7.533 -0.2495 -0.0033 -0.3176
  148SAPE   C2716311   4.225   2.640   7.651  0.4370 -0.3153  0.3332
  148SAPE   H7R16312   4.173   2.542   7.658 -1.0647  0.4344  0.0301
  148SAPE   H7S16313   4.155   2.705   7.708 -1.3652  0.0004 -2.0596
  148SAPE   C2816314   4.363   2.652   7.716 -0.2202  0.2421  0.0693
  148SAPE   H8R16315   4.450   2.635   7.651 -0.5898 -0.6117 -0.2182
  148SAPE   C2916316   4.385   2.654   7.849  0.7083  0.1213  0.2805
  148SAPE   H9R16317   4.487   2.637   7.885  0.1174 -0.1103  1.9716
  148SAPE  C21016318   4.273   2.640   7.959 -0.1126  0.5474 -0.4316
  148SAPE  H10R16319   4.282   2.546   8.016  3.1140 -0.9588 -3.0382
  148SAPE  H10S16320   4.177   2.639   7.904 -0.4138 -1.9515  0.0399
  148SAPE  C21116321   4.277   2.764   8.044  0.0429 -0.1850  0.0216
  148SAPE  H11R16322   4.254   2.855   7.986 -0.6541 -1.0116 -1.0261
  148SAPE  C21216323   4.287   2.784   8.175  0.3973  0.2990 -0.3600
  148SAPE  H12R16324   4.288   2.881   8.227  1.4475 -0.8384  1.8626
  148SAPE  C21316325   4.312   2.664   8.260 -0.1033 -0.0562  0.5076
  148SAPE  H13R16326   4.390   2.681   8.337  1.2437  0.5004 -0.9501
  148SAPE  H13S16327   4.354   2.578   8.204 -0.4736 -0.8084  1.3504
  148SAPE  C21416328   4.172   2.613   8.297 -0.0182 -0.5262 -0.2863
  148SAPE  H14R16329   4.123   2.565   8.212 -1.1624 -2.8743  1.5863
  148SAPE  C21516330   4.105   2.628   8.418  0.1135  0.0650  0.3447
  148SAPE  H15R16331   4.005   2.583   8.426 -0.0623 -0.0160 -1.6839
  148SAPE  C21616332   4.158   2.704   8.536 -0.2578 -0.1673  0.5610
  148SAPE  H16R16333   4.269   2.701   8.536 -0.2388 -2.7933 -1.0661
  148SAPE  H16S16334   4.121   2.661   8.632 -0.3162 -0.4121  0.4270
  148SAPE  C21716335   4.124   2.855   8.534  0.1805 -0.4402 -0.3828
  148SAPE  H17R16336   4.020   2.866   8.572  0.2972  1.3927 -0.4911
  148SAPE  H17S16337   4.124   2.902   8.434 -0.7416 -1.9879 -1.1481
  148SAPE  C21816338   4.217   2.936   8.631  0.2987  0.2398 -0.3492
  148SAPE  H18R16339   4.162   3.031   8.649 -1.2028 -0.6519 -0.0456
  148SAPE  H18S16340   4.309   2.950   8.570  0.7181 -1.1423 -0.0715
  148SAPE  C21916341   4.239   2.871   8.773 -0.1575  0.5259 -0.3453
  148SAPE  H19R16342   4.312   2.788   8.772  1.1432  1.5773  1.2723
  148SAPE  H19S16343   4.142   2.829   8.807  0.2168 -0.6623 -0.7027
  148SAPE  C22016344   4.283   2.970   8.876 -0.3207  0.0458 -0.3418
  148SAPE  H20R16345   4.368   3.025   8.830 -0.0316  0.7237  0.9623
  148SAPE  H20S16346   4.316   2.905   8.960  0.5142 -1.5077 -1.8016
  148SAPE  H20T16347   4.202   3.035   8.914 -2.3717 -2.7075  0.2730
  148SAPE   C3316348   4.539   2.424   7.372 -0.5791 -0.2437 -0.0086
  148SAPE   H3X16349   4.529   2.322   7.329 -0.4204  0.7530 -2.5582
  148SAPE   H3Y16350   4.442   2.479   7.366  0.4188  1.4180 -2.5565
  148SAPE   C3416351   4.583   2.403   7.521 -0.4057  0.0537  0.2270
  148SAPE   H4X16352   4.583   2.507   7.560 -2.4844 -0.2969  1.3030
  148SAPE   H4Y16353   4.685   2.359   7.531 -0.0386  0.0923 -2.5454
  148SAPE   C3516354   4.478   2.322   7.595  0.1147 -0.3302 -0.4651
  148SAPE   H5X16355   4.464   2.222   7.549 -0.9770  0.0426 -0.9911
  148SAPE   H5Y16356   4.384   2.378   7.572  0.3416  0.4660  0.4625
  148SAPE   C3616357   4.499   2.305   7.748 -0.0044 -0.6703  0.7084
  148SAPE   H6X16358   4.541   2.404   7.777 -2.3776  1.5064 -2.5540
  148SAPE   H6Y16359   4.579   2.232   7.773  0.3618  0.0766  1.8306
  148SAPE   C3716360   4.370   2.280   7.810  0.4997 -0.0385  0.2213
  148SAPE   H7X16361   4.333   2.183   7.772  0.9271 -1.1786  2.5672
  148SAPE   H7Y16362   4.292   2.355   7.784 -0.6315 -0.1545  2.9530
  148SAPE   C3816363   4.369   2.266   7.964  0.1108  0.1069  0.8330
  148SAPE   H8X16364   4.420   2.351   8.013  0.6710 -1.1454  2.5260
  148SAPE   H8Y16365   4.430   2.179   7.996  0.4962  0.0696  0.0356
  148SAPE   C3916366   4.228   2.235   8.019 -0.2980 -0.3019 -0.6046
  148SAPE   H9X16367   4.198   2.137   7.978  0.7065 -0.2107 -1.5852
  148SAPE   H9Y16368   4.155   2.312   7.984 -0.8993 -0.2631  0.6461
  148SAPE  C31016369   4.236   2.231   8.167  0.0936  0.2954  0.3073
  148SAPE  H10X16370   4.253   2.330   8.216 -1.9730  0.6155  0.4854
  148SAPE  H10Y16371   4.319   2.164   8.196 -1.4175 -1.6545  0.3304
  148SAPE  C31116372   4.108   2.190   8.244  0.2189  0.6383  0.0053
  148SAPE  H11X16373   4.103   2.082   8.217  1.2867  0.2700  1.1543
  148SAPE  H11Y16374   4.013   2.241   8.219 -1.3227 -2.3301 -0.5968
  148SAPE  C31216375   4.116   2.194   8.397 -0.2443 -0.3028  0.5669
  148SAPE  H12X16376   4.117   2.300   8.427 -1.2736  0.0513 -0.5656
  148SAPE  H12Y16377   4.211   2.144   8.426  0.0040 -1.4340 -1.8884
  148SAPE  C31316378   3.995   2.131   8.462  0.2509  0.0122  0.6021
  148SAPE  H13X16379   3.973   2.031   8.420  0.1903  0.2382  0.0844
  148SAPE  H13Y16380   3.901   2.177   8.427  1.0258  1.0533 -0.1982
  148SAPE  C31416381   4.019   2.118   8.612 -0.1336  0.5153 -0.4462
  148SAPE  H14X16382   4.107   2.054   8.633 -2.0389 -2.9773 -2.1246
  148SAPE  H14Y16383   3.930   2.060   8.644  0.0447  1.1713  1.3623
  148SAPE  C31516384   4.021   2.252   8.685  0.4521 -0.2296 -0.1326
  148SAPE  H15X16385   3.927   2.307   8.664 -0.9424 -1.6474  1.9746
  148SAPE  H15Y16386   4.108   2.309   8.644  0.1825  0.9190  0.8231
  148SAPE  C31616387   4.046   2.244   8.841 -0.1448  0.0149  0.5362
  148SAPE  H16X16388   4.132   2.175   8.853 -0.9228 -0.8478  1.2637
  148SAPE  H16Y16389   3.953   2.211   8.891 -0.6667 -1.0501 -1.0589
  148SAPE  C31716390   4.081   2.389   8.886  0.1607  0.0356  0.0314
  148SAPE  H17X16391   4.009   2.461   8.842 -0.0166 -0.4426 -0.4793
  148SAPE  H17Y16392   4.183   2.423   8.859  0.5325 -0.5710  0.6289
  148SAPE  C31816393   4.088   2.385   9.042  0.1714 -0.5304  0.6905
  148SAPE  H18X16394   4.128   2.482   9.079  3.3316 -2.5746  3.0995
  148SAPE  H18Y16395   4.154   2.306   9.084  1.6584  0.2880 -0.0204
  148SAPE  H18Z16396   3.989   2.362   9.087 -0.6356 -3.2149 -2.1429
  149SAPE     N16397   4.527   3.444   6.168  0.3043  0.1962  0.5009
  149SAPE   HN116398   4.588   3.437   6.084  1.1909  1.8477  0.9558
  149SAPE   HN216399   4.454   3.373   6.147 -0.7934  1.4990 -0.2445
  149SAPE   HN316400   4.481   3.537   6.181 -0.2670 -0.0991  0.6209
  149SAPE   C1216401   4.623   3.398   6.269  0.3271 -0.9532 -0.1216
  149SAPE  H12A16402   4.570   3.391   6.367 -0.5794 -0.6169 -0.5748
  149SAPE  H12B16403   4.702   3.472   6.293 -1.4741  0.3778  2.1776
  149SAPE   C1116404   4.680   3.268   6.230 -0.1436  0.5931 -0.5540
  149SAPE  H11A16405   4.601   3.194   6.206 -1.3924  1.7566 -0.1882
  149SAPE  H11B16406   4.723   3.226   6.323 -0.7889 -0.9987 -0.9402
  149SAPE     P16407   4.933   3.296   6.159  0.0950  0.1938 -0.0581
  149SAPE   O1316408   5.005   3.173   6.176 -0.0901 -0.2185 -0.0780
  149SAPE   O1416409   4.992   3.385   6.052 -0.7265 -0.0935  0.0185
  149SAPE   O1216410   4.778   3.278   6.128 -0.3808 -1.0624  0.2222
  149SAPE   O1116411   4.932   3.375   6.300 -0.2219 -0.4127  0.0415
  149SAPE    C116412   5.040   3.463   6.340 -0.2138  0.0584 -0.5741
  149SAPE    HA16413   5.143   3.423   6.331 -0.2837 -0.5816  1.1213
  149SAPE    HB16414   5.030   3.561   6.288 -0.6646 -0.5592 -1.6856
  149SAPE    C216415   5.026   3.503   6.492  0.2013 -0.6897 -0.0205
  149SAPE    HS16416   5.091   3.589   6.517  0.7539 -1.5390  1.6527
  149SAPE   O2116417   5.062   3.390   6.570  0.3386  0.0974 -0.0444
  149SAPE   C2116418   5.182   3.377   6.602 -0.3535 -0.4705 -0.3824
  149SAPE   O2216419   5.275   3.451   6.571 -0.4292 -0.2240 -0.1672
  149SAPE   C2216420   5.199   3.240   6.668 -0.7942  0.3182  0.5184
  149SAPE   H2R16421   5.102   3.187   6.671 -0.0499 -1.1478  0.0771
  149SAPE   H2S16422   5.254   3.177   6.594 -2.0231 -0.1576 -0.0054
  149SAPE    C316423   4.888   3.563   6.528  0.5883 -0.2513 -0.5792
  149SAPE    HX16424   4.821   3.475   6.520 -0.4396  0.5179 -0.6916
  149SAPE    HY16425   4.849   3.645   6.464  0.4891  1.2290  1.2930
  149SAPE   O3116426   4.885   3.614   6.665 -0.2457 -0.1451 -0.0513
  149SAPE   C3116427   4.938   3.735   6.674 -0.2930  0.2947  0.0856
  149SAPE   O3216428   4.994   3.793   6.579  0.1662 -0.3728 -0.3078
  149SAPE   C3216429   4.941   3.777   6.824  0.2943  0.3483  0.8226
  149SAPE   H2X16430   5.051   3.780   6.842  0.2994  2.0512  0.6606
  149SAPE   H2Y16431   4.902   3.687   6.877 -0.1627  0.1819  0.2101
  149SAPE   C2316432   5.285   3.237   6.797  0.7061 -0.5076  0.0435
  149SAPE   H3R16433   5.387   3.278   6.781  0.1992  1.1114  0.7060
  149SAPE   H3S16434   5.296   3.129   6.823 -1.7105 -0.7418  0.3191
  149SAPE   C2416435   5.216   3.307   6.912  0.2844 -0.0949 -0.1628
  149SAPE   H4R16436   5.118   3.254   6.915 -0.5643  1.0217 -3.3958
  149SAPE   H4S16437   5.188   3.410   6.878  0.7761 -0.1187 -0.6551
  149SAPE   C2516438   5.292   3.308   7.041 -0.1842 -0.8233  0.4786
  149SAPE   H5R16439   5.326   3.210   7.077 -1.8729 -1.0167  1.6789
  149SAPE   C2616440   5.332   3.416   7.118  1.6664 -0.5415  0.2459
  149SAPE   H6R16441   5.399   3.399   7.204  1.3787 -1.2194  0.3407
  149SAPE   C2716442   5.301   3.557   7.075  0.2968  0.4665  0.6006
  149SAPE   H7R16443   5.299   3.564   6.964  1.4395 -1.5524  0.4100
  149SAPE   H7S16444   5.381   3.624   7.113  0.1722  0.4678  0.8627
  149SAPE   C2816445   5.165   3.594   7.126  0.1988  0.5872  0.4276
  149SAPE   H8R16446   5.103   3.643   7.050 -0.1779 -0.9320 -0.2854
  149SAPE   C2916447   5.113   3.589   7.254 -0.7856  0.1450  0.9195
  149SAPE   H9R16448   5.016   3.637   7.274 -0.6782  0.5482  0.4907
  149SAPE  C21016449   5.193   3.559   7.379  1.3120 -0.0699  0.5113
  149SAPE  H10R16450   5.289   3.508   7.357  0.6713 -0.9898 -0.2311
  149SAPE  H10S16451   5.128   3.506   7.453 -0.3249 -0.5014 -1.1618
  149SAPE  C21116452   5.239   3.692   7.435  0.5197  0.4847 -0.1846
  149SAPE  H11R16453   5.244   3.781   7.371  0.1687  0.0828 -0.7707
  149SAPE  C21216454   5.286   3.697   7.558  0.2332  0.6329  0.0014
  149SAPE  H12R16455   5.323   3.795   7.592 -0.1870  1.3347 -1.4732
  149SAPE  C21316456   5.297   3.587   7.659  0.2387  0.2239  0.2712
  149SAPE  H13R16457   5.218   3.511   7.638  1.4508 -0.7446 -0.9547
  149SAPE  H13S16458   5.257   3.638   7.750 -0.9235  1.4566 -0.8891
  149SAPE  C21416459   5.430   3.515   7.668  0.0114  0.3584 -0.0309
  149SAPE  H14R16460   5.471   3.444   7.594  1.2345  0.3873  0.5878
  149SAPE  C21516461   5.501   3.521   7.787  0.2341  0.1603 -0.0562
  149SAPE  H15R16462   5.599   3.473   7.799  0.2782  0.1448 -0.4385
  149SAPE  C21616463   5.448   3.585   7.914 -0.2392  0.0423 -0.5358
  149SAPE  H16R16464   5.339   3.571   7.931  0.4997 -2.9778  2.7149
  149SAPE  H16S16465   5.483   3.691   7.911 -0.2248  0.0960  0.9355
  149SAPE  C21716466   5.510   3.525   8.042  0.4624  0.4737  0.1278
  149SAPE  H17R16467   5.619   3.507   8.025 -0.1763 -5.7969  0.1728
  149SAPE  H17S16468   5.474   3.421   8.061  1.7292  0.2951  1.7703
  149SAPE  C21816469   5.486   3.597   8.177 -0.1878 -0.2529 -0.5185
  149SAPE  H18R16470   5.559   3.673   8.212 -1.0209  0.9733 -1.3516
  149SAPE  H18S16471   5.500   3.512   8.247 -0.3082 -0.4322 -0.7106
  149SAPE  C21916472   5.340   3.646   8.214 -0.1667  0.6102  0.2971
  149SAPE  H19R16473   5.270   3.567   8.177 -0.8963  1.7153 -0.7433
  149SAPE  H19S16474   5.321   3.726   8.140 -2.4747 -0.9709 -0.9592
  149SAPE  C22016475   5.312   3.693   8.362  0.4280 -0.0565  0.9183
  149SAPE  H20R16476   5.357   3.794   8.374 -2.7187  1.3489  1.9020
  149SAPE  H20S16477   5.345   3.614   8.433  1.5829 -2.3106 -1.9302
  149SAPE  H20T16478   5.202   3.709   8.366  0.2486 -0.3996 -1.2543
  149SAPE   C3316479   4.859   3.906   6.852  0.3690 -0.0320 -0.6168
  149SAPE   H3X16480   4.750   3.895   6.830  0.5897 -0.6111 -1.4296
  149SAPE   H3Y16481   4.904   3.981   6.783  1.6939 -0.4263 -0.1895
  149SAPE   C3416482   4.875   3.952   6.998  0.1293  0.1675 -0.0509
  149SAPE   H4X16483   4.845   3.864   7.058 -0.8630  0.8364  0.4684
  149SAPE   H4Y16484   4.798   4.029   7.022  0.7656  0.6002  0.6292
  149SAPE   C3516485   5.014   3.997   7.036 -0.1568 -0.4307 -0.2775
  149SAPE   H5X16486   5.030   4.098   6.994 -0.0942 -1.0802 -1.9061
  149SAPE   H5Y16487   5.090   3.921   7.009  0.7896  0.4690 -0.1971
  149SAPE   C3616488   5.019   4.002   7.185  0.5829  0.2817  0.2557
  149SAPE   H6X16489   5.015   3.901   7.232  1.1536  1.6274  3.4682
  149SAPE   H6Y16490   4.927   4.053   7.220  0.2905 -2.2601  3.6761
  149SAPE   C3716491   5.126   4.082   7.247  0.6083 -0.2382  0.3281
  149SAPE   H7X16492   5.123   4.186   7.208  0.2773 -0.7133 -0.9526
  149SAPE   H7Y16493   5.223   4.040   7.212  2.5888  1.1248  3.7239
  149SAPE   C3816494   5.128   4.088   7.400  0.6643 -0.0937  0.2169
  149SAPE   H8X16495   5.121   3.982   7.431 -0.2011 -0.6080 -1.6175
  149SAPE   H8Y16496   5.032   4.121   7.445  0.9859  0.6329  0.3894
  149SAPE   C3916497   5.238   4.160   7.474 -0.0751  0.1311 -0.4964
  149SAPE   H9X16498   5.226   4.264   7.436 -1.6479  0.2419  0.2134
  149SAPE   H9Y16499   5.337   4.127   7.437 -0.4230 -1.5081 -0.0477
  149SAPE  C31016500   5.220   4.145   7.628  0.5863 -0.3824  0.3712
  149SAPE  H10X16501   5.255   4.042   7.653  1.7820  0.6212  3.2273
  149SAPE  H10Y16502   5.114   4.153   7.660  1.4041  0.5729  3.1253
  149SAPE  C31116503   5.307   4.253   7.701 -0.2560 -0.9357 -0.5904
  149SAPE  H11X16504   5.273   4.340   7.641  1.5456 -0.3570 -0.8202
  149SAPE  H11Y16505   5.416   4.238   7.691 -0.6944 -3.3685 -3.1141
  149SAPE  C31216506   5.277   4.251   7.846 -0.3865 -0.7378  0.1265
  149SAPE  H12X16507   5.285   4.143   7.870 -0.3371 -0.6776  0.3797
  149SAPE  H12Y16508   5.174   4.287   7.871  1.3972  5.1831  0.6057
  149SAPE  C31316509   5.377   4.335   7.930  0.7806  0.0645 -0.6456
  149SAPE  H13X16510   5.405   4.428   7.876 -0.9725  0.3188 -1.1821
  149SAPE  H13Y16511   5.470   4.276   7.943  0.2126 -0.5065  1.0527
  149SAPE  C31416512   5.329   4.374   8.068 -0.4770  0.3289  0.7529
  149SAPE  H14X16513   5.269   4.294   8.116 -1.6008  1.1309  0.7041
  149SAPE  H14Y16514   5.268   4.466   8.068  0.3983  0.9293  0.3770
  149SAPE  C31516515   5.456   4.418   8.150  0.0530 -0.4175  0.9271
  149SAPE  H15X16516   5.502   4.499   8.089 -1.0545 -0.6355 -0.2381
  149SAPE  H15Y16517   5.534   4.341   8.163  0.4799 -0.2713 -0.5841
  149SAPE  C31616518   5.407   4.491   8.272  0.2410 -0.0509 -0.9515
  149SAPE  H16X16519   5.313   4.550   8.268 -0.0024  0.1927  3.6188
  149SAPE  H16Y16520   5.489   4.564   8.291 -0.3658  0.5229 -0.5170
  149SAPE  C31716521   5.406   4.396   8.401  0.1962  0.0168 -0.2651
  149SAPE  H17X16522   5.511   4.364   8.415  1.1942  1.1522 -3.9122
  149SAPE  H17Y16523   5.358   4.303   8.363  0.6676  0.1299 -1.1651
  149SAPE  C31816524   5.332   4.451   8.526 -0.2450 -0.4850 -0.0132
  149SAPE  H18X16525   5.362   4.391   8.615  0.0903  0.6643  0.6656
  149SAPE  H18Y16526   5.222   4.447   8.517 -0.2590  1.3195 -0.9138
  149SAPE  H18Z16527   5.374   4.550   8.551 -2.1355  0.0269  1.3423
  150SAPE     N16528   3.971   4.605   6.198  0.2603 -0.4879 -0.5394
  150SAPE   HN116529   3.909   4.668   6.143  1.8242  0.9348 -0.7493
  150SAPE   HN216530   4.064   4.651   6.188 -0.2195  0.9385  1.0267
  150SAPE   HN316531   3.959   4.512   6.154  2.3940 -0.6549 -0.8874
  150SAPE   C1216532   3.929   4.592   6.343  0.1241  0.1104  0.8754
  150SAPE  H12A16533   3.989   4.505   6.377  0.3069  0.4546  1.4544
  150SAPE  H12B16534   3.823   4.560   6.342  0.5214 -1.3092 -1.3777
  150SAPE   C1116535   3.966   4.717   6.433  0.5373  0.9263 -0.0679
  150SAPE  H11A16536   4.076   4.729   6.430  0.8910 -1.8265 -1.1203
  150SAPE  H11B16537   3.941   4.684   6.536  2.6017  0.8599  0.4481
  150SAPE     P16538   3.954   4.979   6.371 -0.2308 -0.0614 -0.2398
  150SAPE   O1316539   4.093   4.958   6.334 -0.0679 -0.9582 -0.2459
  150SAPE   O1416540   3.864   5.059   6.282 -0.4062  0.1763 -0.0471
  150SAPE   O1216541   3.891   4.826   6.381  0.4460  0.1691 -0.0760
  150SAPE   O1116542   3.938   5.039   6.518  0.3531 -0.4161  0.0280
  150SAPE    C116543   3.815   4.994   6.586 -0.4934 -0.0346 -0.1632
  150SAPE    HA16544   3.728   4.984   6.517 -2.0577  0.0717  1.6864
  150SAPE    HB16545   3.833   4.896   6.635  1.3154 -0.3330 -1.3212
  150SAPE    C216546   3.767   5.097   6.698 -0.7094 -0.2861 -0.2462
  150SAPE    HS16547   3.749   5.193   6.644 -0.9229  1.5938  2.8992
  150SAPE   O2116548   3.877   5.120   6.791  0.8397  0.2321 -0.2703
  150SAPE   C2116549   3.894   5.237   6.847  0.4290  0.7385  0.2913
  150SAPE   O2216550   3.821   5.332   6.821  0.3568 -0.1500 -0.2003
  150SAPE   C2216551   4.008   5.236   6.955 -0.6576 -0.7049 -0.3541
  150SAPE   H2R16552   3.973   5.309   7.030 -0.0444 -1.2841  0.5134
  150SAPE   H2S16553   4.007   5.140   7.011  3.1353  0.9450  3.0521
  150SAPE    C316554   3.635   5.066   6.770  0.1271 -0.3552  0.9811
  150SAPE    HX16555   3.658   4.968   6.816  2.0376 -0.3690  0.0919
  150SAPE    HY16556   3.558   5.056   6.690  1.3198 -0.6577 -0.1587
  150SAPE   O3116557   3.604   5.166   6.870 -0.2121  0.0809 -0.2370
  150SAPE   C3116558   3.531   5.267   6.831  0.4456 -0.4753 -0.2120
  150SAPE   O3216559   3.481   5.289   6.722  0.4326 -0.1693  0.0903
  150SAPE   C3216560   3.516   5.371   6.947 -1.3416  0.3468  0.3878
  150SAPE   H2X16561   3.408   5.393   6.967 -1.0882  2.1157  0.0181
  150SAPE   H2Y16562   3.545   5.465   6.895  0.2577 -2.1622 -3.7442
  150SAPE   C2316563   4.146   5.252   6.882 -0.1485 -0.1383 -0.0757
  150SAPE   H3R16564   4.136   5.344   6.820  0.0736  0.6242  0.9915
  150SAPE   H3S16565   4.171   5.163   6.820  0.2593 -0.9863  1.2633
  150SAPE   C2416566   4.260   5.270   6.983 -0.0275 -0.1809 -0.2393
  150SAPE   H4R16567   4.250   5.368   7.035  1.4359 -1.1982  2.1335
  150SAPE   H4S16568   4.344   5.280   6.911  0.0575 -1.6971 -0.3732
  150SAPE   C2516569   4.274   5.151   7.075  0.1481 -0.5534 -0.6780
  150SAPE   H5R16570   4.334   5.069   7.033  2.7159  0.6117  0.4887
  150SAPE   C2616571   4.234   5.139   7.204 -0.2917  0.7868 -0.2338
  150SAPE   H6R16572   4.269   5.050   7.259  1.2822  0.3576 -1.8534
  150SAPE   C2716573   4.160   5.253   7.274 -0.1677 -0.6592  0.3788
  150SAPE   H7R16574   4.091   5.304   7.203 -2.0020 -1.3804  1.5473
  150SAPE   H7S16575   4.245   5.316   7.305 -0.1121 -0.9942  0.9355
  150SAPE   C2816576   4.070   5.216   7.394  0.5147  0.1501  0.0079
  150SAPE   H8R16577   3.964   5.231   7.370  0.9024  1.3482 -1.0732
  150SAPE   C2916578   4.122   5.183   7.511  0.0866  0.5123 -0.8181
  150SAPE   H9R16579   4.057   5.143   7.590  0.9939  2.7723  1.2016
  150SAPE  C21016580   4.271   5.182   7.543  0.2095  0.1805 -0.3187
  150SAPE  H10R16581   4.297   5.287   7.571  4.0881 -0.4474 -0.9689
  150SAPE  H10S16582   4.330   5.176   7.449  0.3444  1.5477 -0.3421
  150SAPE  C21116583   4.319   5.077   7.644 -0.2002  0.1792 -0.3656
  150SAPE  H11R16584   4.289   4.972   7.632 -0.6008  0.1441  0.7735
  150SAPE  C21216585   4.389   5.100   7.760 -0.4316  1.4012  0.2156
  150SAPE  H12R16586   4.431   5.016   7.816 -0.8135  0.7173 -0.4935
  150SAPE  C21316587   4.440   5.233   7.808 -0.3989 -0.2663 -0.3297
  150SAPE  H13R16588   4.360   5.277   7.871 -0.5784  2.6708 -2.4287
  150SAPE  H13S16589   4.465   5.307   7.729  0.5817 -0.0383  0.1821
  150SAPE  C21416590   4.570   5.215   7.886 -0.1147 -0.5100 -0.2203
  150SAPE  H14R16591   4.660   5.186   7.830 -0.5293  0.2765 -1.3185
  150SAPE  C21516592   4.596   5.253   8.011 -0.6715 -0.6678 -0.3975
  150SAPE  H15R16593   4.691   5.222   8.059  0.9000  1.4761 -1.9645
  150SAPE  C21616594   4.510   5.328   8.104  0.0582 -0.2737  0.1136
  150SAPE  H16R16595   4.432   5.266   8.151 -0.4389  1.2506  1.3895
  150SAPE  H16S16596   4.466   5.423   8.066  1.4379  0.4228  0.1672
  150SAPE  C21716597   4.603   5.383   8.211  0.7989 -0.1752 -0.2527
  150SAPE  H17R16598   4.695   5.426   8.166  0.5550  1.1731  0.5025
  150SAPE  H17S16599   4.626   5.289   8.266 -3.0225 -1.0512  0.1330
  150SAPE  C21816600   4.545   5.483   8.307  1.6314 -0.4781  0.4619
  150SAPE  H18R16601   4.456   5.448   8.363  0.4449  2.3448  0.5037
  150SAPE  H18S16602   4.506   5.567   8.246  0.1203 -1.5172 -0.0595
  150SAPE  C21916603   4.641   5.536   8.415  0.1077 -0.1790 -0.0366
  150SAPE  H19R16604   4.726   5.585   8.363  0.4489  0.7044  1.3067
  150SAPE  H19S16605   4.679   5.447   8.470  1.2345  1.3990  1.8824
  150SAPE  C22016606   4.568   5.636   8.502 -0.2937 -0.1237 -0.2999
  150SAPE  H20R16607   4.466   5.601   8.527 -1.7913  2.5165 -2.2203
  150SAPE  H20S16608   4.538   5.728   8.449 -1.0544  0.0570  0.4350
  150SAPE  H20T16609   4.629   5.667   8.590 -0.7807  2.5348 -0.8377
  150SAPE   C3316610   3.593   5.336   7.073 -0.2484  0.4867  0.3212
  150SAPE   H3X16611   3.682   5.273   7.052 -1.7673 -1.6720  0.1089
  150SAPE   H3Y16612   3.520   5.276   7.130 -1.0231  0.8169 -0.3041
  150SAPE   C3416613   3.630   5.457   7.155 -0.4318  0.9474  0.1213
  150SAPE   H4X16614   3.542   5.525   7.160 -1.1814 -0.0103  0.2823
  150SAPE   H4Y16615   3.716   5.510   7.109 -0.2109  2.0509  1.7430
  150SAPE   C3516616   3.667   5.415   7.301  0.8422 -0.0737 -1.4479
  150SAPE   H5X16617   3.737   5.331   7.280 -0.2206 -1.0630 -1.1617
  150SAPE   H5Y16618   3.581   5.376   7.359 -0.2210  3.4221 -0.4423
  150SAPE   C3616619   3.742   5.518   7.384 -0.7279 -0.6907 -0.1776
  150SAPE   H6X16620   3.690   5.616   7.386 -1.0940 -0.8732 -0.6223
  150SAPE   H6Y16621   3.836   5.533   7.325 -1.9846 -1.7074 -2.5700
  150SAPE   C3716622   3.777   5.466   7.525 -0.0047 -0.0699  0.6246
  150SAPE   H7X16623   3.844   5.380   7.504  1.6504  0.9723  1.4509
  150SAPE   H7Y16624   3.687   5.436   7.583 -1.0462  1.0322 -0.3659
  150SAPE   C3816625   3.860   5.568   7.598  0.6868  0.3606  0.0951
  150SAPE   H8X16626   3.854   5.539   7.705 -0.2389 -0.4712 -0.1689
  150SAPE   H8Y16627   3.814   5.669   7.589  1.1018  0.4351 -1.6244
  150SAPE   C3916628   4.007   5.572   7.559 -0.4838 -0.0739  0.5766
  150SAPE   H9X16629   4.020   5.585   7.449 -3.1821 -0.8087  0.0898
  150SAPE   H9Y16630   4.049   5.470   7.576 -2.5719 -1.0454  0.3152
  150SAPE  C31016631   4.090   5.665   7.646 -0.1355 -0.2733  0.0207
  150SAPE  H10X16632   4.039   5.763   7.647  1.0403  0.3736 -0.8472
  150SAPE  H10Y16633   4.186   5.678   7.591  0.5890 -1.2197  1.0203
  150SAPE  C31116634   4.128   5.603   7.782 -0.1695 -0.7549 -0.0431
  150SAPE  H11X16635   4.174   5.504   7.762 -1.5204 -1.2423 -0.8621
  150SAPE  H11Y16636   4.041   5.572   7.844 -2.0205 -0.5311 -2.3813
  150SAPE  C31216637   4.241   5.689   7.858  0.5063  1.2656 -0.1222
  150SAPE  H12X16638   4.201   5.791   7.876 -0.3685  1.1476 -1.2715
  150SAPE  H12Y16639   4.327   5.700   7.789 -0.0152  1.8575 -0.6993
  150SAPE  C31316640   4.284   5.635   7.993  0.3272  1.0552  0.1560
  150SAPE  H13X16641   4.369   5.695   8.031  0.1096  1.8949 -0.6621
  150SAPE  H13Y16642   4.318   5.530   7.979 -0.4495  0.5861  1.5191
  150SAPE  C31416643   4.168   5.646   8.086  0.2497 -0.3872 -0.7058
  150SAPE  H14X16644   4.084   5.578   8.061  1.3210 -1.3428 -1.8045
  150SAPE  H14Y16645   4.137   5.753   8.098  1.8239  0.0296 -0.1211
  150SAPE  C31516646   4.194   5.597   8.227  0.0453 -0.1484  0.0967
  150SAPE  H15X16647   4.281   5.655   8.266  1.4178 -2.9898  1.5797
  150SAPE  H15Y16648   4.221   5.490   8.221 -1.3427 -0.6577  2.0574
  150SAPE  C31616649   4.075   5.628   8.318  1.0379  0.1327 -0.2722
  150SAPE  H16X16650   3.977   5.586   8.285  1.5133 -1.1418 -0.1400
  150SAPE  H16Y16651   4.070   5.737   8.301 -0.9674 -0.2568 -2.6738
  150SAPE  C31716652   4.094   5.587   8.466  0.3537 -0.9282  0.0597
  150SAPE  H17X16653   4.007   5.630   8.520  0.7770  2.7129 -1.8550
  150SAPE  H17Y16654   4.184   5.632   8.512 -1.2747  0.7980  1.7465
  150SAPE  C31816655   4.093   5.438   8.501 -0.1102  0.3395 -0.5623
  150SAPE  H18X16656   4.169   5.390   8.435 -0.6517 -0.6686 -0.4782
  150SAPE  H18Y16657   3.990   5.396   8.491 -0.0791  0.6343 -2.8317
  150SAPE  H18Z16658   4.115   5.418   8.608 -1.2695 -0.6331 -0.4825
  151SAPE     N16659   0.365   1.884   6.321  0.4155  0.6537 -1.2208
  151SAPE   HN116660   0.436   1.945   6.274  1.9083  0.8156  1.0772
  151SAPE   HN216661   0.353   1.914   6.419  1.2607  1.5370 -1.3746
  151SAPE   HN316662   0.405   1.788   6.323 -1.0745  0.0322 -0.0984
  151SAPE   C1216663   0.233   1.882   6.255  0.1658  0.1067 -0.0406
  151SAPE  H12A16664   0.253   1.828   6.160  1.0401  1.0162 -0.3982
  151SAPE  H12B16665   0.215   1.987   6.224 -0.7998 -1.2366 -4.8818
  151SAPE   C1116666   0.124   1.838   6.352  0.1206 -0.0378 -1.5153
  151SAPE  H11A16667   0.153   1.743   6.402  0.4496  1.0332  0.4351
  151SAPE  H11B16668   0.031   1.804   6.302 -1.7537  0.5249  1.3689
  151SAPE     P16669  -0.011   2.046   6.439  0.4491  0.1392 -0.1316
  151SAPE   O1316670   0.060   2.166   6.482 -0.5239 -0.1859 -0.2776
  151SAPE   O1416671  -0.058   2.039   6.301  0.1846 -0.0948 -0.2726
  151SAPE   O1216672   0.096   1.932   6.459  0.1220 -0.0515  0.5662
  151SAPE   O1116673  -0.126   2.000   6.542  0.4445  0.3940 -0.3233
  151SAPE    C116674  -0.102   1.988   6.682 -0.2269 -1.0444 -0.9867
  151SAPE    HA16675   0.004   1.966   6.706 -0.5327 -0.4869  1.0658
  151SAPE    HB16676  -0.137   2.076   6.740  1.4683 -0.9957  0.0299
  151SAPE    C216677  -0.181   1.865   6.740  0.2457 -0.6857 -0.8940
  151SAPE    HS16678  -0.289   1.892   6.746  0.8696  1.8803 -0.1087
  151SAPE   O2116679  -0.128   1.832   6.872 -0.4731  0.3913 -0.3353
  151SAPE   C2116680  -0.159   1.917   6.970 -0.5064  0.1488 -0.3210
  151SAPE   O2216681  -0.234   2.011   6.949  0.7455 -0.0653  0.2641
  151SAPE   C2216682  -0.089   1.868   7.097  0.5047 -0.2048 -0.4638
  151SAPE   H2R16683  -0.115   1.761   7.107 -0.9253  0.2050  0.4741
  151SAPE   H2S16684   0.019   1.875   7.072  0.0805  0.7963 -2.1539
  151SAPE    C316685  -0.151   1.741   6.652  0.8100 -0.0927 -0.6049
  151SAPE    HX16686  -0.040   1.735   6.657  0.7042 -1.5271  3.3425
  151SAPE    HY16687  -0.209   1.765   6.560 -1.9736 -0.3651  1.0028
  151SAPE   O3116688  -0.211   1.623   6.706  0.1274  0.3063  0.6393
  151SAPE   C3116689  -0.184   1.516   6.627  0.0717 -0.8439  0.5781
  151SAPE   O3216690  -0.128   1.517   6.520  0.1603 -0.3021 -0.5469
  151SAPE   C3216691  -0.245   1.399   6.696  0.2623  0.6705  0.5365
  151SAPE   H2X16692  -0.289   1.331   6.620  0.3017 -0.2682  1.3226
  151SAPE   H2Y16693  -0.329   1.435   6.758 -2.2229 -0.5303 -1.9050
  151SAPE   C2316694  -0.127   1.945   7.227  0.9647  0.0146 -0.7594
  151SAPE   H3R16695  -0.109   2.054   7.219  2.2087  0.1994  2.9397
  151SAPE   H3S16696  -0.060   1.904   7.305 -1.4342  0.8575  1.9097
  151SAPE   C2416697  -0.271   1.921   7.282  0.5391  1.0318  0.1493
  151SAPE   H4R16698  -0.345   1.955   7.205  1.5791  2.5577 -0.2184
  151SAPE   H4S16699  -0.290   1.980   7.374 -0.7365 -1.7828  1.8258
  151SAPE   C2516700  -0.301   1.770   7.302 -0.1858  0.8080 -0.5533
  151SAPE   H5R16701  -0.321   1.709   7.213 -0.5145  0.4379 -0.2342
  151SAPE   C2616702  -0.307   1.711   7.424  0.2010 -0.1507  0.2973
  151SAPE   H6R16703  -0.331   1.604   7.431 -2.6937  0.4208  0.2589
  151SAPE   C2716704  -0.295   1.778   7.557  0.7076 -0.9530 -0.1925
  151SAPE   H7R16705  -0.374   1.856   7.563  0.7202 -1.0047  0.9117
  151SAPE   H7S16706  -0.203   1.839   7.568 -0.6679  0.9058  2.0919
  151SAPE   C2816707  -0.302   1.693   7.677  0.0910 -0.8248 -1.0390
  151SAPE   H8R16708  -0.306   1.585   7.657  1.4645 -1.3653  1.1714
  151SAPE   C2916709  -0.319   1.721   7.808 -0.6379  0.2336 -0.1786
  151SAPE   H9R16710  -0.313   1.640   7.882  1.6847  1.3279  0.9436
  151SAPE  C21016711  -0.334   1.854   7.880 -0.7464  0.1495  0.3001
  151SAPE  H10R16712  -0.439   1.846   7.917 -0.4913 -3.1679  0.6025
  151SAPE  H10S16713  -0.329   1.938   7.808  0.7184 -0.0273  0.1666
  151SAPE  C21116714  -0.251   1.882   7.997 -0.0465 -0.0020 -0.1492
  151SAPE  H11R16715  -0.210   1.790   8.041  0.3181  0.4080  0.3805
  151SAPE  C21216716  -0.201   1.996   8.046 -0.1910  0.6443  0.1742
  151SAPE  H12R16717  -0.123   1.989   8.123 -0.0185  1.1114  0.0426
  151SAPE  C21316718  -0.210   2.136   7.999 -0.2332 -0.3174 -0.0127
  151SAPE  H13R16719  -0.248   2.138   7.894  0.5150  2.9763 -0.3054
  151SAPE  H13S16720  -0.106   2.172   7.982  0.2206 -0.6936  1.7266
  151SAPE  C21416721  -0.287   2.227   8.086  0.2426  0.7195 -0.5227
  151SAPE  H14R16722  -0.395   2.219   8.071  0.0329 -2.4387  1.6149
  151SAPE  C21516723  -0.241   2.280   8.202 -0.4309 -1.0240  0.5492
  151SAPE  H15R16724  -0.293   2.347   8.272  0.0045  1.0928 -1.0741
  151SAPE  C21616725  -0.101   2.262   8.257  0.1001  0.3125  0.2249
  151SAPE  H16R16726  -0.077   2.356   8.312  2.2424  0.4818 -0.8763
  151SAPE  H16S16727  -0.029   2.238   8.175  0.2499 -2.1814  1.0201
  151SAPE  C21716728  -0.100   2.151   8.373  0.7199  0.4596 -0.1462
  151SAPE  H17R16729  -0.157   2.060   8.344  0.2050  0.7605 -0.0859
  151SAPE  H17S16730  -0.148   2.194   8.463  1.2400  0.3319  0.1963
  151SAPE  C21816731   0.043   2.122   8.420 -0.7992 -0.3288  0.0505
  151SAPE  H18R16732   0.094   2.220   8.434  0.3600 -1.1823  2.2119
  151SAPE  H18S16733   0.097   2.078   8.334  1.0232  2.0043 -0.1121
  151SAPE  C21916734   0.073   2.036   8.544  0.4033 -0.2697  0.1345
  151SAPE  H19R16735   0.049   1.930   8.522  0.3748 -0.1238 -0.5602
  151SAPE  H19S16736   0.008   2.081   8.622  1.5876  1.5915  0.1169
  151SAPE  C22016737   0.222   2.041   8.590 -0.2556  0.0688 -0.5482
  151SAPE  H20R16738   0.234   1.991   8.689 -0.0997  1.3130  0.0837
  151SAPE  H20S16739   0.289   1.993   8.516 -0.5107  0.1750 -0.8496
  151SAPE  H20T16740   0.255   2.145   8.612 -0.9719  0.8862 -2.9873
  151SAPE   C3316741  -0.136   1.341   6.792 -0.0039 -0.2713 -0.5899
  151SAPE   H3X16742  -0.038   1.327   6.741 -1.1468 -1.4986 -2.5911
  151SAPE   H3Y16743  -0.164   1.238   6.822 -0.6582 -0.0587 -0.4491
  151SAPE   C3416744  -0.118   1.432   6.916  0.3050 -0.6587  0.1778
  151SAPE   H4X16745  -0.214   1.460   6.963  2.3480  2.1863  3.1218
  151SAPE   H4Y16746  -0.075   1.528   6.880  1.7090 -1.0100  0.8540
  151SAPE   C3516747  -0.025   1.370   7.026  0.8329 -1.1336 -0.4616
  151SAPE   H5X16748   0.074   1.325   7.003  0.6471 -1.6788 -0.2311
  151SAPE   H5Y16749  -0.078   1.276   7.051 -0.0707 -0.8890 -1.4000
  151SAPE   C3616750  -0.018   1.459   7.150  0.7532 -0.2427 -0.1453
  151SAPE   H6X16751  -0.120   1.485   7.184  1.3154  0.5475  1.0334
  151SAPE   H6Y16752   0.036   1.555   7.134  1.1254 -0.5130 -0.5314
  151SAPE   C3716753   0.041   1.385   7.268  0.6931  0.2644  0.0499
  151SAPE   H7X16754   0.151   1.384   7.252  0.8173  1.2834  0.7656
  151SAPE   H7Y16755   0.009   1.279   7.270 -0.2814  0.5522  0.4987
  151SAPE   C3816756   0.003   1.468   7.399 -0.1645 -0.3900  0.2033
  151SAPE   H8X16757  -0.108   1.470   7.404 -0.2847 -1.2484 -1.5285
  151SAPE   H8Y16758   0.036   1.573   7.386  0.0608 -0.3581  0.9897
  151SAPE   C3916759   0.069   1.407   7.523  0.4067 -0.2036 -0.3486
  151SAPE   H9X16760   0.179   1.416   7.535  0.6673 -1.0656 -1.7953
  151SAPE   H9Y16761   0.025   1.304   7.517 -3.7506  1.3988 -1.4536
  151SAPE  C31016762   0.009   1.471   7.648 -0.0909  0.2838  0.1047
  151SAPE  H10X16763  -0.101   1.481   7.635  0.1514  1.3012 -1.4354
  151SAPE  H10Y16764   0.045   1.576   7.653  0.8116 -0.0683  1.5460
  151SAPE  C31116765   0.056   1.402   7.777  0.1170  0.1556 -0.0450
  151SAPE  H11X16766   0.166   1.390   7.789 -0.0914 -1.6907  0.3685
  151SAPE  H11Y16767   0.020   1.297   7.773 -0.3699  0.3519 -0.8095
  151SAPE  C31216768  -0.005   1.465   7.901  0.1197 -0.5508 -0.1951
  151SAPE  H12X16769  -0.110   1.492   7.876  0.5847  0.8603 -0.7330
  151SAPE  H12Y16770   0.054   1.556   7.928  0.4362 -1.2391  1.5873
  151SAPE  C31316771  -0.009   1.366   8.011  0.1008  0.5198 -0.4451
  151SAPE  H13X16772   0.090   1.318   8.006  0.1156  0.7121 -3.4740
  151SAPE  H13Y16773  -0.085   1.285   8.000  2.1308 -1.8196  1.4811
  151SAPE  C31416774  -0.031   1.428   8.158  0.3797 -0.0616  0.6171
  151SAPE  H14X16775  -0.052   1.342   8.225 -0.2386 -0.0946  0.3896
  151SAPE  H14Y16776  -0.128   1.481   8.144  1.1761  1.3909  0.4214
  151SAPE  C31516777   0.080   1.520   8.202  0.1329 -0.4490  0.3917
  151SAPE  H15X16778   0.101   1.601   8.130  1.7418  0.3791  1.7318
  151SAPE  H15Y16779   0.176   1.466   8.214  1.0223  0.8774 -0.4785
  151SAPE  C31616780   0.043   1.579   8.342 -0.3641  0.4625  0.0584
  151SAPE  H16X16781   0.032   1.488   8.404 -1.7778 -0.1370 -1.0265
  151SAPE  H16Y16782  -0.049   1.639   8.328  0.0481  1.0982  0.0238
  151SAPE  C31716783   0.150   1.668   8.400 -0.0435 -0.5646 -0.7794
  151SAPE  H17X16784   0.242   1.606   8.403  0.0772 -0.4690 -2.1562
  151SAPE  H17Y16785   0.134   1.700   8.506 -0.2071  1.2623 -1.3261
  151SAPE  C31816786   0.188   1.783   8.316  0.2530 -0.3848  0.8139
  151SAPE  H18X16787   0.279   1.833   8.356  0.7872 -0.2248 -0.5432
  151SAPE  H18Y16788   0.096   1.844   8.301  0.9823  0.6644  0.4961
  151SAPE  H18Z16789   0.213   1.758   8.211  3.7467  0.7112  1.2581
  152SAPE     N16790   0.979   4.767   6.222  0.6446  0.2167  0.4590
  152SAPE   HN116791   1.002   4.753   6.323 -1.1822  1.3471  1.0846
  152SAPE   HN216792   0.894   4.708   6.207  1.4177 -0.6070 -0.8556
  152SAPE   HN316793   1.063   4.730   6.174  0.0862  0.0179 -0.3958
  152SAPE   C1216794   0.951   4.909   6.188 -0.2132  1.1429  0.3220
  152SAPE  H12A16795   0.858   4.947   6.235 -0.2647  2.1169 -0.5320
  152SAPE  H12B16796   0.958   4.919   6.077 -0.1269  3.0283  0.4789
  152SAPE   C1116797   1.066   4.988   6.253 -0.4609  0.5606  0.3330
  152SAPE  H11A16798   1.061   4.996   6.363 -0.0520  2.4901  0.2358
  152SAPE  H11B16799   1.056   5.092   6.215 -0.5353  0.0582 -1.1101
  152SAPE     P16800   1.323   5.019   6.198  0.0542  0.1715  0.1840
  152SAPE   O1316801   1.440   4.936   6.158 -0.3894 -0.6640 -0.3099
  152SAPE   O1416802   1.291   5.125   6.099 -0.4382  0.1183 -0.1218
  152SAPE   O1216803   1.194   4.932   6.215  0.5587 -0.4198  0.8965
  152SAPE   O1116804   1.356   5.086   6.339  0.2567  0.1267  1.1022
  152SAPE    C116805   1.379   5.003   6.451 -0.0257  0.7880  0.2826
  152SAPE    HA16806   1.295   4.999   6.524  0.1850 -0.6128  0.4692
  152SAPE    HB16807   1.394   4.896   6.427 -1.2793  0.1210  2.2493
  152SAPE    C216808   1.499   5.050   6.527 -0.5469  0.4902  0.1433
  152SAPE    HS16809   1.524   4.961   6.589 -0.9100 -0.2297 -0.7158
  152SAPE   O2116810   1.474   5.163   6.608  0.8425 -0.4231  0.5848
  152SAPE   C2116811   1.389   5.150   6.711 -0.8233 -0.3660  0.6534
  152SAPE   O2216812   1.351   5.045   6.758 -0.7021  0.1728 -0.3439
  152SAPE   C2216813   1.334   5.285   6.753  0.6410  0.1437 -0.2749
  152SAPE   H2R16814   1.298   5.348   6.669 -1.0609 -1.8477 -1.0984
  152SAPE   H2S16815   1.240   5.267   6.809 -0.9823  1.3566 -2.4452
  152SAPE    C316816   1.625   5.075   6.441  0.1924  0.1238  0.6289
  152SAPE    HX16817   1.599   5.159   6.373  2.7334  0.0732 -0.5316
  152SAPE    HY16818   1.642   4.994   6.368 -1.8395  0.0583  0.1782
  152SAPE   O3116819   1.739   5.112   6.529  0.5460  0.4272  0.5855
  152SAPE   C3116820   1.752   5.244   6.540 -0.1156  0.0955 -0.7517
  152SAPE   O3216821   1.672   5.324   6.494 -0.0989  0.2023 -0.4941
  152SAPE   C3216822   1.883   5.281   6.621 -0.3425  0.4158  0.5206
  152SAPE   H2X16823   1.887   5.392   6.614 -0.5232  0.3282 -1.2289
  152SAPE   H2Y16824   1.976   5.242   6.575 -0.2727  0.4478  0.6325
  152SAPE   C2316825   1.439   5.368   6.831  0.3295 -0.2840 -0.2324
  152SAPE   H3R16826   1.383   5.456   6.866  0.1734 -1.1355  1.8169
  152SAPE   H3S16827   1.511   5.399   6.752  0.3068 -1.8613 -0.9115
  152SAPE   C2416828   1.508   5.312   6.956 -0.2824  0.2285  0.0474
  152SAPE   H4R16829   1.572   5.393   6.997  1.4550 -0.8853 -0.3616
  152SAPE   H4S16830   1.576   5.225   6.943 -1.5541 -0.7385 -0.4177
  152SAPE   C2516831   1.403   5.270   7.053 -0.2625 -0.5641  0.3520
  152SAPE   H5R16832   1.319   5.208   7.017 -0.9567 -1.0138  2.5921
  152SAPE   C2616833   1.413   5.289   7.183  0.1736 -0.0148 -0.3107
  152SAPE   H6R16834   1.325   5.285   7.249  1.1656 -0.5221  1.0225
  152SAPE   C2716835   1.524   5.369   7.259  0.6297 -0.1233  0.5475
  152SAPE   H7R16836   1.497   5.385   7.365 -0.6581  0.8818  0.0951
  152SAPE   H7S16837   1.540   5.469   7.213  1.1075 -0.1071  0.7424
  152SAPE   C2816838   1.659   5.309   7.250  0.0685  0.6321 -0.6407
  152SAPE   H8R16839   1.702   5.295   7.150  1.7363  2.0012 -0.1683
  152SAPE   C2916840   1.727   5.250   7.351  0.2231 -0.0823  0.1274
  152SAPE   H9R16841   1.831   5.220   7.330  0.3243  0.2553  0.1373
  152SAPE  C21016842   1.675   5.238   7.495 -0.0502 -0.2814 -0.0334
  152SAPE  H10R16843   1.578   5.186   7.482  0.7357 -1.1360 -3.7022
  152SAPE  H10S16844   1.656   5.339   7.536  0.1155 -0.1835 -0.1928
  152SAPE  C21116845   1.774   5.162   7.578 -0.0308  0.2056 -0.2024
  152SAPE  H11R16846   1.828   5.084   7.523 -2.5225 -1.4489 -0.4840
  152SAPE  C21216847   1.796   5.181   7.712  0.0134 -0.3399  0.0534
  152SAPE  H12R16848   1.872   5.115   7.757 -0.7726 -2.3079 -1.3675
  152SAPE  C21316849   1.721   5.273   7.815 -0.0742  0.0150  0.0533
  152SAPE  H13R16850   1.648   5.227   7.886 -1.1466 -0.0564 -1.0659
  152SAPE  H13S16851   1.661   5.349   7.762  0.2833  0.8521  0.8212
  152SAPE  C21416852   1.823   5.345   7.901  0.3087 -0.3527 -0.5063
  152SAPE  H14R16853   1.906   5.281   7.935 -0.0092  0.0676  1.0992
  152SAPE  C21516854   1.822   5.475   7.949 -0.5021  0.2997 -0.1840
  152SAPE  H15R16855   1.915   5.508   7.999 -0.3266 -1.7405  0.9074
  152SAPE  C21616856   1.717   5.589   7.929  0.3413  0.2816 -0.1362
  152SAPE  H16R16857   1.637   5.555   7.861 -0.6443 -2.2944  2.1309
  152SAPE  H16S16858   1.760   5.672   7.869  1.2387  0.8455  1.2424
  152SAPE  C21716859   1.649   5.643   8.059  0.2123 -0.3843  0.2504
  152SAPE  H17R16860   1.585   5.729   8.031  0.8093  0.8564  2.4844
  152SAPE  H17S16861   1.719   5.677   8.138 -1.9764  0.1200  2.0939
  152SAPE  C21816862   1.535   5.552   8.116 -0.4840  0.2151  0.2864
  152SAPE  H18R16863   1.578   5.458   8.157 -1.5019 -0.0017  0.8933
  152SAPE  H18S16864   1.473   5.521   8.029 -0.1661 -0.4947  0.3013
  152SAPE  C21916865   1.451   5.625   8.224 -0.1347  0.0695 -0.1615
  152SAPE  H19R16866   1.388   5.701   8.172  1.2884  2.0397  0.8863
  152SAPE  H19S16867   1.515   5.693   8.283  0.5480  0.8475 -1.7297
  152SAPE  C22016868   1.371   5.527   8.316  0.5176  0.2310  0.0637
  152SAPE  H20R16869   1.441   5.466   8.377 -0.4155 -0.6180  0.2961
  152SAPE  H20S16870   1.310   5.461   8.251  0.2837  0.8539 -0.3629
  152SAPE  H20T16871   1.305   5.580   8.387  0.4915  1.1123 -0.6050
  152SAPE   C3316872   1.877   5.245   6.772  0.0392  0.4816 -0.0153
  152SAPE   H3X16873   1.776   5.256   6.816 -0.3028 -1.3269 -0.2687
  152SAPE   H3Y16874   1.939   5.304   6.843 -1.0778  0.0638  1.3522
  152SAPE   C3416875   1.927   5.102   6.796 -0.0361  0.6907 -0.2191
  152SAPE   H4X16876   2.026   5.086   6.750 -0.5761 -2.3690 -0.5294
  152SAPE   H4Y16877   1.868   5.038   6.727  1.5522  0.7132 -1.6591
  152SAPE   C3516878   1.925   5.052   6.941 -0.6367 -0.2174 -0.9032
  152SAPE   H5X16879   1.935   4.942   6.935  0.9204 -0.1461 -0.0766
  152SAPE   H5Y16880   1.826   5.076   6.986 -0.8793 -0.3075 -1.3840
  152SAPE   C3616881   2.028   5.117   7.035 -0.0695  0.0740  0.2456
  152SAPE   H6X16882   2.001   5.224   7.049 -1.0075 -0.1895  0.5076
  152SAPE   H6Y16883   2.127   5.104   6.986  0.5481 -0.1156  1.5051
  152SAPE   C3716884   2.048   5.036   7.162 -0.1109  0.6535  0.1808
  152SAPE   H7X16885   2.063   4.929   7.134 -0.9736  0.9327 -1.5201
  152SAPE   H7Y16886   1.963   5.045   7.232 -0.2956 -1.8185  0.3641
  152SAPE   C3816887   2.162   5.104   7.236 -0.0187  0.0675 -0.3068
  152SAPE   H8X16888   2.161   5.215   7.227  0.4529  0.3822  2.5612
  152SAPE   H8Y16889   2.259   5.071   7.194  0.6176  1.3896  0.0663
  152SAPE   C3916890   2.171   5.068   7.386  0.2030  0.2439 -0.3291
  152SAPE   H9X16891   2.077   5.099   7.436  1.4649  2.7078  0.6905
  152SAPE   H9Y16892   2.245   5.140   7.427  0.5635 -0.8071  0.9295
  152SAPE  C31016893   2.219   4.931   7.423 -0.5865 -0.7039 -0.8200
  152SAPE  H10X16894   2.299   4.894   7.355  2.3469 -0.6856  2.3898
  152SAPE  H10Y16895   2.130   4.865   7.420  0.3877 -2.0591 -0.4774
  152SAPE  C31116896   2.275   4.931   7.570  0.8304 -1.0357  0.1918
  152SAPE  H11X16897   2.366   4.994   7.573 -0.9789  1.8729 -1.2908
  152SAPE  H11Y16898   2.305   4.829   7.603  0.0638 -1.1304  0.6470
  152SAPE  C31216899   2.172   4.999   7.670 -0.2014  0.1630 -0.6820
  152SAPE  H12X16900   2.083   4.933   7.675 -0.9839  1.2358 -0.0498
  152SAPE  H12Y16901   2.148   5.100   7.630  0.8705  0.2728 -1.0663
  152SAPE  C31316902   2.221   5.008   7.813 -0.3049 -0.0674 -0.2848
  152SAPE  H13X16903   2.147   5.067   7.872 -1.3465 -1.5407 -0.0863
  152SAPE  H13Y16904   2.315   5.068   7.815  0.3015 -0.8588 -2.2926
  152SAPE  C31416905   2.243   4.870   7.875 -0.8787  0.7616 -0.1365
  152SAPE  H14X16906   2.325   4.823   7.818 -0.3832  0.5090  0.7571
  152SAPE  H14Y16907   2.152   4.807   7.870 -0.7256  0.3877  1.3430
  152SAPE  C31516908   2.286   4.902   8.018  0.1163  0.0892 -0.2095
  152SAPE  H15X16909   2.204   4.958   8.068  0.3230  0.4714 -0.2927
  152SAPE  H15Y16910   2.380   4.959   7.999  0.4990  0.4146  2.3501
  152SAPE  C31616911   2.333   4.775   8.088  0.3323  0.2061 -0.1902
  152SAPE  H16X16912   2.425   4.737   8.039 -0.2225  0.3646 -1.3904
  152SAPE  H16Y16913   2.242   4.712   8.077  0.6393 -0.0937 -1.1071
  152SAPE  C31716914   2.358   4.793   8.231  0.1238  0.8735 -0.4453
  152SAPE  H17X16915   2.274   4.851   8.274 -0.0163  0.6024 -0.3499
  152SAPE  H17Y16916   2.440   4.867   8.245 -1.0193  1.9898  0.5486
  152SAPE  C31816917   2.383   4.664   8.313 -0.0850 -1.2762 -0.0118
  152SAPE  H18X16918   2.472   4.605   8.281  0.8196 -0.5039  0.9982
  152SAPE  H18Y16919   2.309   4.582   8.307 -0.7946 -0.6173 -0.5109
  152SAPE  H18Z16920   2.403   4.678   8.421 -1.1021  1.4510 -0.1147
  153SAPE     N16921   0.812   6.761   6.269 -0.2292  0.2319  0.3887
  153SAPE   HN116922   0.802   6.665   6.231 -0.4605  0.5065 -0.2675
  153SAPE   HN216923   0.870   6.745   6.353  0.7649 -1.5600 -0.5694
  153SAPE   HN316924   0.720   6.807   6.284  0.0655  1.8002 -1.9615
  153SAPE   C1216925   0.882   6.858   6.180 -0.5270 -0.3784 -0.5548
  153SAPE  H12A16926   0.812   6.908   6.110 -0.6150  0.2739 -0.0178
  153SAPE  H12B16927   0.958   6.799   6.125  0.6315 -1.3280  1.9171
  153SAPE   C1116928   0.954   6.962   6.272  0.6852  0.1196  0.5036
  153SAPE  H11A16929   0.872   7.033   6.293 -1.3621 -1.4164 -1.7105
  153SAPE  H11B16930   1.031   7.022   6.220  0.2448  2.2024  2.1468
  153SAPE     P16931   1.158   6.868   6.402  0.3960 -0.0870 -0.1428
  153SAPE   O1316932   1.179   6.756   6.307 -1.1580 -0.3168  0.7015
  153SAPE   O1416933   1.231   6.993   6.386 -0.3425 -0.4626  0.8067
  153SAPE   O1216934   1.006   6.907   6.390 -0.7734 -0.0052 -0.2852
  153SAPE   O1116935   1.166   6.820   6.550 -0.4828 -0.5269  0.0988
  153SAPE    C116936   1.284   6.756   6.603  0.3629  0.2892  0.0798
  153SAPE    HA16937   1.378   6.795   6.560  1.1166 -2.1843 -0.7020
  153SAPE    HB16938   1.281   6.767   6.714  1.4008  1.9081 -0.0287
  153SAPE    C216939   1.286   6.606   6.566 -0.1338  0.1562  0.0159
  153SAPE    HS16940   1.244   6.596   6.464  2.2228 -1.1871 -0.8929
  153SAPE   O2116941   1.211   6.534   6.667 -0.1339 -0.4365 -0.3521
  153SAPE   C2116942   1.147   6.426   6.620  0.4138 -0.5630  0.3009
  153SAPE   O2216943   1.155   6.377   6.512  0.0652  0.5949 -0.4980
  153SAPE   C2216944   1.047   6.375   6.725  0.8971  0.8502 -0.1215
  153SAPE   H2R16945   1.082   6.399   6.828 -0.3905 -0.4171  0.6322
  153SAPE   H2S16946   0.952   6.432   6.717  0.0980 -0.5239 -0.6943
  153SAPE    C316947   1.434   6.549   6.549  0.3202 -0.2537  0.8317
  153SAPE    HX16948   1.470   6.598   6.456 -1.8577  0.2205  0.1922
  153SAPE    HY16949   1.443   6.439   6.535  0.5980 -0.2739  1.1536
  153SAPE   O3116950   1.505   6.587   6.664 -0.0012  0.0325  0.3585
  153SAPE   C3116951   1.628   6.628   6.648  0.0010  0.1637  0.3477
  153SAPE   O3216952   1.685   6.642   6.539 -0.1462 -0.2665 -0.6492
  153SAPE   C3216953   1.669   6.686   6.778 -0.2196 -0.4756  0.2140
  153SAPE   H2X16954   1.589   6.683   6.855 -0.6648 -0.4303 -0.2426
  153SAPE   H2Y16955   1.694   6.794   6.766  0.4930 -0.8142 -1.8312
  153SAPE   C2316956   1.026   6.217   6.715  0.1424  0.1973 -0.0603
  153SAPE   H3R16957   1.112   6.151   6.693 -1.9082 -2.2258 -1.2847
  153SAPE   H3S16958   0.967   6.207   6.621 -2.0675  1.7187  1.0680
  153SAPE   C2416959   0.955   6.159   6.839 -0.2220  0.1938 -0.3697
  153SAPE   H4R16960   0.970   6.220   6.931 -0.6859  2.0156 -1.4410
  153SAPE   H4S16961   0.995   6.057   6.852 -2.4341 -0.9545 -1.8581
  153SAPE   C2516962   0.807   6.155   6.811  0.2207  0.4199  0.0126
  153SAPE   H5R16963   0.786   6.116   6.710  0.7271 -1.4790  0.6004
  153SAPE   C2616964   0.709   6.188   6.890  0.3236  0.8798 -0.2528
  153SAPE   H6R16965   0.606   6.178   6.855  0.6280 -0.4585 -0.8386
  153SAPE   C2716966   0.723   6.252   7.028  0.2552 -0.0796  0.5061
  153SAPE   H7R16967   0.625   6.298   7.053  1.3424  1.6331  1.9358
  153SAPE   H7S16968   0.809   6.322   7.022 -0.7047  1.2917  2.0478
  153SAPE   C2816969   0.749   6.147   7.136 -0.0579 -0.4049 -0.2897
  153SAPE   H8R16970   0.822   6.066   7.121 -1.4073 -1.5757 -0.7210
  153SAPE   C2916971   0.681   6.137   7.254  0.2480  0.6219 -0.0804
  153SAPE   H9R16972   0.714   6.066   7.330 -1.0425  0.4239  0.3282
  153SAPE  C21016973   0.565   6.222   7.291 -0.0626 -0.2963  0.2682
  153SAPE  H10R16974   0.496   6.233   7.204  1.6548 -0.7906 -1.2032
  153SAPE  H10S16975   0.589   6.330   7.305 -1.3886  0.1525 -0.5888
  153SAPE  C21116976   0.484   6.180   7.409  0.6548 -0.2862  0.1237
  153SAPE  H11R16977   0.383   6.150   7.378  0.4452  0.9717 -0.4899
  153SAPE  C21216978   0.528   6.161   7.532  0.0466 -0.0880  0.1820
  153SAPE  H12R16979   0.455   6.127   7.608 -1.5230  1.5545 -0.5131
  153SAPE  C21316980   0.670   6.181   7.581  0.5037 -0.3220  0.0140
  153SAPE  H13R16981   0.674   6.280   7.631  0.7244 -0.1659 -0.3090
  153SAPE  H13S16982   0.737   6.188   7.493 -1.1770 -1.0708 -1.3869
  153SAPE  C21416983   0.727   6.080   7.680  0.0996 -0.2437  0.0286
  153SAPE  H14R16984   0.665   5.989   7.693 -1.9469  0.9879 -0.5960
  153SAPE  C21516985   0.838   6.087   7.753  0.6430 -0.2945 -0.7109
  153SAPE  H15R16986   0.875   6.001   7.811  1.3559 -1.1980 -2.4353
  153SAPE  C21616987   0.931   6.210   7.738 -0.1758 -0.2009  0.4997
  153SAPE  H16R16988   0.965   6.228   7.842 -1.3664 -0.7001  0.9888
  153SAPE  H16S16989   0.884   6.302   7.698 -0.6478 -1.6438 -2.6436
  153SAPE  C21716990   1.056   6.175   7.649  0.3465  0.2456 -0.3529
  153SAPE  H17R16991   1.019   6.135   7.553  1.3838 -0.4853 -0.4662
  153SAPE  H17S16992   1.122   6.094   7.688  2.6801  2.2562  0.1419
  153SAPE  C21816993   1.145   6.296   7.623  0.6570 -0.2444  0.0042
  153SAPE  H18R16994   1.230   6.300   7.695  0.1847  1.1643  0.5269
  153SAPE  H18S16995   1.082   6.388   7.630  1.1750  0.1468 -0.3883
  153SAPE  C21916996   1.215   6.295   7.488 -0.0719  0.3062 -0.0858
  153SAPE  H19R16997   1.271   6.199   7.485  1.3169  1.0914  0.1793
  153SAPE  H19S16998   1.293   6.372   7.474 -0.7776  1.1261  0.3552
  153SAPE  C22016999   1.116   6.307   7.370 -0.5330 -0.4813  0.0647
  153SAPE  H20R17000   1.143   6.400   7.315 -0.7020  0.5246  1.6297
  153SAPE  H20S17001   1.008   6.310   7.395 -0.3259  1.9717  0.9320
  153SAPE  H20T17002   1.145   6.227   7.299 -2.1038 -1.1712  0.1728
  153SAPE   C3317003   1.793   6.620   6.832  0.3414  0.2773  0.2892
  153SAPE   H3X17004   1.872   6.591   6.759  0.5066 -1.9900  1.2957
  153SAPE   H3Y17005   1.777   6.524   6.884  2.5426 -0.0838  0.4005
  153SAPE   C3417006   1.860   6.707   6.936 -0.2420  0.7390 -0.1761
  153SAPE   H4X17007   1.902   6.797   6.886 -1.4253  0.8885 -0.9502
  153SAPE   H4Y17008   1.946   6.648   6.973  0.2758  1.3192 -0.4363
  153SAPE   C3517009   1.773   6.745   7.055  0.5449  0.2741  0.3975
  153SAPE   H5X17010   1.755   6.647   7.103  1.6291 -1.2953 -2.2256
  153SAPE   H5Y17011   1.683   6.802   7.024  0.6699  0.7425  0.8889
  153SAPE   C3617012   1.839   6.827   7.161  0.1665 -0.4458 -0.3955
  153SAPE   H6X17013   1.906   6.898   7.109 -0.2754 -0.4561 -0.9938
  153SAPE   H6Y17014   1.898   6.759   7.226  1.2951  0.2476 -0.6783
  153SAPE   C3717015   1.740   6.906   7.260 -0.4153 -0.3395 -0.0398
  153SAPE   H7X17016   1.676   6.825   7.301  0.1853 -0.3412  0.9165
  153SAPE   H7Y17017   1.680   6.984   7.208  2.8762  0.9557 -2.2475
  153SAPE   C3817018   1.805   6.981   7.369  0.0078  0.2475 -0.2472
  153SAPE   H8X17019   1.844   7.080   7.336  0.5645  0.2810  0.4834
  153SAPE   H8Y17020   1.887   6.913   7.402  1.6709  2.1679 -0.2388
  153SAPE   C3917021   1.711   6.994   7.495 -0.1465  0.2206  0.2761
  153SAPE   H9X17022   1.679   6.890   7.517  2.3011 -0.5797  0.3698
  153SAPE   H9Y17023   1.618   7.051   7.472  1.2632  1.6850 -2.3142
  153SAPE  C31017024   1.777   7.055   7.616  0.3643  0.4067 -0.0107
  153SAPE  H10X17025   1.773   7.165   7.603 -0.7050  0.4296  0.3910
  153SAPE  H10Y17026   1.885   7.029   7.620  0.5048  1.0532  0.6840
  153SAPE  C31117027   1.702   7.014   7.747  0.0373 -0.3130  0.1979
  153SAPE  H11X17028   1.603   7.063   7.738 -0.2136 -0.6264  1.1156
  153SAPE  H11Y17029   1.761   7.046   7.836  0.9485 -0.4905 -0.3285
  153SAPE  C31217030   1.678   6.862   7.760 -0.4409  0.0028  0.2242
  153SAPE  H12X17031   1.772   6.810   7.733 -0.4980  0.3714 -0.7011
  153SAPE  H12Y17032   1.593   6.829   7.697 -1.2718  2.9212 -0.3277
  153SAPE  C31317033   1.643   6.812   7.897  0.0742  0.0417  0.3060
  153SAPE  H13X17034   1.742   6.797   7.945 -1.2292 -1.2485  2.7556
  153SAPE  H13Y17035   1.594   6.712   7.890 -1.4762  0.7955  0.0591
  153SAPE  C31417036   1.549   6.903   7.972 -0.1764 -0.5411 -0.0936
  153SAPE  H14X17037   1.468   6.918   7.897  0.5020 -4.3256 -1.8528
  153SAPE  H14Y17038   1.592   7.003   7.994  1.7919 -1.4933  0.6569
  153SAPE  C31517039   1.496   6.847   8.105  0.3265  0.1674 -0.7713
  153SAPE  H15X17040   1.571   6.790   8.163  0.5599  0.5542 -0.6946
  153SAPE  H15Y17041   1.417   6.774   8.077 -0.1813  1.6193 -3.4110
  153SAPE  C31617042   1.432   6.953   8.195  0.3393  0.0728  0.4190
  153SAPE  H16X17043   1.356   7.013   8.139  0.7576  0.6566  0.4636
  153SAPE  H16Y17044   1.510   7.017   8.240  1.7892 -1.9408  0.8948
  153SAPE  C31717045   1.364   6.887   8.322 -0.2900  0.4332 -0.5437
  153SAPE  H17X17046   1.325   6.968   8.387 -0.9195 -0.1005 -0.2419
  153SAPE  H17Y17047   1.442   6.832   8.378 -0.5413  1.5020  0.9249
  153SAPE  C31817048   1.256   6.790   8.280  0.2484  0.6873 -0.4996
  153SAPE  H18X17049   1.288   6.699   8.224  1.6634  0.9520 -0.1464
  153SAPE  H18Y17050   1.191   6.841   8.205 -1.9330  2.1428  2.1852
  153SAPE  H18Z17051   1.204   6.746   8.368 -0.9862 -0.0738 -1.5596
  154SAPE     N17052   4.079   0.392   6.189 -0.5412  0.1674  0.0612
  154SAPE   HN117053   4.076   0.496   6.194  3.3221  0.5533 -1.7389
  154SAPE   HN217054   3.990   0.347   6.216 -0.6893  0.0899 -0.5574
  154SAPE   HN317055   4.145   0.357   6.262 -0.8383 -0.9530 -0.1940
  154SAPE   C1217056   4.128   0.350   6.054 -0.2720  0.1064 -0.2330
  154SAPE  H12A17057   4.212   0.419   6.033 -0.7765  1.0652  0.8162
  154SAPE  H12B17058   4.052   0.372   5.976 -1.6487  0.3195  1.1164
  154SAPE   C1117059   4.165   0.197   6.046  0.2412 -0.4507  0.3684
  154SAPE  H11A17060   4.192   0.166   5.942 -0.0233 -1.6249  0.6316
  154SAPE  H11B17061   4.067   0.149   6.067 -2.1595  3.6413 -0.3299
  154SAPE     P17062   4.326   0.021   6.164  0.0281  0.0639  0.1379
  154SAPE   O1317063   4.279  -0.073   6.064  0.2085 -0.0526  0.1336
  154SAPE   O1417064   4.474   0.030   6.172  0.5581 -0.2380 -0.4591
  154SAPE   O1217065   4.268   0.163   6.141  0.3435  0.0526  0.1799
  154SAPE   O1117066   4.264  -0.010   6.304 -0.2730  0.3360 -0.3631
  154SAPE    C117067   4.124  -0.049   6.323 -0.6698 -0.2796  0.3919
  154SAPE    HA17068   4.066   0.043   6.346  1.0054  1.0983 -0.6830
  154SAPE    HB17069   4.076  -0.092   6.233  2.1616 -1.7052 -0.5592
  154SAPE    C217070   4.110  -0.142   6.446 -0.6013  0.0640 -0.2279
  154SAPE    HS17071   4.164  -0.097   6.532  0.7256  0.6311 -1.3107
  154SAPE   O2117072   4.171  -0.267   6.414 -0.3090  0.0818 -0.1566
  154SAPE   C2117073   4.291  -0.282   6.422  0.0037  0.5831  0.1746
  154SAPE   O2217074   4.379  -0.200   6.453  0.5535 -0.3968 -0.3006
  154SAPE   C2217075   4.328  -0.426   6.392  0.6986 -0.6136  0.5046
  154SAPE   H2R17076   4.266  -0.484   6.463  0.9438 -1.6235 -0.0748
  154SAPE   H2S17077   4.305  -0.453   6.287  1.7807  0.7544 -0.1106
  154SAPE    C317078   3.964  -0.166   6.497 -0.4138 -0.7418 -0.4411
  154SAPE    HX17079   3.918  -0.240   6.429 -0.8397 -0.5145 -0.4030
  154SAPE    HY17080   3.897  -0.078   6.492  1.0696  0.3830 -1.0922
  154SAPE   O3117081   3.974  -0.221   6.634 -0.4075 -0.0749  0.7585
  154SAPE   C3117082   3.971  -0.125   6.725 -0.1714 -0.1619  0.0234
  154SAPE   O3217083   3.978  -0.004   6.707  0.0362 -0.6332 -0.1124
  154SAPE   C3217084   3.922  -0.189   6.852 -0.1473  0.0488  0.5658
  154SAPE   H2X17085   3.914  -0.300   6.851 -0.9052  0.0405  2.6453
  154SAPE   H2Y17086   3.819  -0.151   6.864  0.0583  1.1423 -0.8192
  154SAPE   C2317087   4.476  -0.452   6.421 -0.4026 -0.1782  0.6363
  154SAPE   H3R17088   4.509  -0.383   6.501 -0.4194  2.0799 -1.1869
  154SAPE   H3S17089   4.545  -0.430   6.336  0.1815 -0.2964  1.0739
  154SAPE   C2417090   4.504  -0.603   6.445 -0.6695  0.4084  0.3145
  154SAPE   H4R17091   4.442  -0.662   6.374  0.2806  0.4633 -0.5699
  154SAPE   H4S17092   4.468  -0.630   6.547 -0.0234  1.6169  0.8750
  154SAPE   C2517093   4.647  -0.645   6.420 -0.0096  0.2069 -0.4211
  154SAPE   H5R17094   4.680  -0.646   6.315  2.6514  3.4723  0.2042
  154SAPE   C2617095   4.735  -0.685   6.508 -0.3805  0.1165 -0.1179
  154SAPE   H6R17096   4.841  -0.698   6.480  0.1600  1.5122  1.1436
  154SAPE   C2717097   4.706  -0.696   6.659  0.2204 -0.5365 -0.0948
  154SAPE   H7R17098   4.599  -0.724   6.662 -0.1085  0.7185  0.4769
  154SAPE   H7S17099   4.708  -0.593   6.699  2.8234  0.3081 -2.1139
  154SAPE   C2817100   4.791  -0.777   6.750 -0.1724 -0.2077  0.1242
  154SAPE   H8R17101   4.895  -0.788   6.714  0.1017  3.8525 -0.8193
  154SAPE   C2917102   4.755  -0.848   6.859  0.1589  0.7571 -0.0091
  154SAPE   H9R17103   4.835  -0.912   6.900  1.3160  1.2683 -1.3832
  154SAPE  C21017104   4.626  -0.856   6.921 -0.1632  0.6916  1.1662
  154SAPE  H10R17105   4.591  -0.959   6.946  1.1600 -0.4114 -1.2187
  154SAPE  H10S17106   4.551  -0.823   6.847 -1.7303  0.2295  2.4978
  154SAPE  C21117107   4.614  -0.761   7.034 -0.3859 -0.4030 -0.2198
  154SAPE  H11R17108   4.652  -0.662   7.004  1.0223  0.0571  2.7552
  154SAPE  C21217109   4.574  -0.789   7.163 -0.0019 -0.5868  0.2454
  154SAPE  H12R17110   4.560  -0.703   7.231  0.1844 -0.7375  0.4774
  154SAPE  C21317111   4.528  -0.931   7.202 -0.2301  0.4203  0.1575
  154SAPE  H13R17112   4.620  -0.993   7.202  0.2425  1.1056  0.2862
  154SAPE  H13S17113   4.460  -0.977   7.128  0.8105  0.6887 -1.0008
  154SAPE  C21417114   4.468  -0.946   7.342 -0.1243 -0.3102 -0.4827
  154SAPE  H14R17115   4.461  -0.857   7.405  3.9802 -1.6967  2.3729
  154SAPE  C21517116   4.425  -1.064   7.383 -0.0039 -0.2473  0.3108
  154SAPE  H15R17117   4.367  -1.054   7.476 -0.0935 -0.7968  0.3132
  154SAPE  C21617118   4.447  -1.201   7.317  0.2546  0.1230  0.6121
  154SAPE  H16R17119   4.465  -1.190   7.208 -2.5558  1.0204  0.1717
  154SAPE  H16S17120   4.347  -1.248   7.318 -0.1093  0.8401 -0.5491
  154SAPE  C21717121   4.535  -1.309   7.386 -0.1516  0.2804 -0.6080
  154SAPE  H17R17122   4.644  -1.302   7.364  0.0754 -0.8620  0.0775
  154SAPE  H17S17123   4.509  -1.408   7.343  0.5131 -0.0462 -0.2733
  154SAPE  C21817124   4.549  -1.320   7.540 -0.5514  0.6803 -0.1991
  154SAPE  H18R17125   4.572  -1.423   7.574 -1.3913  0.9699  1.3583
  154SAPE  H18S17126   4.447  -1.315   7.584 -0.2631 -2.0494  0.9240
  154SAPE  C21917127   4.637  -1.213   7.599 -0.1191 -0.7458  0.6150
  154SAPE  H19R17128   4.607  -1.110   7.572 -1.7407 -1.4464 -0.4384
  154SAPE  H19S17129   4.741  -1.234   7.566 -0.6714 -0.8012 -1.2309
  154SAPE  C22017130   4.639  -1.226   7.749 -0.3735 -0.3715 -0.5833
  154SAPE  H20R17131   4.540  -1.202   7.794 -1.5049 -1.4490 -2.3778
  154SAPE  H20S17132   4.707  -1.150   7.792  0.0498 -1.3937  0.6014
  154SAPE  H20T17133   4.678  -1.323   7.786 -2.0185 -0.4718  1.0651
  154SAPE   C3317134   3.999  -0.154   6.981 -0.3893  0.1975  0.7293
  154SAPE   H3X17135   4.052  -0.057   6.971  1.2627 -0.6632  0.7650
  154SAPE   H3Y17136   4.077  -0.227   7.011 -0.5850  0.5192  2.1080
  154SAPE   C3417137   3.902  -0.139   7.107 -0.0099  0.5828 -0.3984
  154SAPE   H4X17138   3.835  -0.228   7.112 -1.5773  1.5662 -2.5276
  154SAPE   H4Y17139   3.832  -0.058   7.075 -0.9103 -0.0865 -0.1584
  154SAPE   C3517140   3.957  -0.105   7.241  0.3840 -0.2944  0.2050
  154SAPE   H5X17141   3.886  -0.038   7.293  3.6573  3.0599  0.7609
  154SAPE   H5Y17142   4.051  -0.050   7.223 -1.9961  3.2377 -3.0000
  154SAPE   C3617143   3.975  -0.232   7.332 -0.4241  0.3960 -0.6082
  154SAPE   H6X17144   4.057  -0.288   7.281 -0.1533 -0.0011  0.2510
  154SAPE   H6Y17145   3.886  -0.299   7.336  1.2288 -1.9348 -0.9202
  154SAPE   C3717146   4.013  -0.197   7.475 -0.4106  0.0686  0.3612
  154SAPE   H7X17147   3.935  -0.130   7.518  0.6381  1.2780  0.4361
  154SAPE   H7Y17148   4.102  -0.131   7.473 -0.1955 -0.2406 -0.5432
  154SAPE   C3817149   4.031  -0.313   7.566 -0.1735 -0.2587 -0.6101
  154SAPE   H8X17150   4.124  -0.371   7.548 -0.0171 -1.3090  2.7717
  154SAPE   H8Y17151   3.954  -0.392   7.554 -1.4132  0.8720 -0.2538
  154SAPE   C3917152   4.042  -0.268   7.709  0.2421  0.1866  0.2353
  154SAPE   H9X17153   3.957  -0.201   7.732  0.7848  0.5402  1.3098
  154SAPE   H9Y17154   4.134  -0.208   7.725  1.3504 -1.3400 -0.1376
  154SAPE  C31017155   4.046  -0.384   7.807  0.5018 -0.4429 -0.2858
  154SAPE  H10X17156   4.142  -0.438   7.800  0.7660 -0.4959  2.5829
  154SAPE  H10Y17157   3.968  -0.455   7.772 -0.9447  0.8586  0.1378
  154SAPE  C31117158   4.019  -0.333   7.956 -0.0430  0.1618 -0.7738
  154SAPE  H11X17159   4.065  -0.232   7.961 -0.2713  0.2616 -0.7250
  154SAPE  H11Y17160   4.082  -0.398   8.022  0.2649  0.3452 -0.8845
  154SAPE  C31217161   3.872  -0.324   7.988 -0.0623 -0.0137  0.8811
  154SAPE  H12X17162   3.824  -0.422   7.967 -0.2842 -0.0075  1.3472
  154SAPE  H12Y17163   3.826  -0.242   7.929  0.6703  0.1463  0.5206
  154SAPE  C31317164   3.853  -0.293   8.136 -0.0486  0.1702  0.4634
  154SAPE  H13X17165   3.905  -0.370   8.197 -0.5106 -0.0622  0.5668
  154SAPE  H13Y17166   3.748  -0.308   8.169 -0.3189 -0.9898 -0.8424
  154SAPE  C31417167   3.912  -0.155   8.182  0.1819  0.2731  0.0670
  154SAPE  H14X17168   3.852  -0.081   8.126 -1.4076  1.1271  2.7210
  154SAPE  H14Y17169   4.020  -0.152   8.155  0.1640  2.6791  0.0751
  154SAPE  C31517170   3.885  -0.144   8.336 -0.3655  0.0667 -0.6418
  154SAPE  H15X17171   3.925  -0.235   8.385 -2.0000 -0.4704 -0.2443
  154SAPE  H15Y17172   3.777  -0.147   8.362  0.3551 -1.7134  2.5927
  154SAPE  C31617173   3.944  -0.012   8.390  0.4836 -0.1714 -0.0786
  154SAPE  H16X17174   3.873   0.021   8.469  1.6385  0.0870  0.8759
  154SAPE  H16Y17175   3.938   0.067   8.312  0.0532  2.6613  2.6162
  154SAPE  C31717176   4.082  -0.024   8.452  0.0819 -0.5065 -0.3616
  154SAPE  H17X17177   4.161  -0.047   8.377 -1.7910  1.8746 -3.2718
  154SAPE  H17Y17178   4.078  -0.109   8.524 -0.0565  0.2841  0.5902
  154SAPE  C31817179   4.128   0.092   8.534 -0.3170 -0.4245  0.4778
  154SAPE  H18X17180   4.228   0.065   8.574  0.3057  2.2086  0.8909
  154SAPE  H18Y17181   4.067   0.126   8.620 -1.3871 -0.6527 -0.1734
  154SAPE  H18Z17182   4.148   0.183   8.474 -0.4784 -0.0020  1.0502
  155SAPE     N17183   5.565   6.174   6.183  0.3223  0.2575 -0.9524
  155SAPE   HN117184   5.615   6.262   6.157  0.8091 -0.5228 -2.8564
  155SAPE   HN217185   5.640   6.114   6.223 -0.6754  0.0597  0.6851
  155SAPE   HN317186   5.520   6.141   6.095 -1.8991 -0.3361  0.3393
  155SAPE   C1217187   5.461   6.183   6.287  0.7358  0.5545  0.0148
  155SAPE  H12A17188   5.450   6.079   6.326 -0.7455  0.4516 -0.5837
  155SAPE  H12B17189   5.368   6.206   6.231 -0.6937 -1.2194  1.5035
  155SAPE   C1117190   5.503   6.287   6.401  0.0811 -0.0242  0.6488
  155SAPE  H11A17191   5.601   6.251   6.439  0.1858 -1.7266 -1.0726
  155SAPE  H11B17192   5.429   6.284   6.483  0.8916 -0.0288  1.3939
  155SAPE     P17193   5.396   6.521   6.335 -0.2098  0.1199 -0.0142
  155SAPE   O1317194   5.438   6.648   6.274  0.2130  0.3085 -0.2130
  155SAPE   O1417195   5.281   6.442   6.280 -0.5376 -0.1175 -0.7425
  155SAPE   O1217196   5.517   6.421   6.347  0.5591 -0.1942 -0.0764
  155SAPE   O1117197   5.369   6.546   6.489  0.1730  0.0130  0.6000
  155SAPE    C117198   5.239   6.546   6.550  0.6923 -0.1429 -0.4186
  155SAPE    HA17199   5.152   6.518   6.487  1.3902 -1.7585 -0.7149
  155SAPE    HB17200   5.246   6.480   6.639  2.3100  0.2631 -0.2036
  155SAPE    C217201   5.222   6.689   6.608 -0.2413 -1.1531 -0.1213
  155SAPE    HS17202   5.259   6.775   6.548  0.2593  1.8490  4.0765
  155SAPE   O2117203   5.297   6.699   6.733  0.5420 -0.2725  0.0708
  155SAPE   C2117204   5.305   6.829   6.769  0.3730 -0.0691 -0.2492
  155SAPE   O2217205   5.246   6.926   6.718 -0.1936  0.3529  0.6354
  155SAPE   C2217206   5.387   6.839   6.898 -0.2483 -0.7219 -1.0070
  155SAPE   H2R17207   5.390   6.742   6.951 -0.5128 -0.0644  0.2613
  155SAPE   H2S17208   5.487   6.877   6.870 -0.0916 -0.4161 -0.0735
  155SAPE    C317209   5.071   6.713   6.641  0.3740  0.4787 -0.0764
  155SAPE    HX17210   5.018   6.705   6.543  0.2000 -1.6454  0.1656
  155SAPE    HY17211   5.037   6.811   6.681 -0.5282 -0.0289  0.4257
  155SAPE   O3117212   5.024   6.602   6.720  0.7016 -0.4237  0.1997
  155SAPE   C3117213   5.003   6.619   6.848  0.9467 -0.6036 -0.1717
  155SAPE   O3217214   5.038   6.716   6.913 -0.6161 -0.4963 -0.2941
  155SAPE   C3217215   4.926   6.495   6.909  0.0513 -0.5348 -0.0549
  155SAPE   H2X17216   5.002   6.413   6.916  0.7603  0.1782  0.8912
  155SAPE   H2Y17217   4.847   6.470   6.835 -0.5029  1.2729 -0.1175
  155SAPE   C2317218   5.331   6.934   6.999  0.4101  0.9466  0.5083
  155SAPE   H3R17219   5.239   6.885   7.037  0.1659  0.2872 -0.8776
  155SAPE   H3S17220   5.305   7.029   6.949 -0.2895  1.5446  1.9390
  155SAPE   C2417221   5.417   6.968   7.116 -0.1901  0.2629 -0.6563
  155SAPE   H4R17222   5.396   7.071   7.152 -0.9720 -0.4525  1.0509
  155SAPE   H4S17223   5.519   6.981   7.074 -0.2056  0.3321 -0.6732
  155SAPE   C2517224   5.409   6.879   7.240 -0.6575  0.3831  0.1573
  155SAPE   H5R17225   5.344   6.791   7.236 -0.3906  0.1663  0.5709
  155SAPE   C2617226   5.458   6.906   7.365 -0.3903 -0.0979  0.2080
  155SAPE   H6R17227   5.444   6.834   7.447  0.4161  1.5812  1.8927
  155SAPE   C2717228   5.539   7.029   7.392  0.7655 -0.0511 -0.3453
  155SAPE   H7R17229   5.479   7.094   7.459  1.7417  0.2829  0.2263
  155SAPE   H7S17230   5.571   7.085   7.302  1.2171 -1.6285 -1.2017
  155SAPE   C2817231   5.665   6.995   7.464  0.0773 -0.4922  0.5091
  155SAPE   H8R17232   5.740   6.976   7.386 -0.1385  1.3327 -0.2033
  155SAPE   C2917233   5.688   6.958   7.591 -0.2221  0.9399  0.0475
  155SAPE   H9R17234   5.788   6.927   7.625 -0.2247 -0.8199 -1.3969
  155SAPE  C21017235   5.581   6.950   7.698  0.3113  0.5567 -0.1324
  155SAPE  H10R17236   5.585   6.864   7.767  1.1128  1.6405  1.2176
  155SAPE  H10S17237   5.481   6.949   7.650  1.0292  1.9103 -1.7861
  155SAPE  C21117238   5.594   7.081   7.777  0.7419 -0.7091  0.2220
  155SAPE  H11R17239   5.635   7.165   7.720  1.2620 -0.7479  0.5332
  155SAPE  C21217240   5.569   7.086   7.911  0.5669 -0.2237  0.6847
  155SAPE  H12R17241   5.579   7.186   7.957 -0.2516  0.3983 -0.4376
  155SAPE  C21317242   5.523   6.975   7.996  0.3126 -0.2771  0.0535
  155SAPE  H13R17243   5.446   6.916   7.941  0.7550  0.0720 -0.9734
  155SAPE  H13S17244   5.466   7.019   8.081 -0.0010  0.8723 -0.7269
  155SAPE  C21417245   5.637   6.889   8.041 -0.4839  0.1781 -0.4656
  155SAPE  H14R17246   5.723   6.861   7.978  1.9901  0.1269  2.6583
  155SAPE  C21517247   5.643   6.832   8.166 -0.2022  0.1320  0.6222
  155SAPE  H15R17248   5.724   6.761   8.189 -1.2795 -1.1384  0.6025
  155SAPE  C21617249   5.552   6.833   8.284  0.7600 -0.3577 -0.3983
  155SAPE  H16R17250   5.463   6.899   8.279  2.4466  2.0509 -0.2597
  155SAPE  H16S17251   5.607   6.873   8.372  1.7945 -0.0338 -1.1758
  155SAPE  C21717252   5.507   6.692   8.318  0.4962  0.3213  1.5705
  155SAPE  H17R17253   5.591   6.629   8.354  0.7631 -0.6142 -0.5471
  155SAPE  H17S17254   5.465   6.640   8.229 -1.5973  0.4102  2.4372
  155SAPE  C21817255   5.395   6.671   8.416  0.4458  0.2033  0.1218
  155SAPE  H18R17256   5.381   6.562   8.433 -1.4962  0.5152  0.7849
  155SAPE  H18S17257   5.298   6.707   8.374  0.7294  0.8030 -0.0255
  155SAPE  C21917258   5.419   6.742   8.546  0.0084 -0.0950 -0.3727
  155SAPE  H19R17259   5.326   6.714   8.601 -1.0434  1.2902 -1.3411
  155SAPE  H19S17260   5.411   6.849   8.517 -1.5205 -0.5960 -1.9937
  155SAPE  C22017261   5.539   6.706   8.630 -0.3355 -0.1494 -0.6770
  155SAPE  H20R17262   5.623   6.696   8.558  0.5399  0.3092  0.2466
  155SAPE  H20S17263   5.534   6.608   8.684 -1.8974  0.4499  0.3492
  155SAPE  H20T17264   5.565   6.791   8.696  0.5510 -0.5846 -0.4463
  155SAPE   C3317265   4.872   6.507   7.051  0.1170 -0.0210 -0.1928
  155SAPE   H3X17266   4.825   6.608   7.042  0.3287  0.0845 -0.1117
  155SAPE   H3Y17267   4.954   6.522   7.123  0.0977 -1.2502  0.1025
  155SAPE   C3417268   4.766   6.403   7.080  0.4574 -0.4409 -0.4715
  155SAPE   H4X17269   4.800   6.298   7.074 -0.4729 -0.8814  1.2075
  155SAPE   H4Y17270   4.682   6.420   7.008  1.1032  1.1930 -0.8933
  155SAPE   C3517271   4.704   6.415   7.222  0.0117 -0.0712 -0.3940
  155SAPE   H5X17272   4.609   6.358   7.226 -0.2904  0.4925  0.9129
  155SAPE   H5Y17273   4.691   6.524   7.237  1.6714 -0.1012  1.7068
  155SAPE   C3617274   4.806   6.360   7.325  0.6990  0.3968  0.6004
  155SAPE   H6X17275   4.908   6.382   7.288  0.6828 -0.2582  0.1599
  155SAPE   H6Y17276   4.779   6.253   7.312  0.0052  0.7646 -1.3345
  155SAPE   C3717277   4.778   6.398   7.470 -0.0859 -0.1961  0.2712
  155SAPE   H7X17278   4.692   6.466   7.485  1.2622  1.8531 -0.8920
  155SAPE   H7Y17279   4.861   6.462   7.507  1.4411 -0.6312 -2.2086
  155SAPE   C3817280   4.755   6.279   7.566 -0.3246 -0.2393  0.7560
  155SAPE   H8X17281   4.853   6.231   7.585  0.6172  1.1073 -0.5195
  155SAPE   H8Y17282   4.693   6.197   7.524  0.2511 -0.4206  0.2378
  155SAPE   C3917283   4.681   6.314   7.692 -0.0875 -0.1804 -0.4675
  155SAPE   H9X17284   4.661   6.216   7.740 -0.4764 -0.7698 -1.7827
  155SAPE   H9Y17285   4.583   6.357   7.660 -0.3374 -0.9545 -0.7715
  155SAPE  C31017286   4.758   6.414   7.786 -0.1029  0.1234  0.6432
  155SAPE  H10X17287   4.752   6.517   7.745  0.3027  0.5656  1.6701
  155SAPE  H10Y17288   4.864   6.382   7.776 -0.3490 -0.0820 -2.1364
  155SAPE  C31117289   4.708   6.418   7.931 -0.6541  0.6525 -0.3772
  155SAPE  H11X17290   4.774   6.485   7.991 -2.2328  0.2919  1.9139
  155SAPE  H11Y17291   4.732   6.318   7.974  4.9525  1.2616 -1.2525
  155SAPE  C31217292   4.564   6.459   7.961 -0.6034  0.0268  0.0811
  155SAPE  H12X17293   4.501   6.376   7.921 -0.0334 -0.7070  0.6836
  155SAPE  H12Y17294   4.535   6.557   7.918  0.5283  1.1881  1.8440
  155SAPE  C31317295   4.546   6.474   8.117 -0.1784 -0.9605  0.3354
  155SAPE  H13X17296   4.636   6.517   8.166  0.5407 -0.2407 -1.5303
  155SAPE  H13Y17297   4.564   6.371   8.155 -0.3535 -0.9251  0.5162
  155SAPE  C31417298   4.415   6.540   8.165  0.6428  0.3735  0.2479
  155SAPE  H14X17299   4.332   6.468   8.152 -0.2483  1.7330 -2.3715
  155SAPE  H14Y17300   4.390   6.630   8.104  0.3967  0.4815  0.5062
  155SAPE  C31517301   4.426   6.589   8.313 -0.2151 -0.2195  0.2051
  155SAPE  H15X17302   4.342   6.656   8.342 -0.2364 -0.4920  0.7850
  155SAPE  H15Y17303   4.524   6.637   8.331  0.0852 -0.5991 -0.3859
  155SAPE  C31617304   4.416   6.474   8.400 -0.1529  1.0834  0.1018
  155SAPE  H16X17305   4.498   6.403   8.377 -1.3497 -0.1624 -0.4390
  155SAPE  H16Y17306   4.319   6.421   8.393 -0.4054  1.4566  0.6341
  155SAPE  C31717307   4.433   6.522   8.541  0.4154 -0.5256 -0.5863
  155SAPE  H17X17308   4.357   6.602   8.553 -0.3847 -1.0110 -2.2001
  155SAPE  H17Y17309   4.527   6.580   8.553  1.0043 -1.7832  1.3131
  155SAPE  C31817310   4.416   6.419   8.651  0.2619 -0.0271 -0.2440
  155SAPE  H18X17311   4.437   6.325   8.597 -1.1352  0.0131 -0.9179
  155SAPE  H18Y17312   4.311   6.399   8.681 -0.4028  0.3363 -2.1813
  155SAPE  H18Z17313   4.490   6.436   8.732 -0.2190  0.3966  0.1159
  156SAPE     N17314   3.637   3.503   6.408 -0.1451 -0.5438 -0.3105
  156SAPE   HN117315   3.650   3.403   6.432  2.5897 -0.9416 -2.7729
  156SAPE   HN217316   3.540   3.529   6.434 -0.8270 -3.5505  0.5492
  156SAPE   HN317317   3.646   3.501   6.304 -0.5364  2.1902 -0.4526
  156SAPE   C1217318   3.737   3.589   6.480  0.5176  0.0665  0.0791
  156SAPE  H12A17319   3.829   3.595   6.418  0.6495  1.0352  0.3467
  156SAPE  H12B17320   3.754   3.547   6.581  1.3893  1.1708  0.4092
  156SAPE   C1117321   3.687   3.733   6.507  0.4772 -0.6814 -0.3501
  156SAPE  H11A17322   3.775   3.791   6.542  0.8605 -2.1907  1.3294
  156SAPE  H11B17323   3.612   3.742   6.588  0.7335  0.6739 -0.2399
  156SAPE     P17324   3.682   3.918   6.321 -0.7328 -0.1693  0.1144
  156SAPE   O1317325   3.833   3.906   6.312 -0.0293  0.2031  0.6036
  156SAPE   O1417326   3.616   3.939   6.186 -0.4436  0.3840  0.5296
  156SAPE   O1217327   3.625   3.784   6.385  0.1614 -0.0028 -0.1429
  156SAPE   O1117328   3.642   4.035   6.416 -0.6408  0.2131  0.0927
  156SAPE    C117329   3.511   4.044   6.468  0.3051  0.2643 -0.2691
  156SAPE    HA17330   3.441   4.001   6.393 -0.8823 -1.0521  1.5196
  156SAPE    HB17331   3.511   3.981   6.560  1.4409 -0.8430 -0.9940
  156SAPE    C217332   3.467   4.185   6.491 -0.4018 -0.2871  0.1065
  156SAPE    HS17333   3.476   4.232   6.390  0.0704  3.7522  1.8388
  156SAPE   O2117334   3.551   4.255   6.587 -0.8283  0.1394 -0.1331
  156SAPE   C2117335   3.547   4.384   6.581 -0.3635 -0.4727  0.0177
  156SAPE   O2217336   3.483   4.456   6.508 -0.1135  0.2063  0.1553
  156SAPE   C2217337   3.650   4.450   6.681  1.0818 -0.1325 -0.2058
  156SAPE   H2R17338   3.728   4.382   6.719 -0.3876 -2.0504 -0.4824
  156SAPE   H2S17339   3.711   4.517   6.617  0.4653 -0.1972 -0.8860
  156SAPE    C317340   3.316   4.200   6.522 -0.1167 -0.5559  0.3379
  156SAPE    HX17341   3.260   4.148   6.441  0.3294  0.8634 -0.9370
  156SAPE    HY17342   3.280   4.305   6.519 -0.0183 -0.5302 -1.7642
  156SAPE   O3117343   3.276   4.134   6.643  0.4376  0.4175  1.1506
  156SAPE   C3117344   3.258   4.213   6.752 -0.2996  0.4941  0.6550
  156SAPE   O3217345   3.290   4.326   6.767 -0.0731  0.1691 -0.2292
  156SAPE   C3217346   3.196   4.118   6.843  1.1834 -1.0218 -0.3854
  156SAPE   H2X17347   3.278   4.047   6.866 -0.2932 -2.6825 -0.1287
  156SAPE   H2Y17348   3.111   4.071   6.790  0.3501 -0.4657  0.4351
  156SAPE   C2317349   3.583   4.532   6.791  0.0479 -0.3741  0.3497
  156SAPE   H3R17350   3.534   4.467   6.867 -2.0406  2.5114  1.6808
  156SAPE   H3S17351   3.511   4.607   6.751 -0.6966  0.4638  3.0378
  156SAPE   C2417352   3.679   4.630   6.865  0.1643  0.4820 -0.1835
  156SAPE   H4R17353   3.630   4.721   6.905 -1.6907 -0.9288  0.9323
  156SAPE   H4S17354   3.747   4.666   6.785 -1.8381  1.3848 -1.5756
  156SAPE   C2517355   3.779   4.563   6.953  0.8365 -0.2963 -0.3157
  156SAPE   H5R17356   3.845   4.489   6.904  1.6445  0.2941 -0.1443
  156SAPE   C2617357   3.813   4.591   7.081  0.0034 -0.0319  0.2554
  156SAPE   H6R17358   3.879   4.517   7.128  0.7485  0.8325  0.5957
  156SAPE   C2717359   3.760   4.705   7.166 -0.1008 -0.6012  0.1181
  156SAPE   H7R17360   3.702   4.671   7.255 -1.5448 -0.5045 -0.7624
  156SAPE   H7S17361   3.682   4.754   7.103 -0.0549  0.2910  0.7305
  156SAPE   C2817362   3.868   4.799   7.203 -0.5965 -0.2776  0.0895
  156SAPE   H8R17363   3.971   4.774   7.174  0.0534 -1.0544  2.7751
  156SAPE   C2917364   3.851   4.911   7.268 -1.2511 -0.3866 -0.2064
  156SAPE   H9R17365   3.936   4.979   7.285 -0.2069 -1.7594  0.2993
  156SAPE  C21017366   3.720   4.973   7.315  0.5472  0.6759  0.0436
  156SAPE  H10R17367   3.644   4.959   7.236 -2.9207  0.9460  3.0772
  156SAPE  H10S17368   3.734   5.082   7.334 -1.1886  0.8858  0.2153
  156SAPE  C21117369   3.647   4.900   7.429  0.6267  0.6335 -0.4203
  156SAPE  H11R17370   3.567   4.834   7.392  1.0263  0.6018 -1.2467
  156SAPE  C21217371   3.671   4.917   7.564 -0.6832  0.1605 -0.6235
  156SAPE  H12R17372   3.622   4.855   7.641 -1.8743  0.9379 -0.7332
  156SAPE  C21317373   3.777   4.999   7.631 -0.2043 -0.1837 -1.0495
  156SAPE  H13R17374   3.851   5.020   7.551  1.7545 -0.9580  0.4669
  156SAPE  H13S17375   3.826   4.934   7.707  0.5146  0.6236 -0.8044
  156SAPE  C21417376   3.718   5.125   7.688  0.0624 -0.9041  0.3902
  156SAPE  H14R17377   3.610   5.130   7.669  0.3812 -0.6413 -1.5277
  156SAPE  C21517378   3.771   5.212   7.770 -0.1994 -0.0173 -0.2010
  156SAPE  H15R17379   3.708   5.295   7.806 -0.8753 -1.2709  1.6516
  156SAPE  C21617380   3.916   5.198   7.832 -0.1509  0.0788  0.2653
  156SAPE  H16R17381   3.987   5.276   7.795  0.4787 -2.2270 -4.0786
  156SAPE  H16S17382   3.967   5.107   7.794  1.0081  0.6728  0.3579
  156SAPE  C21717383   3.922   5.178   7.986  0.0693 -0.6045  0.4236
  156SAPE  H17R17384   3.896   5.071   7.999  2.8899 -1.7291 -2.1146
  156SAPE  H17S17385   3.844   5.236   8.041 -0.0597 -1.3885  1.0795
  156SAPE  C21817386   4.060   5.197   8.053 -0.7764 -0.0167  0.7505
  156SAPE  H18R17387   4.107   5.290   8.015 -1.2702  0.3147  0.9491
  156SAPE  H18S17388   4.126   5.121   8.005 -1.2013  1.6368 -2.7232
  156SAPE  C21917389   4.050   5.168   8.203 -0.1000 -0.7110  0.1919
  156SAPE  H19R17390   4.001   5.258   8.247  0.1435  0.9914 -2.7801
  156SAPE  H19S17391   4.156   5.177   8.235 -0.0306  0.7033 -0.3735
  156SAPE  C22017392   3.986   5.034   8.249 -0.2501  0.2719  0.3122
  156SAPE  H20R17393   3.995   4.951   8.175  0.7846  1.7344 -1.3003
  156SAPE  H20S17394   3.877   5.050   8.260 -0.5614 -1.2446 -0.2951
  156SAPE  H20T17395   4.017   5.010   8.353 -1.2278 -1.5376  0.2108
  156SAPE   C3317396   3.128   4.175   6.974 -0.9650  0.0430 -0.8913
  156SAPE   H3X17397   3.033   4.226   6.948 -0.9362 -0.3125 -1.7187
  156SAPE   H3Y17398   3.198   4.240   7.032 -1.1984 -1.7638  1.5636
  156SAPE   C3417399   3.092   4.052   7.059 -0.0372 -0.1767 -0.2380
  156SAPE   H4X17400   3.179   3.984   7.077 -0.3803 -0.8594 -1.0874
  156SAPE   H4Y17401   3.018   3.989   7.005  0.5950 -1.3272  0.1782
  156SAPE   C3517402   3.028   4.092   7.193 -0.6649 -0.6195  0.0316
  156SAPE   H5X17403   2.971   4.001   7.223 -0.1535 -0.4123  1.7152
  156SAPE   H5Y17404   2.943   4.162   7.180 -1.4836 -1.3188  1.4114
  156SAPE   C3617405   3.135   4.122   7.287 -0.5347  0.4193  0.7858
  156SAPE   H6X17406   3.217   4.176   7.236  0.5251 -1.1609  0.7283
  156SAPE   H6Y17407   3.177   4.027   7.328 -1.5968 -0.4145 -0.0013
  156SAPE   C3717408   3.081   4.209   7.399  0.2081 -0.5833 -0.3908
  156SAPE   H7X17409   3.004   4.154   7.456  0.7139  0.9068  1.8417
  156SAPE   H7Y17410   3.039   4.303   7.359  1.1744 -0.2848 -0.7433
  156SAPE   C3817411   3.190   4.245   7.499 -0.2835  0.5455 -0.0418
  156SAPE   H8X17412   3.269   4.306   7.449  0.3847  0.9973  1.5178
  156SAPE   H8Y17413   3.233   4.146   7.527  2.0212  0.6490 -2.7576
  156SAPE   C3917414   3.142   4.312   7.629  0.8046 -0.3005 -0.0511
  156SAPE   H9X17415   3.055   4.260   7.675  0.7734 -0.1150  0.1005
  156SAPE   H9Y17416   3.109   4.412   7.594  0.9254 -0.3388 -0.2782
  156SAPE  C31017417   3.249   4.351   7.737  0.2457 -0.3636 -0.0629
  156SAPE  H10X17418   3.286   4.454   7.717 -0.0495 -0.4928 -1.3881
  156SAPE  H10Y17419   3.330   4.276   7.730  2.2151  1.6028  0.3879
  156SAPE  C31117420   3.194   4.337   7.879  0.4933 -0.0452  0.1778
  156SAPE  H11X17421   3.183   4.227   7.892  2.9021 -0.5357 -1.2941
  156SAPE  H11Y17422   3.095   4.386   7.889  0.8646  0.6733  0.3977
  156SAPE  C31217423   3.290   4.399   7.975  0.6127  0.1232 -0.4555
  156SAPE  H12X17424   3.310   4.502   7.939  0.8237  0.3156  0.1984
  156SAPE  H12Y17425   3.386   4.346   7.984  0.0771 -0.8235 -0.1660
  156SAPE  C31317426   3.223   4.400   8.111 -0.0648 -0.1584  0.5749
  156SAPE  H13X17427   3.187   4.297   8.133 -2.9882  1.0310  1.9248
  156SAPE  H13Y17428   3.132   4.464   8.115 -0.0389  0.1207 -1.7596
  156SAPE  C31417429   3.320   4.452   8.220 -0.4404  0.4796 -0.0096
  156SAPE  H14X17430   3.348   4.558   8.202 -1.0948  0.6273 -0.1773
  156SAPE  H14Y17431   3.418   4.399   8.214 -0.4459  0.4257  0.3265
  156SAPE  C31517432   3.279   4.427   8.367  0.1691  0.7271 -0.2483
  156SAPE  H15X17433   3.372   4.448   8.425  0.6480 -0.8223 -0.4270
  156SAPE  H15Y17434   3.259   4.319   8.379  0.6312  0.7457  0.7751
  156SAPE  C31617435   3.171   4.515   8.430 -0.4076 -0.0978  0.0809
  156SAPE  H16X17436   3.076   4.507   8.373 -2.1492  4.4122  1.9381
  156SAPE  H16Y17437   3.205   4.619   8.415 -1.1002  0.3738  1.5708
  156SAPE  C31717438   3.135   4.477   8.576  0.7091  0.3084 -0.0564
  156SAPE  H17X17439   3.214   4.524   8.639 -0.0061  1.0100  0.3469
  156SAPE  H17Y17440   3.141   4.368   8.591 -0.6693  0.2990  0.6691
  156SAPE  C31817441   2.997   4.537   8.607  0.1778  0.6406 -0.3269
  156SAPE  H18X17442   3.004   4.648   8.602 -1.9208  0.8571  0.5688
  156SAPE  H18Y17443   2.960   4.504   8.706  1.1731 -0.0942 -0.1869
  156SAPE  H18Z17444   2.922   4.502   8.534 -1.0060  0.0511  1.1249
  157SAPE     N17445   0.871   1.615   6.252 -0.3112 -0.0898  0.5828
  157SAPE   HN117446   0.817   1.575   6.331  0.7309 -1.6163  0.5476
  157SAPE   HN217447   0.957   1.665   6.283  0.0193  0.4842 -1.1138
  157SAPE   HN317448   0.809   1.681   6.200 -1.2404 -1.6290 -0.3347
  157SAPE   C1217449   0.917   1.514   6.148  0.5153 -0.2903 -0.8940
  157SAPE  H12A17450   0.836   1.480   6.079 -0.5521 -2.1090  1.1031
  157SAPE  H12B17451   0.947   1.424   6.206 -2.5638 -0.7133  0.2812
  157SAPE   C1117452   1.040   1.565   6.073 -0.3823 -1.0401  0.2850
  157SAPE  H11A17453   1.011   1.658   6.021  2.1109  0.1737  0.8853
  157SAPE  H11B17454   1.062   1.490   5.994  1.5516  2.3329 -2.6906
  157SAPE     P17455   1.290   1.516   6.145  0.1097 -0.2074 -0.0534
  157SAPE   O1317456   1.274   1.378   6.108  0.2555  0.4734 -0.4342
  157SAPE   O1417457   1.380   1.595   6.052 -0.3398 -0.0920  0.2884
  157SAPE   O1217458   1.150   1.602   6.156 -0.8226 -0.6181  0.0388
  157SAPE   O1117459   1.338   1.531   6.295  0.2335  0.1230 -0.2762
  157SAPE    C117460   1.234   1.503   6.395  0.3672 -0.3210  0.6055
  157SAPE    HA17461   1.150   1.576   6.387  0.4466 -0.1417  1.3713
  157SAPE    HB17462   1.178   1.408   6.378  0.4752 -0.0717 -1.3506
  157SAPE    C217463   1.275   1.510   6.544  0.3857 -0.5782 -1.1081
  157SAPE    HS17464   1.199   1.464   6.610  0.0390 -0.1452 -1.1987
  157SAPE   O2117465   1.280   1.652   6.574  0.3165 -0.1267  0.7115
  157SAPE   C2117466   1.191   1.716   6.637  0.0959  0.4034  0.1930
  157SAPE   O2217467   1.102   1.663   6.699 -0.0456 -0.2850 -0.7463
  157SAPE   C2217468   1.215   1.866   6.626  0.5152 -0.6558 -0.2209
  157SAPE   H2R17469   1.300   1.882   6.697  0.9721 -0.5174 -0.7941
  157SAPE   H2S17470   1.247   1.893   6.524 -0.8203 -0.0627 -0.5077
  157SAPE    C317471   1.408   1.436   6.568  0.7490  0.1130  0.9154
  157SAPE    HX17472   1.482   1.481   6.498  0.5445 -0.3183  0.4092
  157SAPE    HY17473   1.389   1.331   6.536 -0.3308  0.8214 -0.9422
  157SAPE   O3117474   1.444   1.439   6.707 -0.0100  0.4236  0.2449
  157SAPE   C3117475   1.533   1.535   6.737 -0.0971  0.2159  0.2830
  157SAPE   O3217476   1.588   1.613   6.659  0.4400 -0.5495  0.3250
  157SAPE   C3217477   1.574   1.547   6.889  0.5710  0.2001 -0.0362
  157SAPE   H2X17478   1.618   1.647   6.905  2.1370 -0.7951  2.2745
  157SAPE   H2Y17479   1.652   1.470   6.904 -0.2338 -0.4094  1.1495
  157SAPE   C2317480   1.101   1.946   6.685  0.0044  0.3960 -0.6045
  157SAPE   H3R17481   1.064   1.888   6.772  0.4612  1.0852  0.0566
  157SAPE   H3S17482   1.017   1.958   6.612 -0.8657 -0.0077  0.3044
  157SAPE   C2417483   1.151   2.090   6.727 -0.3879 -0.6209 -0.3141
  157SAPE   H4R17484   1.170   2.148   6.634  0.6531  0.5682  0.6105
  157SAPE   H4S17485   1.245   2.081   6.785 -0.9789 -0.0713  0.7493
  157SAPE   C2517486   1.054   2.178   6.806  0.3961  0.4074  0.5330
  157SAPE   H5R17487   0.946   2.166   6.788  0.4677  1.5133 -0.7593
  157SAPE   C2617488   1.091   2.264   6.905 -0.0367  0.8327  0.2513
  157SAPE   H6R17489   1.013   2.313   6.966  0.8458  3.2782 -0.4609
  157SAPE   C2717490   1.225   2.287   6.952 -0.1837  0.1451 -0.6120
  157SAPE   H7R17491   1.305   2.286   6.875  1.1513 -1.7989  0.6911
  157SAPE   H7S17492   1.236   2.204   7.026 -0.9483  0.1091 -0.5384
  157SAPE   C2817493   1.249   2.415   7.029  0.1223  0.1501  0.0532
  157SAPE   H8R17494   1.252   2.506   6.967  0.2468 -0.2575 -0.5471
  157SAPE   C2917495   1.252   2.424   7.159 -0.1529  0.0817  0.1621
  157SAPE   H9R17496   1.268   2.522   7.207 -0.3893 -0.5296  1.5459
  157SAPE  C21017497   1.230   2.317   7.266 -0.3509 -0.6269  0.5690
  157SAPE  H10R17498   1.193   2.227   7.211 -0.6439 -0.4186  0.4272
  157SAPE  H10S17499   1.157   2.357   7.339 -3.1570 -0.7505 -1.9494
  157SAPE  C21117500   1.356   2.279   7.337 -0.2620 -0.4140  0.1983
  157SAPE  H11R17501   1.423   2.205   7.291  0.4034  0.6232 -0.5481
  157SAPE  C21217502   1.405   2.332   7.454  0.2259 -0.6964  1.1001
  157SAPE  H12R17503   1.497   2.290   7.497  0.7252 -1.5159 -0.6475
  157SAPE  C21317504   1.331   2.443   7.522  0.3063 -0.0003  0.8159
  157SAPE  H13R17505   1.243   2.402   7.577 -1.2858  0.6111 -1.1473
  157SAPE  H13S17506   1.287   2.517   7.452 -3.2027 -0.5979  2.1726
  157SAPE  C21417507   1.431   2.508   7.617  0.1723  0.7399 -0.1166
  157SAPE  H14R17508   1.491   2.586   7.568 -0.6530  0.1642 -2.1375
  157SAPE  C21517509   1.446   2.480   7.742 -0.5062 -0.5218  0.0330
  157SAPE  H15R17510   1.514   2.546   7.798 -0.5996 -1.6288  1.5049
  157SAPE  C21617511   1.356   2.387   7.811 -0.3240  0.3548 -0.2081
  157SAPE  H16R17512   1.410   2.331   7.891  0.2332  1.9590  0.5778
  157SAPE  H16S17513   1.315   2.313   7.739  3.3213 -1.5562 -0.5570
  157SAPE  C21717514   1.235   2.445   7.891 -0.1972 -0.3660  1.0065
  157SAPE  H17R17515   1.188   2.352   7.929  0.5153 -1.4655 -0.6439
  157SAPE  H17S17516   1.170   2.497   7.817 -0.3138 -2.1044 -0.1699
  157SAPE  C21817517   1.261   2.535   8.011 -0.4736  0.1344  0.8062
  157SAPE  H18R17518   1.178   2.544   8.085 -0.0332  4.8514  1.0184
  157SAPE  H18S17519   1.284   2.637   7.972 -0.9874 -0.5581 -1.4643
  157SAPE  C21917520   1.379   2.485   8.104 -0.0052 -0.5121 -0.1504
  157SAPE  H19R17521   1.399   2.558   8.186 -0.2493 -0.8004  0.1659
  157SAPE  H19S17522   1.475   2.473   8.048 -0.3815 -1.9427 -0.5114
  157SAPE  C22017523   1.352   2.352   8.179 -0.2694 -0.2660  0.0920
  157SAPE  H20R17524   1.338   2.262   8.115 -0.3794 -2.1832  2.6440
  157SAPE  H20S17525   1.254   2.357   8.231 -0.1144 -1.6894  0.5715
  157SAPE  H20T17526   1.433   2.326   8.251 -0.8345 -0.4587  0.6723
  157SAPE   C3317527   1.460   1.503   6.991 -0.4575  0.1887  0.6642
  157SAPE   H3X17528   1.499   1.471   7.090 -1.2523  0.1748  0.9830
  157SAPE   H3Y17529   1.408   1.412   6.955  0.7988 -1.1781  2.1865
  157SAPE   C3417530   1.343   1.602   7.009  0.0758  0.5656  0.5412
  157SAPE   H4X17531   1.266   1.560   7.078  0.2921  1.9267  1.6663
  157SAPE   H4Y17532   1.290   1.618   6.912 -1.5760 -0.0685  1.2890
  157SAPE   C3517533   1.394   1.741   7.056  0.0528 -0.3695  0.6430
  157SAPE   H5X17534   1.311   1.814   7.057 -0.6330 -1.1296  0.8064
  157SAPE   H5Y17535   1.463   1.788   6.984 -0.5058  0.8943  0.9142
  157SAPE   C3617536   1.466   1.749   7.189  0.0256  0.5163 -0.3092
  157SAPE   H6X17537   1.503   1.852   7.208  2.7527 -0.2913 -0.7874
  157SAPE   H6Y17538   1.554   1.681   7.191 -0.1997  0.2130  1.6621
  157SAPE   C3717539   1.379   1.712   7.308 -0.0994  1.0017 -0.7565
  157SAPE   H7X17540   1.376   1.601   7.315  1.0975  0.9782 -0.4016
  157SAPE   H7Y17541   1.273   1.740   7.296 -0.4304  1.0299  1.8016
  157SAPE   C3817542   1.431   1.767   7.443  0.0482  0.1483 -0.3281
  157SAPE   H8X17543   1.541   1.771   7.429  0.1416 -1.6751 -0.4102
  157SAPE   H8Y17544   1.411   1.705   7.533 -0.5906  1.0952  0.2013
  157SAPE   C3917545   1.378   1.904   7.475  0.5206 -0.2786  0.2418
  157SAPE   H9X17546   1.268   1.891   7.487  0.8235 -0.8750  3.2490
  157SAPE   H9Y17547   1.391   1.976   7.391 -0.7593 -0.1791  0.1056
  157SAPE  C31017548   1.442   1.952   7.608  0.2377 -0.3584 -0.4052
  157SAPE  H10X17549   1.426   2.061   7.623 -0.6134 -0.6304  0.8059
  157SAPE  H10Y17550   1.553   1.948   7.605  0.3934  2.3710 -1.0200
  157SAPE  C31117551   1.386   1.881   7.728  0.2257  0.2278 -0.1083
  157SAPE  H11X17552   1.420   1.775   7.723  1.0060  0.5167 -1.9234
  157SAPE  H11Y17553   1.275   1.883   7.717  0.4312  0.2862 -3.1840
  157SAPE  C31217554   1.446   1.940   7.861 -0.5785  0.3816 -0.3093
  157SAPE  H12X17555   1.436   2.051   7.862 -0.0624  0.4410  1.1546
  157SAPE  H12Y17556   1.554   1.918   7.857 -0.2426  1.9601 -0.4689
  157SAPE  C31317557   1.378   1.885   7.983  0.4391 -0.1819  0.1973
  157SAPE  H13X17558   1.386   1.776   7.965  2.3558  0.2318 -1.8444
  157SAPE  H13Y17559   1.268   1.901   7.974  0.0221 -2.0471  1.5287
  157SAPE  C31417560   1.443   1.911   8.119 -0.4874  0.2830 -0.2645
  157SAPE  H14X17561   1.483   2.013   8.135 -0.8978  0.3579  0.3287
  157SAPE  H14Y17562   1.510   1.828   8.150 -0.1972  0.2620 -0.9333
  157SAPE  C31517563   1.327   1.909   8.225 -0.7973  0.0438  0.3223
  157SAPE  H15X17564   1.281   1.809   8.211  1.0894 -0.9277  0.7368
  157SAPE  H15Y17565   1.261   1.994   8.198  1.3096  1.7840  0.3830
  157SAPE  C31617566   1.377   1.935   8.370 -0.0970 -0.3355  1.1559
  157SAPE  H16X17567   1.466   1.870   8.385  0.4785 -0.4205 -1.9298
  157SAPE  H16Y17568   1.295   1.899   8.436 -0.5082 -0.5517  0.5396
  157SAPE  C31717569   1.412   2.080   8.411 -0.1889  1.0139  0.5168
  157SAPE  H17X17570   1.322   2.142   8.390 -0.3153  0.9609  0.9016
  157SAPE  H17Y17571   1.500   2.118   8.353  0.7057 -0.3183  0.9576
  157SAPE  C31817572   1.456   2.090   8.556  0.3742  0.6036  0.0785
  157SAPE  H18X17573   1.554   2.038   8.566  0.1450  0.2460  0.5144
  157SAPE  H18Y17574   1.382   2.039   8.621  3.5540 -2.0985  1.8977
  157SAPE  H18Z17575   1.472   2.194   8.590  2.9181  0.1780  0.3651
  158SAPE     N17576   2.606   6.475   6.187  0.7241 -0.3047  0.7577
  158SAPE   HN117577   2.663   6.557   6.158 -1.7841  0.6975 -1.8133
  158SAPE   HN217578   2.544   6.450   6.108  1.3737 -0.6523  0.3518
  158SAPE   HN317579   2.535   6.502   6.258 -0.0141  1.0589 -0.4456
  158SAPE   C1217580   2.696   6.364   6.228 -0.3546  0.3452  0.1597
  158SAPE  H12A17581   2.632   6.279   6.260 -0.3583 -0.5466 -2.0441
  158SAPE  H12B17582   2.763   6.401   6.308 -0.5525  1.3545 -0.1364
  158SAPE   C1117583   2.786   6.320   6.116  0.4653 -0.4806 -0.0082
  158SAPE  H11A17584   2.822   6.410   6.063  4.0226 -1.2613  0.7622
  158SAPE  H11B17585   2.736   6.261   6.037  0.8840 -0.1685 -0.5109
  158SAPE     P17586   3.029   6.284   6.211  0.1216  0.3118  0.2802
  158SAPE   O1317587   3.115   6.289   6.091 -0.5447  0.2003  0.1823
  158SAPE   O1417588   3.018   6.406   6.287 -0.2289 -0.4612 -0.2433
  158SAPE   O1217589   2.887   6.233   6.173  0.5815 -0.3001 -0.0025
  158SAPE   O1117590   3.088   6.171   6.300  0.1678 -0.1942 -0.0776
  158SAPE    C117591   3.012   6.095   6.393 -0.3520  0.5194 -0.3316
  158SAPE    HA17592   2.949   6.158   6.459 -0.7147  0.3850 -0.5399
  158SAPE    HB17593   2.935   6.031   6.345 -0.9944  0.4841  0.7197
  158SAPE    C217594   3.092   5.990   6.468 -0.2992  0.3063 -0.3007
  158SAPE    HS17595   3.026   5.923   6.527  1.7197 -0.9446  0.6593
  158SAPE   O2117596   3.181   6.056   6.557  0.0215  0.1786  0.1418
  158SAPE   C2117597   3.119   6.112   6.666  0.6263  0.6522  0.0404
  158SAPE   O2217598   2.999   6.086   6.696 -0.6369  0.5991  0.6512
  158SAPE   C2217599   3.212   6.191   6.752  0.2879  0.5874 -0.2461
  158SAPE   H2R17600   3.290   6.229   6.682 -1.8416  1.3337 -2.3357
  158SAPE   H2S17601   3.159   6.278   6.796 -0.7562 -0.0486 -0.2252
  158SAPE    C317602   3.173   5.901   6.365 -0.9247  0.2881 -0.1780
  158SAPE    HX17603   3.258   5.961   6.326  0.8523 -1.7810  0.3067
  158SAPE    HY17604   3.111   5.869   6.278 -1.5983  1.0766 -0.0047
  158SAPE   O3117605   3.229   5.791   6.438  0.1753 -0.4850 -0.7413
  158SAPE   C3117606   3.138   5.697   6.461 -0.7162  1.0517 -0.1241
  158SAPE   O3217607   3.028   5.694   6.405  0.1589  0.2649 -0.5451
  158SAPE   C3217608   3.192   5.596   6.563  0.1607 -0.0937 -0.1630
  158SAPE   H2X17609   3.279   5.553   6.509 -0.2248  0.3992 -1.2127
  158SAPE   H2Y17610   3.111   5.520   6.569 -0.6186  0.7256 -0.0490
  158SAPE   C2317611   3.274   6.112   6.878  0.3836  0.3304 -0.8851
  158SAPE   H3R17612   3.384   6.129   6.874  0.4106  0.8319  1.1424
  158SAPE   H3S17613   3.257   6.002   6.870  1.4123  0.0739  0.2589
  158SAPE   C2417614   3.225   6.174   7.015 -0.1768  0.4253  0.2636
  158SAPE   H4R17615   3.229   6.285   7.011 -1.1361  0.4303 -1.2565
  158SAPE   H4S17616   3.275   6.132   7.105  4.1892  0.3321 -1.9120
  158SAPE   C2517617   3.081   6.128   7.039 -0.1221 -0.3843 -0.5555
  158SAPE   H5R17618   3.035   6.067   6.960  0.0350 -1.0780 -0.1183
  158SAPE   C2617619   3.010   6.170   7.149 -0.3058 -0.2540  0.1888
  158SAPE   H6R17620   2.906   6.138   7.161 -1.4287  2.4680 -1.4583
  158SAPE   C2717621   3.063   6.268   7.250  0.5647 -0.2260  0.2333
  158SAPE   H7R17622   3.169   6.240   7.269  0.6513 -0.9328 -1.1835
  158SAPE   H7S17623   3.009   6.254   7.346 -0.7638 -2.1652 -0.7326
  158SAPE   C2817624   3.066   6.414   7.221 -0.6382  0.0507  0.5265
  158SAPE   H8R17625   3.100   6.433   7.119 -0.2870 -2.2123  0.1611
  158SAPE   C2917626   3.035   6.525   7.294  0.1581  0.2693  0.5490
  158SAPE   H9R17627   3.059   6.625   7.253 -1.5055  1.3780  2.1027
  158SAPE  C21017628   2.981   6.524   7.435 -0.0781  0.5416 -0.1620
  158SAPE  H10R17629   2.874   6.492   7.432 -0.3908  1.5717 -1.5831
  158SAPE  H10S17630   2.990   6.632   7.460  2.9241  0.0499  1.2614
  158SAPE  C21117631   3.052   6.465   7.554  0.2191 -0.2431  0.2708
  158SAPE  H11R17632   3.138   6.401   7.529 -0.4462 -0.9808 -0.1887
  158SAPE  C21217633   3.023   6.485   7.679 -0.2054  0.4094  0.1016
  158SAPE  H12R17634   3.089   6.440   7.755 -0.2157  2.0652  1.1556
  158SAPE  C21317635   2.924   6.577   7.732 -0.4162 -0.7128 -0.7175
  158SAPE  H13R17636   2.869   6.616   7.644  1.5797  2.2176 -0.8463
  158SAPE  H13S17637   2.979   6.663   7.777  0.9702 -1.3927 -1.0436
  158SAPE  C21417638   2.831   6.509   7.824  0.0919  0.3220 -0.4354
  158SAPE  H14R17639   2.750   6.445   7.786  0.0353 -0.6353  1.2029
  158SAPE  C21517640   2.830   6.516   7.960  0.3782 -0.5864  0.0034
  158SAPE  H15R17641   2.757   6.452   8.012  0.0113  0.2935  0.5974
  158SAPE  C21617642   2.924   6.587   8.056 -0.3784  0.1361  0.2923
  158SAPE  H16R17643   2.867   6.630   8.141 -1.8216 -1.4396  0.1800
  158SAPE  H16S17644   2.981   6.665   8.003  1.5520 -2.2333 -1.3257
  158SAPE  C21717645   3.029   6.484   8.108 -0.4683  0.2958 -0.2618
  158SAPE  H17R17646   3.091   6.535   8.185 -0.4015 -2.5034  1.6901
  158SAPE  H17S17647   3.094   6.449   8.025  0.4712 -1.3618  1.0895
  158SAPE  C21817648   2.985   6.354   8.180  0.5282 -0.0921 -0.0123
  158SAPE  H18R17649   3.071   6.288   8.206  1.4482  1.6805  1.6566
  158SAPE  H18S17650   2.904   6.297   8.127 -0.6746  0.1399  1.5003
  158SAPE  C21917651   2.930   6.381   8.323  0.1589 -0.3800 -0.5618
  158SAPE  H19R17652   2.891   6.289   8.372 -3.4837  0.6039 -1.2753
  158SAPE  H19S17653   2.843   6.448   8.307  0.8050  0.4574 -0.6201
  158SAPE  C22017654   3.028   6.445   8.422 -0.3098  0.3882 -0.3993
  158SAPE  H20R17655   3.055   6.549   8.396 -2.0243  0.5469 -1.7414
  158SAPE  H20S17656   3.123   6.389   8.427 -0.8660 -0.4784  0.9454
  158SAPE  H20T17657   2.985   6.448   8.524  0.6863  0.2837  0.0331
  158SAPE   C3317658   3.226   5.642   6.705 -0.3086  0.1444  0.7024
  158SAPE   H3X17659   3.302   5.723   6.716  0.2336 -0.4669  1.5437
  158SAPE   H3Y17660   3.277   5.559   6.758  2.2233  1.5785  0.6758
  158SAPE   C3417661   3.114   5.697   6.790 -0.3710 -0.7326  0.2126
  158SAPE   H4X17662   3.013   5.661   6.761  0.0010  0.0320 -2.3105
  158SAPE   H4Y17663   3.101   5.802   6.756 -0.3493 -1.5996 -2.7525
  158SAPE   C3517664   3.120   5.663   6.935  0.4493 -0.6492 -0.2964
  158SAPE   H5X17665   3.223   5.678   6.973  1.2001  0.3048 -2.5744
  158SAPE   H5Y17666   3.109   5.553   6.929 -1.1839 -0.4314 -2.1319
  158SAPE   C3617667   3.008   5.725   7.018 -1.1321 -0.8049 -0.6191
  158SAPE   H6X17668   2.911   5.707   6.966 -0.9944 -0.8744 -0.8535
  158SAPE   H6Y17669   3.016   5.836   7.017  0.4209 -0.8280  1.5883
  158SAPE   C3717670   3.012   5.673   7.162  0.1340 -0.1081 -0.3642
  158SAPE   H7X17671   2.979   5.567   7.172 -1.8883  0.5085 -0.2130
  158SAPE   H7Y17672   3.121   5.677   7.185  0.3887  2.1827 -1.6112
  158SAPE   C3817673   2.921   5.754   7.259  0.1657  0.2861  0.1754
  158SAPE   H8X17674   2.814   5.764   7.231 -0.3406 -1.4877  1.3275
  158SAPE   H8Y17675   2.964   5.856   7.275  1.2421 -0.1888  0.4273
  158SAPE   C3917676   2.913   5.670   7.384  0.0609 -0.7149 -0.6479
  158SAPE   H9X17677   3.014   5.635   7.415 -0.5365 -1.0132  1.0908
  158SAPE   H9Y17678   2.853   5.581   7.356 -1.3615  0.5579 -1.7465
  158SAPE  C31017679   2.843   5.733   7.508 -0.5387  0.1678  0.1002
  158SAPE  H10X17680   2.920   5.798   7.555 -0.6733 -0.4143  1.1495
  158SAPE  H10Y17681   2.833   5.655   7.586  0.7547  0.3682  0.5038
  158SAPE  C31117682   2.714   5.798   7.460 -1.2057 -0.5738 -0.2719
  158SAPE  H11X17683   2.654   5.726   7.400 -1.9780  0.9149 -1.3621
  158SAPE  H11Y17684   2.738   5.889   7.402 -1.8178 -0.6568 -0.6695
  158SAPE  C31217685   2.630   5.849   7.581 -0.0309  0.0044  0.5938
  158SAPE  H12X17686   2.621   5.960   7.583 -0.4983 -0.0174  2.6549
  158SAPE  H12Y17687   2.684   5.837   7.678  0.9956  1.5748  0.2517
  158SAPE  C31317688   2.493   5.778   7.602  0.3973  0.0887  0.0694
  158SAPE  H13X17689   2.502   5.670   7.624 -2.8955 -0.4086 -0.4592
  158SAPE  H13Y17690   2.430   5.793   7.512 -2.2229 -1.9633  1.4090
  158SAPE  C31417691   2.409   5.823   7.728 -0.0980 -0.3288  0.2088
  158SAPE  H14X17692   2.316   5.764   7.726 -1.8255  2.2431 -0.0244
  158SAPE  H14Y17693   2.374   5.928   7.720  0.3336 -0.2286 -0.5252
  158SAPE  C31517694   2.478   5.789   7.861 -0.3852  0.0830 -0.5136
  158SAPE  H15X17695   2.565   5.858   7.867 -1.1859  1.0389  0.5458
  158SAPE  H15Y17696   2.530   5.691   7.846 -1.2555 -0.4508 -0.1153
  158SAPE  C31617697   2.387   5.795   7.984 -0.8578 -0.9190  0.1493
  158SAPE  H16X17698   2.334   5.698   7.972  0.7479 -1.5975 -2.5261
  158SAPE  H16Y17699   2.310   5.875   7.984 -2.0160 -2.0077  0.5397
  158SAPE  C31717700   2.460   5.806   8.117 -0.7148 -0.2855 -0.1524
  158SAPE  H17X17701   2.384   5.776   8.192 -1.4124  0.6266 -0.4835
  158SAPE  H17Y17702   2.489   5.910   8.142 -1.4739 -0.4033  1.3129
  158SAPE  C31817703   2.566   5.700   8.123  0.0109 -0.1483  0.0920
  158SAPE  H18X17704   2.521   5.606   8.086 -0.9305 -0.7356  2.5262
  158SAPE  H18Y17705   2.593   5.687   8.230  0.6152  0.4854  0.0230
  158SAPE  H18Z17706   2.659   5.724   8.066  0.6699 -2.6597  0.0123
  159SAPE     N17707   1.393   3.442   6.282 -0.1954  0.2526 -0.5920
  159SAPE   HN117708   1.444   3.532   6.271  0.7861 -0.1102  0.7399
  159SAPE   HN217709   1.360   3.430   6.380 -1.5786  0.2483 -1.0310
  159SAPE   HN317710   1.457   3.364   6.258  1.3875  1.7201 -1.4190
  159SAPE   C1217711   1.278   3.421   6.183 -0.0652  0.9927 -0.4771
  159SAPE  H12A17712   1.240   3.320   6.211  1.5225  0.4133 -0.3219
  159SAPE  H12B17713   1.316   3.433   6.080  1.3938  1.4999  0.0971
  159SAPE   C1117714   1.166   3.532   6.193 -0.2152 -1.0058  0.3423
  159SAPE  H11A17715   1.112   3.518   6.097 -0.6811  1.0363  0.2688
  159SAPE  H11B17716   1.196   3.638   6.190 -3.0892 -0.1254 -1.7107
  159SAPE     P17717   0.974   3.407   6.301  0.3460  0.1367  0.6040
  159SAPE   O1317718   0.845   3.477   6.296  0.1215  0.0497 -0.7002
  159SAPE   O1417719   1.000   3.316   6.189 -0.3315  0.7283 -0.3660
  159SAPE   O1217720   1.087   3.508   6.311  0.2011  0.2650 -0.2141
  159SAPE   O1117721   0.988   3.336   6.443 -0.1522 -0.2665  0.0286
  159SAPE    C117722   0.882   3.352   6.543 -0.8212  0.0520  0.6631
  159SAPE    HA17723   0.879   3.462   6.557 -0.0325  0.7906 -3.6679
  159SAPE    HB17724   0.782   3.335   6.499 -0.0325  0.6257 -1.4430
  159SAPE    C217725   0.913   3.280   6.680 -0.4165  0.1452  0.7920
  159SAPE    HS17726   1.023   3.294   6.689 -0.2002 -0.0008 -1.2298
  159SAPE   O2117727   0.873   3.144   6.681  0.2021  0.0712 -0.6552
  159SAPE   C2117728   0.944   3.064   6.766  0.0815  0.1175 -0.7957
  159SAPE   O2217729   1.052   3.098   6.816 -0.4584 -0.0920 -0.3974
  159SAPE   C2217730   0.872   2.929   6.790 -0.2417 -0.4434  0.4709
  159SAPE   H2R17731   0.780   2.950   6.849 -0.9328  1.1453 -1.0854
  159SAPE   H2S17732   0.848   2.892   6.688  2.0881 -1.5747  0.2581
  159SAPE    C317733   0.858   3.372   6.794  0.5461  0.9896  0.6653
  159SAPE    HX17734   0.748   3.376   6.786  0.5288  0.5291  0.6205
  159SAPE    HY17735   0.894   3.477   6.790  1.0131  0.8457  0.9969
  159SAPE   O3117736   0.886   3.319   6.925  0.1216 -0.7821 -0.4732
  159SAPE   C3117737   1.006   3.344   6.981  0.2452  0.2612  0.0582
  159SAPE   O3217738   1.087   3.421   6.932  0.4432  0.4882  0.4953
  159SAPE   C3217739   1.033   3.280   7.112  0.0476  0.1262  0.0344
  159SAPE   H2X17740   1.125   3.217   7.105 -0.1703 -0.3767  1.3260
  159SAPE   H2Y17741   0.950   3.208   7.132  1.7550 -1.8065  0.4758
  159SAPE   C2317742   0.972   2.832   6.849  0.2781  1.2033 -0.5564
  159SAPE   H3R17743   1.070   2.823   6.797  2.1792  0.3370  2.8538
  159SAPE   H3S17744   0.934   2.728   6.835 -0.4672  1.4788 -0.6076
  159SAPE   C2417745   0.986   2.845   6.997  0.1813 -0.5253  0.4455
  159SAPE   H4R17746   0.897   2.858   7.061 -0.5556  0.8884 -0.8040
  159SAPE   H4S17747   1.020   2.950   7.005  0.0832 -0.4933  0.4351
  159SAPE   C2517748   1.093   2.753   7.049  0.1957  0.2919 -0.6564
  159SAPE   H5R17749   1.106   2.649   7.017  5.6112  0.4067  0.1750
  159SAPE   C2617750   1.187   2.793   7.141  1.0291  0.2193 -0.8742
  159SAPE   H6R17751   1.261   2.720   7.178  0.4403  1.4533  3.1974
  159SAPE   C2717752   1.214   2.927   7.200  0.2571 -0.1737  0.2149
  159SAPE   H7R17753   1.196   3.003   7.121  2.2499 -0.6017 -0.7052
  159SAPE   H7S17754   1.321   2.926   7.232 -0.2811 -2.3595  2.2295
  159SAPE   C2817755   1.119   2.955   7.312  0.5049  0.2334 -0.1443
  159SAPE   H8R17756   1.019   2.988   7.281  0.6148  1.4983  0.7872
  159SAPE   C2917757   1.143   2.929   7.444 -0.5745  0.4785 -0.3743
  159SAPE   H9R17758   1.058   2.931   7.514 -0.3898 -0.8961 -0.0962
  159SAPE  C21017759   1.271   2.875   7.509  0.6872  0.1207 -0.5901
  159SAPE  H10R17760   1.333   2.964   7.532  1.5384 -0.8835  1.2020
  159SAPE  H10S17761   1.323   2.801   7.444  1.3295  0.4085 -0.4116
  159SAPE  C21117762   1.244   2.802   7.639  0.6121 -0.4365  0.0753
  159SAPE  H11R17763   1.248   2.693   7.628  1.2704 -0.3854 -0.2849
  159SAPE  C21217764   1.222   2.861   7.756 -0.1862  0.3692 -0.6282
  159SAPE  H12R17765   1.188   2.787   7.830  2.0983  1.0025  1.1559
  159SAPE  C21317766   1.221   3.005   7.813 -0.0113 -0.2402 -0.3502
  159SAPE  H13R17767   1.201   3.079   7.733 -0.3933  0.0952  0.0498
  159SAPE  H13S17768   1.317   3.035   7.861 -0.2932  0.4298 -0.1966
  159SAPE  C21417769   1.105   3.020   7.910 -0.1491 -0.4678 -0.6530
  159SAPE  H14R17770   1.007   3.033   7.862 -0.9618 -2.9739  0.2123
  159SAPE  C21517771   1.119   3.006   8.043 -0.2417  0.2546 -0.6636
  159SAPE  H15R17772   1.039   3.042   8.110 -0.7775 -1.8003 -0.1358
  159SAPE  C21617773   1.245   2.963   8.113  0.1505  0.3515  0.0456
  159SAPE  H16R17774   1.312   3.052   8.118 -0.7588  1.1869 -1.6861
  159SAPE  H16S17775   1.303   2.886   8.057 -3.7867 -2.0931 -1.0322
  159SAPE  C21717776   1.226   2.910   8.257 -0.4347 -0.5296  0.2418
  159SAPE  H17R17777   1.331   2.891   8.289 -0.6923 -0.1686  1.3282
  159SAPE  H17S17778   1.169   2.815   8.255 -1.0198 -0.1692 -0.7163
  159SAPE  C21817779   1.167   3.020   8.353 -0.3860  0.0018  0.4754
  159SAPE  H18R17780   1.056   3.028   8.344 -0.2236  0.4414 -1.7649
  159SAPE  H18S17781   1.210   3.120   8.332  0.6309 -1.1082 -3.8166
  159SAPE  C21917782   1.199   2.977   8.499  0.0442 -0.0702  0.6354
  159SAPE  H19R17783   1.307   2.956   8.509  0.2138 -0.6940 -1.8897
  159SAPE  H19S17784   1.157   2.877   8.522 -0.6852  0.4682  1.7511
  159SAPE  C22017785   1.146   3.074   8.604 -0.5381  0.1856  0.0010
  159SAPE  H20R17786   1.159   3.177   8.566  2.8789  0.3167  1.1724
  159SAPE  H20S17787   1.205   3.073   8.698 -1.1660 -0.8932  0.4046
  159SAPE  H20T17788   1.038   3.067   8.629 -0.7940  1.4142 -0.6927
  159SAPE   C3317789   1.044   3.378   7.230  0.6455 -0.1158 -1.0048
  159SAPE   H3X17790   0.948   3.431   7.249  1.7651  1.2365  1.3344
  159SAPE   H3Y17791   1.121   3.454   7.207  2.3022 -0.8904  1.5334
  159SAPE   C3417792   1.094   3.314   7.361 -0.3027 -0.1837 -0.2611
  159SAPE   H4X17793   1.201   3.286   7.363  0.0627  1.1419 -0.2123
  159SAPE   H4Y17794   1.045   3.220   7.394  1.3614 -1.4810 -1.3201
  159SAPE   C3517795   1.088   3.425   7.472  0.6467 -0.6712 -0.5284
  159SAPE   H5X17796   0.988   3.472   7.482  1.9828  2.3186  0.2978
  159SAPE   H5Y17797   1.157   3.511   7.456 -1.1319  1.3458  1.9070
  159SAPE   C3617798   1.116   3.366   7.615 -0.3543 -0.3719 -0.1444
  159SAPE   H6X17799   1.208   3.304   7.623  0.1965  0.5207  0.7223
  159SAPE   H6Y17800   1.029   3.303   7.643  0.1548 -1.6932 -1.4447
  159SAPE   C3717801   1.102   3.475   7.736 -0.6135  0.2561 -0.1497
  159SAPE   H7X17802   0.997   3.511   7.736  0.0160  2.3987 -2.8356
  159SAPE   H7Y17803   1.158   3.564   7.700 -0.6830  0.8481  1.1206
  159SAPE   C3817804   1.151   3.424   7.874  0.6942  0.2865  0.3822
  159SAPE   H8X17805   1.258   3.399   7.860  0.3235 -0.4609 -1.4745
  159SAPE   H8Y17806   1.090   3.330   7.879  1.9477 -0.4767  2.5187
  159SAPE   C3917807   1.126   3.517   7.990 -0.3056  0.1036 -0.4681
  159SAPE   H9X17808   1.021   3.536   8.021 -0.4836  1.7619 -1.9308
  159SAPE   H9Y17809   1.165   3.618   7.966 -3.1149  1.3930 -0.0566
  159SAPE  C31017810   1.202   3.459   8.108 -0.1719 -0.8280  0.0811
  159SAPE  H10X17811   1.312   3.444   8.099  0.1911  1.5776 -0.2554
  159SAPE  H10Y17812   1.159   3.363   8.141  0.8161 -1.1357  0.5177
  159SAPE  C31117813   1.206   3.563   8.227 -0.3391  0.4569 -0.1292
  159SAPE  H11X17814   1.120   3.634   8.224 -0.8513 -0.1118  0.5735
  159SAPE  H11Y17815   1.300   3.621   8.233 -0.3685  0.7628 -1.9511
  159SAPE  C31217816   1.198   3.494   8.362 -0.4964  0.4579 -0.1501
  159SAPE  H12X17817   1.295   3.442   8.371  0.2043  0.9243 -3.7107
  159SAPE  H12Y17818   1.105   3.433   8.371 -1.1401  1.2355 -1.3210
  159SAPE  C31317819   1.198   3.589   8.478 -0.1415 -0.8800  0.7904
  159SAPE  H13X17820   1.093   3.625   8.483 -1.3036 -4.0195  0.9659
  159SAPE  H13Y17821   1.267   3.671   8.450 -2.4518  0.9472  0.0393
  159SAPE  C31417822   1.227   3.530   8.613  0.5216  0.3069  0.4526
  159SAPE  H14X17823   1.254   3.600   8.695  1.3093 -0.2495  0.6853
  159SAPE  H14Y17824   1.307   3.453   8.609 -1.1507 -1.6400  1.9112
  159SAPE  C31517825   1.105   3.455   8.667 -0.0335 -0.2934 -0.4874
  159SAPE  H15X17826   1.081   3.371   8.599  0.7853 -0.9201 -0.0234
  159SAPE  H15Y17827   1.019   3.526   8.669 -0.1761 -0.4455  2.1009
  159SAPE  C31617828   1.121   3.404   8.811 -0.1109 -0.5313 -0.2354
  159SAPE  H16X17829   1.151   3.491   8.874 -0.9674  0.3642 -1.0315
  159SAPE  H16Y17830   1.213   3.342   8.816  2.0603  2.4431 -0.0651
  159SAPE  C31717831   1.005   3.321   8.865 -0.1207 -0.4408 -0.5407
  159SAPE  H17X17832   0.966   3.263   8.779  1.3661  1.3529 -2.5244
  159SAPE  H17Y17833   0.921   3.384   8.901 -1.2824 -3.3910  2.4516
  159SAPE  C31817834   1.049   3.226   8.969  0.8758 -0.1021 -0.3920
  159SAPE  H18X17835   1.138   3.250   9.033  0.2802 -1.1387  0.8885
  159SAPE  H18Y17836   1.075   3.131   8.917  1.7823 -0.2248  0.2393
  159SAPE  H18Z17837   0.961   3.211   9.035  1.0824 -1.6419 -0.4303
  160SAPE     N17838   3.003   0.442   6.444  0.4447 -0.2048  0.2410
  160SAPE   HN117839   2.982   0.456   6.343 -0.1776 -0.0794  0.3803
  160SAPE   HN217840   2.991   0.532   6.496 -1.7524  0.6702 -1.5769
  160SAPE   HN317841   3.099   0.402   6.448  0.6874  0.3590  0.1737
  160SAPE   C1217842   2.893   0.344   6.485  0.0946 -0.4739  0.3846
  160SAPE  H12A17843   2.885   0.360   6.594  0.4153 -0.7095  0.4475
  160SAPE  H12B17844   2.924   0.239   6.464 -1.8238 -0.5608 -2.7230
  160SAPE   C1117845   2.765   0.365   6.402  0.1701 -0.0484 -0.6393
  160SAPE  H11A17846   2.685   0.297   6.439 -0.0854 -1.0400 -2.8606
  160SAPE  H11B17847   2.778   0.337   6.295  2.1723 -2.8535  0.2321
  160SAPE     P17848   2.585   0.559   6.424  0.1484  0.0115 -0.0123
  160SAPE   O1317849   2.599   0.703   6.449 -0.2155 -0.5618 -0.4119
  160SAPE   O1417850   2.523   0.510   6.298 -0.4657  0.0312  0.6743
  160SAPE   O1217851   2.731   0.503   6.414 -0.1537  0.2523  0.1670
  160SAPE   O1117852   2.519   0.483   6.549  0.2133 -0.4563 -0.3320
  160SAPE    C117853   2.416   0.387   6.541  0.1226 -0.2010 -0.2428
  160SAPE    HA17854   2.384   0.367   6.437 -0.7168 -0.0967 -0.0123
  160SAPE    HB17855   2.454   0.290   6.580  1.9485  0.4227 -0.3724
  160SAPE    C217856   2.283   0.421   6.614  0.0462  0.4055  0.1760
  160SAPE    HS17857   2.254   0.528   6.611 -0.3664  0.2749 -2.6255
  160SAPE   O2117858   2.310   0.385   6.754  0.2365 -0.0864 -0.0210
  160SAPE   C2117859   2.210   0.413   6.837  0.9630 -0.7840 -0.0232
  160SAPE   O2217860   2.122   0.496   6.814  0.1688 -0.2251  0.2091
  160SAPE   C2217861   2.238   0.324   6.961  0.5224 -0.1744  0.1759
  160SAPE   H2R17862   2.261   0.225   6.916  0.4409  0.8507 -2.3200
  160SAPE   H2S17863   2.327   0.372   7.006  1.1539 -0.8497 -0.3252
  160SAPE    C317864   2.170   0.345   6.551 -0.6101  0.2270 -0.1004
  160SAPE    HX17865   2.170   0.387   6.448  0.8331 -0.7081 -0.5213
  160SAPE    HY17866   2.077   0.371   6.605 -0.7723 -0.2400 -0.1494
  160SAPE   O3117867   2.198   0.202   6.533  0.2093 -0.0529 -0.2081
  160SAPE   C3117868   2.151   0.117   6.624 -0.0515  0.0434  0.0420
  160SAPE   O3217869   2.055   0.128   6.694  0.3377  0.0497 -0.3231
  160SAPE   C3217870   2.223  -0.014   6.604  0.2921  0.9349  0.1565
  160SAPE   H2X17871   2.333  -0.017   6.616  0.0734 -0.1751  2.3521
  160SAPE   H2Y17872   2.200  -0.061   6.506  2.0815  0.8714 -0.2675
  160SAPE   C2317873   2.120   0.318   7.064  0.0885 -0.0326 -0.1902
  160SAPE   H3R17874   2.149   0.250   7.147  0.4463 -0.9448 -1.0414
  160SAPE   H3S17875   2.026   0.289   7.014  1.1533 -0.3017 -2.1204
  160SAPE   C2417876   2.102   0.453   7.145  0.4451  0.7105 -0.4411
  160SAPE   H4R17877   2.012   0.432   7.207 -0.3113 -0.2164 -1.8078
  160SAPE   H4S17878   2.060   0.529   7.076 -1.8076 -1.1056 -1.1782
  160SAPE   C2517879   2.208   0.504   7.233 -0.9017 -0.0658  0.2604
  160SAPE   H5R17880   2.299   0.527   7.174  0.7682 -1.8728  1.9731
  160SAPE   C2617881   2.208   0.531   7.369 -0.7366 -0.4852  0.0255
  160SAPE   H6R17882   2.299   0.574   7.413 -0.6592 -1.5776  0.9866
  160SAPE   C2717883   2.096   0.522   7.467  0.1779  0.1851 -0.3520
  160SAPE   H7R17884   2.014   0.458   7.429 -0.1604 -0.8639  1.9941
  160SAPE   H7S17885   2.049   0.622   7.480 -1.6114 -0.6699  0.0983
  160SAPE   C2817886   2.158   0.466   7.592  0.3769 -0.4792 -0.3942
  160SAPE   H8R17887   2.193   0.362   7.595  2.1256  0.0859  0.7441
  160SAPE   C2917888   2.176   0.537   7.707  0.3693 -0.3303  0.8143
  160SAPE   H9R17889   2.240   0.502   7.789 -0.2561  1.9262  2.3810
  160SAPE  C21017890   2.141   0.685   7.748  0.1145  0.3408  0.1208
  160SAPE  H10R17891   2.071   0.675   7.834 -1.0613 -2.4712 -1.0279
  160SAPE  H10S17892   2.088   0.729   7.661  3.9817 -1.0072 -3.2492
  160SAPE  C21117893   2.266   0.762   7.777  0.0906  0.0013 -0.2837
  160SAPE  H11R17894   2.294   0.823   7.690  3.3630  2.3884  2.1791
  160SAPE  C21217895   2.341   0.757   7.889 -0.2627 -0.5921 -0.5617
  160SAPE  H12R17896   2.434   0.814   7.881  0.5688 -1.8933 -0.4324
  160SAPE  C21317897   2.308   0.677   8.012  0.0940  0.7340 -0.2626
  160SAPE  H13R17898   2.243   0.592   7.981  0.9475  0.3568 -1.0415
  160SAPE  H13S17899   2.244   0.732   8.084 -0.3332 -1.3975  1.0716
  160SAPE  C21417900   2.436   0.636   8.086 -0.1656 -0.8945  0.0290
  160SAPE  H14R17901   2.522   0.633   8.016  0.5985 -0.5413  0.9261
  160SAPE  C21517902   2.459   0.613   8.217  0.6877 -0.2958  0.6542
  160SAPE  H15R17903   2.562   0.585   8.243  1.2254  1.6693  0.7782
  160SAPE  C21617904   2.355   0.601   8.322  0.3441  0.5464  0.4371
  160SAPE  H16R17905   2.253   0.602   8.279 -0.4009  0.8430  2.1349
  160SAPE  H16S17906   2.359   0.696   8.380  1.3951  2.0181 -1.8812
  160SAPE  C21717907   2.372   0.473   8.410 -0.0530 -0.2072 -0.1305
  160SAPE  H17R17908   2.325   0.500   8.507 -1.4497  0.2086 -0.9039
  160SAPE  H17S17909   2.479   0.459   8.436 -0.5747 -0.8282  1.8683
  160SAPE  C21817910   2.321   0.344   8.349 -0.7139 -0.0632  0.0158
  160SAPE  H18R17911   2.383   0.288   8.276 -1.5392 -0.9490 -0.0428
  160SAPE  H18S17912   2.236   0.365   8.280  0.6319 -0.2564 -1.7665
  160SAPE  C21917913   2.277   0.234   8.452  0.1198  0.7148 -0.0359
  160SAPE  H19R17914   2.227   0.154   8.394  3.6834 -2.2219  0.5972
  160SAPE  H19S17915   2.202   0.278   8.520 -1.1390 -0.1591 -0.8211
  160SAPE  C22017916   2.403   0.169   8.521 -0.4479  0.0909 -0.4953
  160SAPE  H20R17917   2.363   0.075   8.564 -1.0529  1.0447  1.1331
  160SAPE  H20S17918   2.428   0.236   8.606 -3.0501  0.6854 -0.0943
  160SAPE  H20T17919   2.491   0.152   8.455  3.1023  0.5344  3.6537
  160SAPE   C3317920   2.179  -0.117   6.709  0.5985 -0.0572  0.5063
  160SAPE   H3X17921   2.068  -0.121   6.716  0.5784 -0.2653  0.0491
  160SAPE   H3Y17922   2.215  -0.077   6.806 -1.2362  1.9679  0.4304
  160SAPE   C3417923   2.248  -0.251   6.696 -0.2472  0.2675 -0.8781
  160SAPE   H4X17924   2.357  -0.237   6.681 -0.0114  0.5665  0.8959
  160SAPE   H4Y17925   2.212  -0.304   6.606 -2.5725  0.6690 -0.2528
  160SAPE   C3517926   2.232  -0.348   6.815  0.0927  0.3133 -0.3671
  160SAPE   H5X17927   2.178  -0.441   6.787  1.8028 -0.1131 -2.5115
  160SAPE   H5Y17928   2.177  -0.296   6.896  0.3007 -3.1414  2.2430
  160SAPE   C3617929   2.367  -0.391   6.877 -0.2870 -0.3644 -0.2478
  160SAPE   H6X17930   2.434  -0.303   6.867 -0.1529 -0.5799 -1.3769
  160SAPE   H6Y17931   2.398  -0.476   6.813 -0.7577 -1.0558  0.4225
  160SAPE   C3717932   2.363  -0.428   7.025  0.0325 -0.3608  0.2910
  160SAPE   H7X17933   2.308  -0.524   7.037  0.6163 -1.0983 -2.3689
  160SAPE   H7Y17934   2.316  -0.355   7.093 -0.4774 -0.8063  0.4229
  160SAPE   C3817935   2.504  -0.451   7.077 -0.0951 -0.2564 -0.9362
  160SAPE   H8X17936   2.566  -0.360   7.078  0.8657 -0.9015 -0.1227
  160SAPE   H8Y17937   2.559  -0.523   7.012  0.6324 -2.1868  1.6324
  160SAPE   C3917938   2.508  -0.515   7.219  0.2311 -0.5323  0.2382
  160SAPE   H9X17939   2.475  -0.620   7.203  1.2459 -0.6961 -0.9217
  160SAPE   H9Y17940   2.434  -0.465   7.286 -0.1330  0.7908 -1.0905
  160SAPE  C31017941   2.649  -0.506   7.290 -0.1905  0.0940 -0.8600
  160SAPE  H10X17942   2.669  -0.400   7.313  0.8839  0.2214 -2.2741
  160SAPE  H10Y17943   2.733  -0.542   7.227 -0.1234 -3.0740  0.8272
  160SAPE  C31117944   2.653  -0.588   7.424 -0.1325 -0.6730 -0.2833
  160SAPE  H11X17945   2.760  -0.612   7.440  0.6057  1.5908 -1.2960
  160SAPE  H11Y17946   2.611  -0.688   7.402  1.7355 -2.6800  4.1290
  160SAPE  C31217947   2.603  -0.508   7.538  0.3225  0.5646  0.1213
  160SAPE  H12X17948   2.543  -0.427   7.491 -0.2855  0.4369  0.6610
  160SAPE  H12Y17949   2.679  -0.447   7.591 -0.4571  1.3842  0.3093
  160SAPE  C31317950   2.527  -0.597   7.640  0.0192  0.3349 -0.9171
  160SAPE  H13X17951   2.592  -0.668   7.695 -0.4641  1.1346  0.7462
  160SAPE  H13Y17952   2.454  -0.656   7.581 -1.1377 -1.4637  2.1187
  160SAPE  C31417953   2.457  -0.517   7.747  0.6169  0.2609 -0.2860
  160SAPE  H14X17954   2.378  -0.450   7.707 -0.8709  0.4222  2.6672
  160SAPE  H14Y17955   2.516  -0.438   7.800 -0.8840  1.2405  0.0081
  160SAPE  C31517956   2.396  -0.609   7.858 -0.4938 -0.1992  0.5992
  160SAPE  H15X17957   2.347  -0.688   7.798  2.0324 -1.5495  0.1636
  160SAPE  H15Y17958   2.321  -0.546   7.910 -2.4352 -0.3202 -1.8967
  160SAPE  C31617959   2.485  -0.676   7.963  1.4199 -0.7051 -0.5663
  160SAPE  H16X17960   2.555  -0.754   7.927  0.6547 -1.0313 -1.3751
  160SAPE  H16Y17961   2.408  -0.725   8.025  0.8244  1.3331  0.3937
  160SAPE  C31717962   2.558  -0.578   8.054  0.1648  0.4270  0.0423
  160SAPE  H17X17963   2.487  -0.497   8.081 -0.2522 -0.0158  0.2982
  160SAPE  H17Y17964   2.642  -0.530   7.999  1.5006  0.1331  1.7261
  160SAPE  C31817965   2.613  -0.651   8.184  0.0161  0.4564  0.3652
  160SAPE  H18X17966   2.545  -0.719   8.239  1.1696 -0.1399  1.0787
  160SAPE  H18Y17967   2.655  -0.578   8.257  1.0732  1.4904 -1.1861
  160SAPE  H18Z17968   2.704  -0.710   8.162  0.4669  1.0868  0.4965
  161SOPE     N17969   1.801   4.539  10.636 -0.7130 -0.5015 -0.8452
  161SOPE   HN117970   1.760   4.618  10.690  1.3290 -0.9524  1.5278
  161SOPE   HN217971   1.884   4.508  10.690  1.3137  1.5187 -2.6330
  161SOPE   HN317972   1.823   4.574  10.541  4.2391  1.2110  0.6416
  161SOPE   C1217973   1.689   4.440  10.636 -0.0758 -0.2038 -0.7803
  161SOPE  H12A17974   1.676   4.402  10.740  0.7405  0.6077 -0.3704
  161SOPE  H12B17975   1.729   4.362  10.568  1.0034  1.8601 -2.6270
  161SOPE   C1117976   1.553   4.490  10.582  0.3916  0.2318  0.4478
  161SOPE  H11A17977   1.483   4.404  10.597  0.2130  0.5494  1.5135
  161SOPE  H11B17978   1.541   4.505  10.473  0.7212 -1.5512  0.1294
  161SOPE     P17979   1.360   4.622  10.686 -0.1641 -0.0429 -0.1001
  161SOPE   O1317980   1.339   4.756  10.750 -0.0488 -0.7290  0.9982
  161SOPE   O1417981   1.326   4.506  10.774 -0.0461 -0.3360  0.3675
  161SOPE   O1217982   1.509   4.601  10.656  0.5394  0.8693 -0.1346
  161SOPE   O1117983   1.289   4.613  10.552 -0.2309  0.1213  0.1021
  161SOPE    C117984   1.203   4.505  10.510  0.0676 -0.9614 -0.1899
  161SOPE    HA17985   1.101   4.528  10.549  0.4427  2.6163 -0.9304
  161SOPE    HB17986   1.236   4.403  10.540 -1.7209 -1.0485  1.7437
  161SOPE    C217987   1.177   4.505  10.352  0.1947  0.1529  0.9704
  161SOPE    HS17988   1.113   4.417  10.328  1.9188 -0.5999 -1.2197
  161SOPE   O2117989   1.308   4.483  10.282  0.5047  0.0777 -0.6946
  161SOPE   C2117990   1.361   4.360  10.289  0.4840  0.4160 -0.2216
  161SOPE   O2217991   1.302   4.261  10.334  0.4302  0.2037 -0.3328
  161SOPE   C2217992   1.495   4.353  10.224 -0.9762 -0.7469  0.4042
  161SOPE   H2R17993   1.573   4.348  10.303  0.9018  1.5343 -1.1781
  161SOPE   H2S17994   1.517   4.448  10.171 -0.2398 -0.0953  1.8159
  161SOPE    C317995   1.113   4.644  10.309 -0.2256  0.0943  0.3932
  161SOPE    HX17996   1.181   4.722  10.351 -0.2307  0.1287  0.3379
  161SOPE    HY17997   1.011   4.660  10.350 -1.3163  1.3630 -2.5540
  161SOPE   O3117998   1.120   4.666  10.165  0.3704 -0.1488 -0.1778
  161SOPE   C3117999   1.018   4.617  10.094 -0.3735 -0.5162 -0.0724
  161SOPE   O3218000   0.907   4.579  10.134 -0.0481  0.4088 -0.3107
  161SOPE   C3218001   1.072   4.612   9.956  0.1519 -0.4008  0.4254
  161SOPE   H2X18002   1.110   4.509   9.943  1.3002 -0.1289  1.4137
  161SOPE   H2Y18003   1.167   4.667   9.939  1.2334 -2.6083 -1.1169
  161SOPE   C2318004   1.507   4.236  10.129  0.9047  0.3930  1.3840
  161SOPE   H3R18005   1.453   4.149  10.173 -0.2366 -0.4960 -1.5791
  161SOPE   H3S18006   1.612   4.200  10.122  0.6709 -0.3017  1.3905
  161SOPE   C2418007   1.457   4.276   9.989  0.2815  0.1815 -0.2773
  161SOPE   H4R18008   1.353   4.314   9.997  0.4323  0.7352 -0.8125
  161SOPE   H4S18009   1.516   4.358   9.942  0.4036 -0.8297 -1.9638
  161SOPE   C2518010   1.460   4.163   9.879 -0.0995  0.7306  0.3752
  161SOPE   H5R18011   1.563   4.130   9.852  0.6885  3.0519  0.2909
  161SOPE   H5S18012   1.415   4.068   9.914  0.6826  0.4952  0.7670
  161SOPE   C2618013   1.390   4.212   9.750 -0.0225 -0.8480  0.8473
  161SOPE   H6R18014   1.343   4.124   9.701  1.5730 -1.4799  0.3985
  161SOPE   H6S18015   1.315   4.288   9.780  1.4205  0.9185  0.1743
  161SOPE   C2718016   1.482   4.280   9.654 -0.5757  0.6860  0.1176
  161SOPE   H7R18017   1.430   4.353   9.588  1.6072 -0.6897 -3.3673
  161SOPE   H7S18018   1.554   4.337   9.715  0.9203 -1.6632  0.6745
  161SOPE   C2818019   1.574   4.188   9.563 -0.1154  0.5614  0.2042
  161SOPE   H8R18020   1.657   4.246   9.516 -2.3349  2.6473 -1.3953
  161SOPE   H8S18021   1.625   4.125   9.639  1.2795  0.3846 -0.8320
  161SOPE   C2918022   1.496   4.105   9.468 -0.4866 -0.4706  0.0195
  161SOPE   H9118023   1.403   4.071   9.517  0.2396 -1.1441  0.9731
  161SOPE  C21018024   1.510   4.086   9.338  0.2933  0.0623  0.2507
  161SOPE  H10118025   1.446   4.009   9.292  0.4378  0.5096 -0.7010
  161SOPE  C21118026   1.604   4.160   9.253  0.3350 -0.0694  0.2272
  161SOPE  H11R18027   1.681   4.221   9.304  1.1970 -1.5742  0.7878
  161SOPE  H11S18028   1.547   4.230   9.188  0.0944 -0.3819  0.0990
  161SOPE  C21218029   1.684   4.051   9.167  0.8857 -0.5709  0.3899
  161SOPE  H12R18030   1.601   4.008   9.107 -1.0447 -0.1167  2.5894
  161SOPE  H12S18031   1.730   3.975   9.234  0.9475 -0.1447  0.8381
  161SOPE  C21318032   1.788   4.120   9.075 -0.1572  0.9415  0.1816
  161SOPE  H13R18033   1.824   4.037   9.010 -2.7002 -0.2264  0.1274
  161SOPE  H13S18034   1.868   4.168   9.135  1.1527  0.2773 -1.0021
  161SOPE  C21418035   1.737   4.225   8.981 -0.0603  0.4316 -0.0383
  161SOPE  H14R18036   1.670   4.301   9.027 -1.7390  0.4491 -2.3266
  161SOPE  H14S18037   1.676   4.169   8.907 -0.4207 -0.5935  0.9927
  161SOPE  C21518038   1.852   4.290   8.913 -0.7470  0.4263  0.4408
  161SOPE  H15R18039   1.917   4.331   8.993  2.2500 -1.0791 -1.0399
  161SOPE  H15S18040   1.810   4.371   8.850  0.5608 -0.1002 -1.1971
  161SOPE  C21618041   1.941   4.202   8.811 -0.5190 -0.4418 -0.1781
  161SOPE  H16R18042   1.994   4.121   8.865  2.2263 -0.0019 -2.0081
  161SOPE  H16S18043   2.026   4.271   8.790  0.7740 -1.8554  0.2421
  161SOPE  C21718044   1.856   4.163   8.695  0.1816 -0.5990  0.0145
  161SOPE  H17R18045   1.779   4.240   8.673 -1.1505 -2.5988 -2.9477
  161SOPE  H17S18046   1.788   4.078   8.716  0.2333 -0.5033  0.5818
  161SOPE  C21818047   1.930   4.128   8.566 -0.0317  0.4003 -0.2887
  161SOPE  H18R18048   1.987   4.217   8.532 -0.6753  0.3738 -1.5104
  161SOPE  H18S18049   1.864   4.103   8.480 -2.7547 -2.3116  2.3311
  161SOPE  H18T18050   2.004   4.048   8.584  0.6288  1.5909  2.9442
  161SOPE   C3318051   0.966   4.644   9.849  0.0524 -0.1144 -0.6264
  161SOPE   H3X18052   0.926   4.748   9.852 -0.0216 -0.1343 -0.9374
  161SOPE   H3Y18053   0.875   4.580   9.854  0.4185 -0.5608  1.6412
  161SOPE   C3418054   1.006   4.626   9.700 -0.4184 -0.8419  0.2198
  161SOPE   H4X18055   0.916   4.637   9.637 -0.3189 -0.0764  0.1920
  161SOPE   H4Y18056   1.054   4.528   9.681  1.0726  0.1276 -1.3144
  161SOPE   C3518057   1.105   4.735   9.641 -0.3408  0.0353 -0.0917
  161SOPE   H5X18058   1.206   4.721   9.685 -0.4916  0.2997  0.3504
  161SOPE   H5Y18059   1.057   4.831   9.670 -0.4300  0.3268 -1.1664
  161SOPE   C3618060   1.126   4.720   9.491 -0.7720  0.4416 -0.1188
  161SOPE   H6X18061   1.151   4.613   9.473 -0.5177  0.2917  1.0606
  161SOPE   H6Y18062   1.220   4.770   9.458  0.5519 -1.5256  0.4674
  161SOPE   C3718063   1.011   4.766   9.397  0.1606  0.5476 -0.1832
  161SOPE   H7X18064   0.985   4.869   9.430  0.1097 -0.0210  1.6192
  161SOPE   H7Y18065   0.921   4.709   9.427  0.4548  0.6972  1.0034
  161SOPE   C3818066   1.033   4.751   9.243 -0.4086  0.3969 -0.6457
  161SOPE   H8X18067   1.123   4.685   9.243 -0.3798  0.3197  1.9627
  161SOPE   H8Y18068   1.061   4.845   9.192  0.2083 -0.3780 -1.8031
  161SOPE   C3918069   0.927   4.678   9.167  0.2418  0.5041 -0.0182
  161SOPE   H9X18070   0.887   4.588   9.219  0.7415  1.0390  1.3104
  161SOPE   H9Y18071   0.977   4.649   9.072 -0.9425  1.1656 -0.8729
  161SOPE  C31018072   0.807   4.766   9.127 -0.2484 -1.4403 -0.1352
  161SOPE  H10X18073   0.839   4.858   9.074 -0.6954 -1.7456 -0.9637
  161SOPE  H10Y18074   0.746   4.792   9.216  0.5536  0.0199  0.0163
  161SOPE  C31118075   0.708   4.703   9.031  0.5924  0.4384  0.2758
  161SOPE  H11X18076   0.618   4.759   8.999  0.6119  1.1189  1.3642
  161SOPE  H11Y18077   0.675   4.603   9.067 -0.9912 -0.3896 -3.0737
  161SOPE  C31218078   0.767   4.663   8.889 -0.3012  0.6730  0.2639
  161SOPE  H12X18079   0.862   4.611   8.912  0.5099  2.4321  1.0711
  161SOPE  H12Y18080   0.791   4.761   8.843  3.6373 -0.8325 -1.2814
  161SOPE  C31318081   0.673   4.571   8.806  0.7649  0.3769 -0.5069
  161SOPE  H13X18082   0.573   4.620   8.806  0.9785  0.8249  0.0340
  161SOPE  H13Y18083   0.657   4.468   8.843  0.0899  0.5683 -0.2365
  161SOPE  C31418084   0.732   4.559   8.666  0.3088  0.0258  0.1257
  161SOPE  H14X18085   0.668   4.487   8.609  1.0644  0.4135 -1.2652
  161SOPE  H14Y18086   0.829   4.506   8.678  0.0505 -0.4241  0.2428
  161SOPE  C31518087   0.747   4.687   8.586 -0.9152 -0.1214  0.2493
  161SOPE  H15X18088   0.815   4.757   8.639 -0.8727 -0.2972  0.4300
  161SOPE  H15Y18089   0.650   4.741   8.579 -1.3981 -1.0213 -0.3184
  161SOPE  C31618090   0.798   4.663   8.443  0.6181 -0.2412 -0.2189
  161SOPE  H16X18091   0.733   4.583   8.404 -1.4232  0.8965  0.6842
  161SOPE  H16Y18092   0.907   4.642   8.443  1.2936  2.8138  0.1266
  161SOPE  C31718093   0.773   4.777   8.345 -0.3067 -0.0913 -0.3603
  161SOPE  H17X18094   0.796   4.875   8.393 -1.2446 -0.9594  2.0349
  161SOPE  H17Y18095   0.663   4.780   8.334 -0.5071  0.0231  1.3540
  161SOPE  C31818096   0.844   4.764   8.209  0.2142 -0.4688 -0.0561
  161SOPE  H18X18097   0.810   4.672   8.155  0.6034 -0.4867 -0.2748
  161SOPE  H18Y18098   0.954   4.774   8.220  0.0606 -1.3232  2.9927
  161SOPE  H18Z18099   0.796   4.847   8.153 -1.8193 -2.3303 -1.2331
  162SOPE     N18100   0.041   5.298  10.790  1.0113 -0.0527 -0.6742
  162SOPE   HN118101   0.069   5.230  10.864  0.3175  0.6817  0.3025
  162SOPE   HN218102   0.117   5.292  10.721  0.9161 -0.2381 -0.7633
  162SOPE   HN318103   0.034   5.395  10.827  0.1326 -0.4759  0.3430
  162SOPE   C1218104  -0.092   5.250  10.734  0.1388 -0.2272  1.1237
  162SOPE  H12A18105  -0.079   5.291  10.631  1.5449 -0.8854  1.0203
  162SOPE  H12B18106  -0.177   5.307  10.777 -1.5692  0.4154 -2.6641
  162SOPE   C1118107  -0.090   5.097  10.726 -0.2982 -0.2149 -0.0510
  162SOPE  H11A18108  -0.023   5.064  10.644 -0.2393  0.3892 -0.2532
  162SOPE  H11B18109  -0.192   5.066  10.695 -0.7800  0.0557  1.2014
  162SOPE     P18110  -0.152   5.031  10.972 -0.1460 -0.3869 -0.0415
  162SOPE   O1318111  -0.181   5.170  11.003  0.0298  0.5700  0.5822
  162SOPE   O1418112  -0.095   4.950  11.078 -0.5249 -0.1430  0.4484
  162SOPE   O1218113  -0.052   5.032  10.848 -0.4484 -0.1666 -0.2665
  162SOPE   O1118114  -0.284   4.970  10.907  0.1449  0.1070 -0.4816
  162SOPE    C118115  -0.269   4.850  10.834  0.3092 -0.0249  0.1820
  162SOPE    HA18116  -0.166   4.811  10.821 -0.3765 -1.7288 -0.5113
  162SOPE    HB18117  -0.305   4.868  10.730  0.5671  1.7513  0.3737
  162SOPE    C218118  -0.354   4.743  10.911 -0.1982  0.4959 -0.4598
  162SOPE    HS18119  -0.297   4.720  11.003  0.3652 -0.4728 -1.0287
  162SOPE   O2118120  -0.364   4.627  10.829  0.5243 -0.0771  0.1710
  162SOPE   C2118121  -0.260   4.540  10.845 -0.1282  0.0552 -0.1182
  162SOPE   O2218122  -0.161   4.563  10.918  0.0670  0.1806  0.6455
  162SOPE   C2218123  -0.282   4.418  10.760 -0.4422 -0.0987 -0.6223
  162SOPE   H2R18124  -0.388   4.402  10.731 -0.0996 -2.9544 -0.5504
  162SOPE   H2S18125  -0.258   4.333  10.827  0.5888  0.8060  0.1852
  162SOPE    C318126  -0.497   4.789  10.950  0.0312 -0.3280 -0.4327
  162SOPE    HX18127  -0.488   4.866  11.029  1.6054  0.9800 -1.8173
  162SOPE    HY18128  -0.543   4.705  11.006 -2.2183  1.6907  0.9091
  162SOPE   O3118129  -0.582   4.843  10.844 -0.3661 -0.1793 -0.6967
  162SOPE   C3118130  -0.668   4.766  10.784  0.2986  0.4474 -0.3411
  162SOPE   O3218131  -0.683   4.645  10.796 -0.7390 -0.2224 -0.5101
  162SOPE   C3218132  -0.753   4.847  10.697  0.6182 -0.2660 -1.3476
  162SOPE   H2X18133  -0.689   4.931  10.662  0.7902 -0.7015 -2.0907
  162SOPE   H2Y18134  -0.839   4.884  10.757  1.2947 -0.6181 -0.1305
  162SOPE   C2318135  -0.202   4.400  10.631 -0.6341 -0.5813 -0.6085
  162SOPE   H3R18136  -0.178   4.294  10.606 -0.3692 -0.2245 -1.9100
  162SOPE   H3S18137  -0.104   4.451  10.636 -0.2935 -0.9378 -2.6830
  162SOPE   C2418138  -0.254   4.474  10.510  0.0439 -0.5135 -0.1582
  162SOPE   H4R18139  -0.189   4.469  10.421 -1.3031 -0.6191 -1.1675
  162SOPE   H4S18140  -0.360   4.444  10.492  0.6887 -2.1891 -1.3400
  162SOPE   C2518141  -0.275   4.624  10.544  0.2543  0.0042  0.0514
  162SOPE   H5R18142  -0.364   4.649  10.605  0.1806 -2.6032  1.1660
  162SOPE   H5S18143  -0.191   4.666  10.605  0.5492  0.6582 -0.7903
  162SOPE   C2618144  -0.288   4.710  10.413 -0.1639 -0.1003 -0.4024
  162SOPE   H6R18145  -0.192   4.696  10.360 -0.2122  0.0079 -0.5177
  162SOPE   H6S18146  -0.371   4.672  10.350 -0.7411  0.5019 -0.0211
  162SOPE   C2718147  -0.303   4.854  10.446  0.4140 -0.8077  0.3071
  162SOPE   H7R18148  -0.386   4.867  10.519  3.0799 -0.3663  3.5140
  162SOPE   H7S18149  -0.212   4.898  10.493  1.3934 -0.3645 -1.8635
  162SOPE   C2818150  -0.326   4.928  10.312 -0.0450 -0.4156  0.4819
  162SOPE   H8R18151  -0.290   5.032  10.331  0.3589 -0.5352  0.3705
  162SOPE   H8S18152  -0.262   4.883  10.233 -0.2657 -1.3907  0.8498
  162SOPE   C2918153  -0.472   4.940  10.269 -0.0254  0.0289  0.1803
  162SOPE   H9118154  -0.525   5.021  10.323 -0.0417  0.7084 -0.8286
  162SOPE  C21018155  -0.533   4.880  10.165  0.4305 -1.0254  0.1996
  162SOPE  H10118156  -0.637   4.909  10.146  0.6903 -0.3602 -0.2405
  162SOPE  C21118157  -0.466   4.781  10.074 -0.5271  0.7162  0.4831
  162SOPE  H11R18158  -0.528   4.689  10.060 -0.3387  0.2607  2.4084
  162SOPE  H11S18159  -0.376   4.735  10.121 -0.6252  0.5267  0.4873
  162SOPE  C21218160  -0.421   4.840   9.936 -0.0691  0.0580  0.4385
  162SOPE  H12R18161  -0.331   4.904   9.937 -0.0917  0.0992  1.7371
  162SOPE  H12S18162  -0.501   4.906   9.895 -1.0388  0.4255  2.7341
  162SOPE  C21318163  -0.385   4.727   9.835  0.5707  0.2166 -0.3757
  162SOPE  H13R18164  -0.480   4.670   9.841  0.8356 -0.0712  2.7159
  162SOPE  H13S18165  -0.303   4.668   9.882  1.0574  0.4403 -0.9207
  162SOPE  C21418166  -0.352   4.763   9.692 -0.2880 -0.4335 -0.4112
  162SOPE  H14R18167  -0.339   4.670   9.633 -0.4283 -1.7225  1.5219
  162SOPE  H14S18168  -0.260   4.825   9.688 -0.0350 -0.8583 -2.1738
  162SOPE  C21518169  -0.463   4.849   9.626  0.4632  0.0029 -0.0981
  162SOPE  H15R18170  -0.480   4.940   9.687 -3.4533  1.0404 -2.3780
  162SOPE  H15S18171  -0.562   4.798   9.624 -0.8231  2.2314  1.5211
  162SOPE  C21618172  -0.429   4.899   9.488  0.3728 -0.2701  0.0724
  162SOPE  H16R18173  -0.338   4.962   9.481  0.3475 -0.3857 -1.9054
  162SOPE  H16S18174  -0.512   4.969   9.467  0.0677 -0.3373  1.0185
  162SOPE  C21718175  -0.424   4.793   9.375  0.0032 -0.0019  0.4223
  162SOPE  H17R18176  -0.511   4.726   9.396 -1.4322  1.5879 -0.1788
  162SOPE  H17S18177  -0.327   4.740   9.382  1.1084  1.5832 -1.6713
  162SOPE  C21818178  -0.432   4.847   9.231  0.0181 -0.8168  0.0228
  162SOPE  H18R18179  -0.350   4.921   9.220  0.5312 -1.2235  0.9482
  162SOPE  H18S18180  -0.532   4.887   9.204  0.2744  1.2375  1.8601
  162SOPE  H18T18181  -0.421   4.760   9.162 -2.8586  0.3029 -2.0006
  162SOPE   C3318182  -0.822   4.772  10.578 -0.6073  0.1390 -0.2901
  162SOPE   H3X18183  -0.910   4.834  10.550 -1.9021 -1.0349  1.0123
  162SOPE   H3Y18184  -0.861   4.674  10.613  1.0239 -0.2922  0.4135
  162SOPE   C3418185  -0.726   4.754  10.458  0.4385 -0.1797 -0.1293
  162SOPE   H4X18186  -0.630   4.713  10.496  0.1479 -0.2268  0.5763
  162SOPE   H4Y18187  -0.705   4.852  10.412  1.9395 -0.5893 -0.3652
  162SOPE   C3518188  -0.780   4.661  10.352 -0.2265  1.0656 -0.5004
  162SOPE   H5X18189  -0.787   4.560  10.399 -2.8840  1.4401  0.1022
  162SOPE   H5Y18190  -0.704   4.649  10.272 -0.0378 -1.7443 -0.0007
  162SOPE   C3618191  -0.918   4.693  10.295  0.4634 -0.1853 -0.2319
  162SOPE   H6X18192  -0.915   4.804  10.288  1.2314 -0.2750 -2.0543
  162SOPE   H6Y18193  -1.003   4.659  10.358 -0.9825 -0.0256 -2.0029
  162SOPE   C3718194  -0.950   4.628  10.160  0.3143 -0.1508 -0.0288
  162SOPE   H7X18195  -1.057   4.647  10.137  0.4620 -0.7396 -1.2920
  162SOPE   H7Y18196  -0.943   4.518  10.179  1.7772  0.0969  1.0271
  162SOPE   C3818197  -0.866   4.675  10.048 -0.4200  0.0708 -0.2399
  162SOPE   H8X18198  -0.760   4.652  10.072 -0.5326  0.5749  0.8252
  162SOPE   H8Y18199  -0.854   4.785  10.049 -2.8848  0.4189  1.6470
  162SOPE   C3918200  -0.917   4.620   9.916 -0.5543 -0.4212  0.4311
  162SOPE   H9X18201  -1.010   4.678   9.897  0.3106  1.6081  1.9549
  162SOPE   H9Y18202  -0.932   4.512   9.938 -1.1773 -0.6212 -0.8937
  162SOPE  C31018203  -0.829   4.640   9.794 -0.4792  0.1892  0.3188
  162SOPE  H10X18204  -0.739   4.578   9.817 -0.1155  0.7827  0.5080
  162SOPE  H10Y18205  -0.793   4.742   9.771 -0.2110 -0.4424 -2.4001
  162SOPE  C31118206  -0.894   4.589   9.666  0.4271 -0.4510  0.6492
  162SOPE  H11X18207  -0.996   4.632   9.673  0.2818  0.1142 -3.1562
  162SOPE  H11Y18208  -0.899   4.478   9.657  0.9407 -0.3142 -2.3961
  162SOPE  C31218209  -0.819   4.645   9.552  0.4071 -0.0197 -0.0397
  162SOPE  H12X18210  -0.714   4.611   9.545  0.2668 -0.1613 -2.3764
  162SOPE  H12Y18211  -0.818   4.756   9.558  1.9543 -0.1056  2.5318
  162SOPE  C31318212  -0.894   4.601   9.421  0.4584  0.1163 -0.3267
  162SOPE  H13X18213  -1.004   4.597   9.437  0.4865 -0.1068 -0.1849
  162SOPE  H13Y18214  -0.864   4.503   9.379  0.8673  0.7599 -1.5931
  162SOPE  C31418215  -0.864   4.697   9.306  0.0084  0.5120  0.8041
  162SOPE  H14X18216  -0.756   4.690   9.279 -0.5760  0.8276 -1.9658
  162SOPE  H14Y18217  -0.889   4.799   9.342  0.9545  1.0850 -0.0882
  162SOPE  C31518218  -0.952   4.656   9.186 -0.3775 -0.1277 -0.1776
  162SOPE  H15X18219  -0.988   4.748   9.134 -0.6496  2.2071  3.7498
  162SOPE  H15Y18220  -1.043   4.602   9.221 -0.0835 -1.7746 -1.8444
  162SOPE  C31618221  -0.883   4.575   9.078 -0.6470  0.5845  0.0503
  162SOPE  H16X18222  -0.773   4.589   9.073 -0.6518  0.9888  0.9592
  162SOPE  H16Y18223  -0.921   4.614   8.981  0.9539  1.1690 -0.3888
  162SOPE  C31718224  -0.916   4.421   9.085 -0.0821  0.2210 -0.6517
  162SOPE  H17X18225  -1.025   4.403   9.082 -0.0824  0.2325 -0.7093
  162SOPE  H17Y18226  -0.887   4.388   9.187 -2.7227 -1.2344 -0.2861
  162SOPE  C31818227  -0.836   4.330   8.986  0.3859 -0.9935  0.1014
  162SOPE  H18X18228  -0.778   4.254   9.043 -0.4177 -1.9421 -0.3138
  162SOPE  H18Y18229  -0.764   4.396   8.933 -0.7902  2.2608  2.2646
  162SOPE  H18Z18230  -0.910   4.296   8.910 -1.8369  2.7191  0.3410
  163SOPE     N18231   6.062   3.572  10.859 -0.3144  0.2851 -0.2349
  163SOPE   HN118232   6.035   3.672  10.867 -0.0854  0.2200  1.8013
  163SOPE   HN218233   6.141   3.578  10.791  0.6855 -0.6002  0.8065
  163SOPE   HN318234   5.975   3.525  10.825  0.5160 -1.4361 -0.1104
  163SOPE   C1218235   6.104   3.517  10.987  0.1262 -0.0834 -0.3439
  163SOPE  H12A18236   6.021   3.528  11.059 -1.8138 -1.3542 -2.2679
  163SOPE  H12B18237   6.197   3.567  11.023  0.7293  1.1680 -3.3341
  163SOPE   C1118238   6.152   3.373  10.977 -0.1710 -0.3269 -0.2607
  163SOPE  H11A18239   6.067   3.309  10.944 -1.7728 -0.0761  2.9754
  163SOPE  H11B18240   6.175   3.342  11.081 -0.5326 -0.6343 -0.2693
  163SOPE     P18241   6.382   3.265  10.932  0.0530 -0.1809  0.2453
  163SOPE   O1318242   6.325   3.133  10.923 -0.3169  0.1097 -0.5594
  163SOPE   O1418243   6.434   3.301  11.063 -0.0502 -0.0374 -0.3541
  163SOPE   O1218244   6.265   3.360  10.889  0.1913 -0.2184  0.1993
  163SOPE   O1118245   6.492   3.287  10.823 -0.2555 -0.2341  0.3310
  163SOPE    C118246   6.496   3.412  10.749 -0.0750 -0.3878 -0.1150
  163SOPE    HA18247   6.598   3.454  10.757 -0.3643  0.3573 -0.3134
  163SOPE    HB18248   6.430   3.491  10.791 -0.5134 -1.3407  1.0717
  163SOPE    C218249   6.468   3.386  10.601 -0.9114 -0.6807  0.7470
  163SOPE    HS18250   6.454   3.483  10.548 -1.3363 -0.9267  0.3976
  163SOPE   O2118251   6.344   3.322  10.584  0.1268  0.0423 -0.0194
  163SOPE   C2118252   6.234   3.394  10.611  0.7966 -0.8346 -0.0687
  163SOPE   O2218253   6.236   3.509  10.644  1.0119 -0.2523 -0.1697
  163SOPE   C2218254   6.108   3.304  10.585 -0.1221 -0.1709 -0.2297
  163SOPE   H2R18255   6.019   3.370  10.581  1.4074  2.0684  1.1612
  163SOPE   H2S18256   6.092   3.246  10.678 -1.1815  1.0036  0.3452
  163SOPE    C318257   6.585   3.306  10.542  0.1506  0.6318 -0.9140
  163SOPE    HX18258   6.592   3.216  10.607 -0.0769 -1.1815 -3.2760
  163SOPE    HY18259   6.670   3.374  10.567 -2.1549  3.3932 -0.0020
  163SOPE   O3118260   6.571   3.281  10.403 -0.7908 -0.1104 -0.2963
  163SOPE   C3118261   6.567   3.153  10.351  0.0910 -1.0628  0.0999
  163SOPE   O3218262   6.590   3.055  10.413 -0.1767  0.2645  0.7400
  163SOPE   C3218263   6.513   3.161  10.209  0.4489 -0.0794 -0.6708
  163SOPE   H2X18264   6.493   3.053  10.189 -0.7380 -0.4064  1.8427
  163SOPE   H2Y18265   6.595   3.202  10.146  1.4177  1.2388  1.3555
  163SOPE   C2318266   6.106   3.222  10.452  0.4791  0.0190  0.1262
  163SOPE   H3R18267   6.165   3.127  10.455 -1.8803 -1.5386 -0.0935
  163SOPE   H3S18268   6.133   3.289  10.368  1.0435  0.4034  0.6057
  163SOPE   C2418269   5.957   3.178  10.429 -0.3347  0.3189 -0.3006
  163SOPE   H4R18270   5.926   3.110  10.511 -2.3014  1.5986  0.0850
  163SOPE   H4S18271   5.885   3.262  10.426 -1.3753 -0.5192  0.2838
  163SOPE   C2518272   5.927   3.095  10.296 -0.0974 -0.0582 -0.3993
  163SOPE   H5R18273   6.013   3.025  10.286 -1.1541 -1.4945  0.2085
  163SOPE   H5S18274   5.832   3.039  10.310  0.2461 -0.5250  0.1178
  163SOPE   C2618275   5.916   3.180  10.171  0.4593  0.5938  0.2874
  163SOPE   H6R18276   5.813   3.223  10.174  0.0904 -0.2620  0.0265
  163SOPE   H6S18277   5.988   3.265  10.166  0.9404  0.3323  2.2237
  163SOPE   C2718278   5.922   3.093  10.044 -0.0149  0.3303  0.0961
  163SOPE   H7R18279   6.013   3.034  10.066  0.3755 -0.3141 -2.8825
  163SOPE   H7S18280   5.832   3.029  10.035  0.6375 -0.5400 -0.3573
  163SOPE   C2818281   5.954   3.167   9.912  0.1580 -0.5855  0.0216
  163SOPE   H8R18282   6.060   3.200   9.919  0.3295 -0.8999 -0.9236
  163SOPE   H8S18283   5.948   3.079   9.844  0.0956  0.3133 -1.1624
  163SOPE   C2918284   5.863   3.274   9.865  0.5923 -0.1164 -0.5895
  163SOPE   H9118285   5.785   3.316   9.931  0.7897  1.3304 -1.2430
  163SOPE  C21018286   5.856   3.329   9.740 -0.1012  1.0077 -0.3885
  163SOPE  H10118287   5.788   3.414   9.725  2.7325  3.8243  1.5599
  163SOPE  C21118288   5.946   3.291   9.619 -0.0274 -0.6048  0.1169
  163SOPE  H11R18289   6.052   3.262   9.638  0.7711  0.8183 -1.8527
  163SOPE  H11S18290   5.952   3.366   9.537 -1.4868 -0.4853  0.0916
  163SOPE  C21218291   5.872   3.175   9.541 -0.7770  0.1050 -0.4447
  163SOPE  H12R18292   5.762   3.183   9.530 -0.8877 -0.6543  0.0163
  163SOPE  H12S18293   5.902   3.079   9.590  1.1088  2.1488  2.7815
  163SOPE  C21318294   5.930   3.161   9.400 -0.1676 -0.6230 -0.1833
  163SOPE  H13R18295   6.039   3.148   9.418 -0.5657 -2.9618  0.9403
  163SOPE  H13S18296   5.911   3.247   9.333  0.7607 -1.0878 -1.0798
  163SOPE  C21418297   5.871   3.042   9.321 -0.1620  0.4793  0.5060
  163SOPE  H14R18298   5.762   3.064   9.323  0.2075  2.4438  0.6527
  163SOPE  H14S18299   5.890   2.947   9.375 -0.9054  1.3369  2.3579
  163SOPE  C21518300   5.915   3.035   9.173 -0.2588  0.0012  0.2466
  163SOPE  H15R18301   5.854   3.116   9.128 -1.6752 -0.5611  1.0879
  163SOPE  H15S18302   5.890   2.939   9.123  0.2174 -0.2384  0.4681
  163SOPE  C21618303   6.064   3.069   9.138  0.4005 -0.9975  0.1699
  163SOPE  H16R18304   6.138   2.999   9.182  0.3482  0.7176  3.3434
  163SOPE  H16S18305   6.101   3.155   9.198  1.0424 -0.7703 -0.5341
  163SOPE  C21718306   6.098   3.088   8.994  0.1012 -0.1768  0.1851
  163SOPE  H17R18307   6.201   3.124   8.971 -0.0182  0.4972  0.6882
  163SOPE  H17S18308   6.022   3.156   8.951  0.8126 -0.4080 -1.5199
  163SOPE  C21818309   6.085   2.967   8.900 -0.1656 -0.4730  0.0310
  163SOPE  H18R18310   6.161   2.892   8.931  2.4444  2.1300  0.4498
  163SOPE  H18S18311   6.122   2.999   8.800 -0.5359 -1.0743 -0.3018
  163SOPE  H18T18312   5.985   2.922   8.882 -0.5486  0.5209 -0.3817
  163SOPE   C3318313   6.373   3.240  10.210 -0.1009  0.4275  0.9083
  163SOPE   H3X18314   6.387   3.349  10.228  1.8460  1.5028 -4.8553
  163SOPE   H3Y18315   6.295   3.207  10.282  0.6111 -2.0870  0.6246
  163SOPE   C3418316   6.309   3.220  10.060 -0.2990 -0.0299  0.2550
  163SOPE   H4X18317   6.234   3.300  10.041  0.1973  0.7678  1.5136
  163SOPE   H4Y18318   6.263   3.118  10.058  1.8351 -1.0352 -0.1094
  163SOPE   C3518319   6.416   3.225   9.940 -0.3248  0.3565  0.5273
  163SOPE   H5X18320   6.496   3.150   9.950 -1.9658 -1.5362  0.0517
  163SOPE   H5Y18321   6.463   3.326   9.942 -1.6727  1.1118 -1.6398
  163SOPE   C3618322   6.332   3.209   9.813 -0.2232  0.3997  0.3772
  163SOPE   H6X18323   6.269   3.300   9.806 -1.7982 -0.7250 -0.7684
  163SOPE   H6Y18324   6.258   3.129   9.835 -1.4625  1.5552  0.5220
  163SOPE   C3718325   6.420   3.206   9.682 -0.6380  0.1000 -0.0317
  163SOPE   H7X18326   6.513   3.147   9.699  0.1858  1.3185 -0.1754
  163SOPE   H7Y18327   6.449   3.311   9.658 -0.5895  0.0914 -0.0108
  163SOPE   C3818328   6.345   3.159   9.561  0.1387 -0.4656  0.0568
  163SOPE   H8X18329   6.284   3.245   9.526  0.7197  0.1525  0.5340
  163SOPE   H8Y18330   6.287   3.068   9.588  1.9338 -0.8600  3.1455
  163SOPE   C3918331   6.457   3.134   9.454 -0.2083 -0.3685  0.0786
  163SOPE   H9X18332   6.519   3.050   9.492  0.5015 -0.6071 -1.5350
  163SOPE   H9Y18333   6.510   3.232   9.449  0.9772 -0.9943  0.0650
  163SOPE  C31018334   6.402   3.084   9.321  0.1483  0.2368 -0.2739
  163SOPE  H10X18335   6.330   3.158   9.281 -0.9345 -0.2088  0.7794
  163SOPE  H10Y18336   6.353   2.984   9.330  0.5836  0.2002  2.7076
  163SOPE  C31118337   6.507   3.081   9.211 -0.3415 -0.3320  0.9245
  163SOPE  H11X18338   6.573   2.997   9.242  0.9140 -0.3935 -1.6641
  163SOPE  H11Y18339   6.560   3.178   9.218 -1.7558  0.5641 -0.3647
  163SOPE  C31218340   6.457   3.056   9.062  0.6779  0.1873 -1.2743
  163SOPE  H12X18341   6.416   3.153   9.026 -1.0363  1.2026  2.8647
  163SOPE  H12Y18342   6.368   2.989   9.072 -0.6447  1.5948 -2.8465
  163SOPE  C31318343   6.561   3.009   8.966  0.1693  0.1439  0.7524
  163SOPE  H13X18344   6.580   2.899   8.964  0.9948  0.2814  0.0181
  163SOPE  H13Y18345   6.660   3.047   9.002  0.0694  2.0912 -0.8455
  163SOPE  C31418346   6.528   3.039   8.818  0.1318 -0.2096  1.0824
  163SOPE  H14X18347   6.623   3.019   8.765 -0.2799  1.6604 -0.4474
  163SOPE  H14Y18348   6.509   3.144   8.787  0.8551 -0.5414 -0.5376
  163SOPE  C31518349   6.418   2.941   8.765  0.3835 -0.4186  0.0255
  163SOPE  H15X18350   6.311   2.963   8.784  1.0871  3.4203  0.2674
  163SOPE  H15Y18351   6.439   2.844   8.815  0.1908 -0.0915  0.7484
  163SOPE  C31618352   6.438   2.915   8.616  0.0055 -0.2888 -0.4231
  163SOPE  H16X18353   6.541   2.880   8.593 -1.0193 -2.7432 -1.6156
  163SOPE  H16Y18354   6.416   3.017   8.577 -0.7616  0.4380  1.7724
  163SOPE  C31718355   6.341   2.811   8.561 -0.2884 -0.4903 -0.4195
  163SOPE  H17X18356   6.240   2.830   8.604 -1.1002  0.3223 -2.5457
  163SOPE  H17Y18357   6.370   2.707   8.585 -0.1930 -0.7931 -1.7650
  163SOPE  C31818358   6.324   2.822   8.409  0.2579 -0.2448 -0.8459
  163SOPE  H18X18359   6.336   2.929   8.386 -2.1033  0.2819  0.0517
  163SOPE  H18Y18360   6.218   2.794   8.391 -0.3981  1.8198 -0.4129
  163SOPE  H18Z18361   6.400   2.766   8.350  0.5516 -2.3817  1.3750
  164SOPE     N18362   2.551   0.239  11.038 -0.3076 -0.7443  0.1065
  164SOPE   HN118363   2.575   0.205  11.134 -0.1665 -1.2806 -0.1174
  164SOPE   HN218364   2.464   0.208  10.989 -1.7888  1.4545  1.1821
  164SOPE   HN318365   2.638   0.223  10.984  0.1303  3.6737 -0.7961
  164SOPE   C1218366   2.542   0.385  11.029 -0.4320 -0.5304 -0.0024
  164SOPE  H12A18367   2.631   0.436  11.071 -1.2000  2.3552 -1.6248
  164SOPE  H12B18368   2.448   0.425  11.075  1.0601  2.7781  0.4441
  164SOPE   C1118369   2.539   0.436  10.882 -0.0743 -0.7860  0.2546
  164SOPE  H11A18370   2.633   0.404  10.831  0.1225 -0.1337  0.1975
  164SOPE  H11B18371   2.545   0.547  10.884 -0.7208 -0.7538  0.4758
  164SOPE     P18372   2.297   0.480  10.800 -0.1165  0.3279  0.3795
  164SOPE   O1318373   2.240   0.520  10.930  0.0908 -0.3682 -0.2268
  164SOPE   O1418374   2.201   0.419  10.706  0.2317 -0.5610  0.2226
  164SOPE   O1218375   2.426   0.391  10.813  0.3599 -0.1046  0.2349
  164SOPE   O1118376   2.357   0.611  10.739 -0.1082  0.1785 -0.3477
  164SOPE    C118377   2.356   0.634  10.595 -0.2648  0.0845 -0.2941
  164SOPE    HA18378   2.311   0.733  10.574  0.3020  0.4782  0.3253
  164SOPE    HB18379   2.303   0.552  10.542  2.5808 -2.6306  0.7105
  164SOPE    C218380   2.505   0.624  10.541  0.0539 -0.6075 -0.1290
  164SOPE    HS18381   2.569   0.679  10.614  0.3944 -0.4378 -0.5556
  164SOPE   O2118382   2.501   0.693  10.411 -0.3549  0.1584  0.4444
  164SOPE   C2118383   2.625   0.731  10.380 -0.7738 -0.3029  0.4353
  164SOPE   O2218384   2.723   0.704  10.443  0.2519 -0.1385  0.3580
  164SOPE   C2218385   2.633   0.810  10.254  0.3985 -0.1430  0.6629
  164SOPE   H2R18386   2.711   0.888  10.267  1.5222 -0.8971 -1.1840
  164SOPE   H2S18387   2.539   0.862  10.225  1.2459  0.5709 -0.9363
  164SOPE    C318388   2.563   0.481  10.528  0.5128  0.2896  0.1508
  164SOPE    HX18389   2.567   0.437  10.630 -1.1505  2.3658  1.1753
  164SOPE    HY18390   2.669   0.485  10.494  0.1362  1.3410 -0.9634
  164SOPE   O3118391   2.472   0.402  10.456  1.2244  0.1053  0.9026
  164SOPE   C3118392   2.491   0.414  10.322  0.0546  0.2228  0.3851
  164SOPE   O3218393   2.593   0.454  10.275 -0.1809  0.2571 -0.2754
  164SOPE   C3218394   2.360   0.388  10.246 -0.1942  0.2364  0.6429
  164SOPE   H2X18395   2.274   0.436  10.296 -0.9233 -1.5456  1.1572
  164SOPE   H2Y18396   2.348   0.280  10.227  1.0006  0.3918 -1.3486
  164SOPE   C2318397   2.675   0.726  10.134  0.2148  0.1175 -0.1740
  164SOPE   H3R18398   2.603   0.648  10.101 -1.4950  1.4018  0.3457
  164SOPE   H3S18399   2.775   0.681  10.150  0.2774 -0.1513 -1.2973
  164SOPE   C2418400   2.700   0.816  10.003 -0.2751 -0.3534 -0.5949
  164SOPE   H4R18401   2.612   0.880   9.985 -1.2939 -1.7590 -0.7955
  164SOPE   H4S18402   2.777   0.891  10.031 -0.4009  0.7392 -2.9638
  164SOPE   C2518403   2.742   0.736   9.876  0.0204  0.9470 -0.1584
  164SOPE   H5R18404   2.824   0.672   9.915 -1.5831 -1.1760 -0.0980
  164SOPE   H5S18405   2.657   0.670   9.851  1.0769 -0.7428  0.5064
  164SOPE   C2618406   2.796   0.808   9.750  0.1339  0.5548 -0.8162
  164SOPE   H6R18407   2.721   0.882   9.714 -1.3861 -0.2033  0.6422
  164SOPE   H6S18408   2.890   0.864   9.768 -1.3779  2.6178  1.2187
  164SOPE   C2718409   2.825   0.706   9.638 -0.2804 -1.1771  0.3829
  164SOPE   H7R18410   2.897   0.635   9.684 -0.6659 -0.5525  2.0298
  164SOPE   H7S18411   2.739   0.642   9.612 -1.8054  1.1718 -0.7108
  164SOPE   C2818412   2.888   0.784   9.514 -0.9080  0.0457 -0.4149
  164SOPE   H8R18413   2.955   0.857   9.564 -1.1854 -0.4743  0.7351
  164SOPE   H8S18414   2.955   0.711   9.464  0.2086 -0.5770  1.8590
  164SOPE   C2918415   2.792   0.839   9.415  0.7503 -0.3155  0.5726
  164SOPE   H9118416   2.736   0.923   9.457  2.6930  0.8732  0.8968
  164SOPE  C21018417   2.761   0.792   9.292 -0.0197 -0.0781 -0.2204
  164SOPE  H10118418   2.676   0.834   9.236  0.0745 -0.6532 -0.8105
  164SOPE  C21118419   2.810   0.667   9.227  0.4313 -0.2991 -0.3235
  164SOPE  H11R18420   2.735   0.585   9.237  1.2808 -1.1763 -0.9130
  164SOPE  H11S18421   2.893   0.620   9.285 -0.5315  0.3910  1.7268
  164SOPE  C21218422   2.849   0.691   9.084  0.1170 -0.3754 -0.7773
  164SOPE  H12R18423   2.757   0.725   9.032  0.4085  0.2282 -0.9170
  164SOPE  H12S18424   2.876   0.595   9.037  0.7022 -0.0990 -1.0172
  164SOPE  C21318425   2.981   0.768   9.063 -0.4426 -0.6032  0.0386
  164SOPE  H13R18426   3.070   0.723   9.111 -0.1883 -1.3491 -1.0838
  164SOPE  H13S18427   2.965   0.869   9.107 -0.9264 -0.3803 -0.6263
  164SOPE  C21418428   2.990   0.802   8.913  0.7560  0.7523  0.8800
  164SOPE  H14R18429   2.904   0.864   8.880  0.2416 -1.2883 -1.9636
  164SOPE  H14S18430   2.981   0.707   8.855  1.1789  1.2754 -0.0694
  164SOPE  C21518431   3.118   0.865   8.880  0.5086  0.0048 -0.2196
  164SOPE  H15R18432   3.209   0.806   8.903 -0.7455 -2.2851 -0.7266
  164SOPE  H15S18433   3.146   0.966   8.918  1.1956 -0.0768 -0.4872
  164SOPE  C21618434   3.146   0.886   8.732  0.4201 -0.4487  0.3324
  164SOPE  H16R18435   3.128   0.795   8.672  0.3880  0.6871 -1.4340
  164SOPE  H16S18436   3.253   0.917   8.723  0.0361  0.6075 -0.8401
  164SOPE  C21718437   3.057   0.994   8.672 -0.2539 -0.7005 -0.7408
  164SOPE  H17R18438   3.087   1.083   8.731 -1.0712 -0.2216 -1.0311
  164SOPE  H17S18439   2.954   0.957   8.688 -0.0038 -1.2924 -0.4609
  164SOPE  C21818440   3.068   1.004   8.519  0.2619 -0.3777  0.2107
  164SOPE  H18R18441   3.172   1.024   8.485  0.1769  0.3799  0.3799
  164SOPE  H18S18442   2.997   1.077   8.474  0.0741 -0.3839  0.4968
  164SOPE  H18T18443   3.027   0.912   8.472 -4.0844  1.3334  0.2144
  164SOPE   C3318444   2.366   0.456  10.108 -0.6259 -0.3995  0.3775
  164SOPE   H3X18445   2.402   0.561  10.110  1.6983 -1.0997 -0.9949
  164SOPE   H3Y18446   2.265   0.461  10.060 -0.3353  1.7537 -0.1338
  164SOPE   C3418447   2.441   0.375  10.006 -0.3709 -0.1003 -0.3772
  164SOPE   H4X18448   2.395   0.276   9.987 -1.8459  0.3125  0.8828
  164SOPE   H4Y18449   2.548   0.356  10.029  0.4866  3.2738 -0.9931
  164SOPE   C3518450   2.442   0.446   9.871  0.1271  0.4769 -0.5733
  164SOPE   H5X18451   2.505   0.537   9.877 -1.5538  1.7103 -1.1890
  164SOPE   H5Y18452   2.340   0.476   9.841  0.2622  1.4316 -0.0922
  164SOPE   C3618453   2.485   0.355   9.755 -0.3079 -0.0547 -0.2632
  164SOPE   H6X18454   2.426   0.261   9.748  0.0865 -0.3002 -0.3782
  164SOPE   H6Y18455   2.591   0.323   9.768 -0.1235 -0.6790 -2.8867
  164SOPE   C3718456   2.490   0.427   9.627  0.3737 -0.0793  0.3033
  164SOPE   H7X18457   2.563   0.511   9.617 -0.9660  1.0027 -0.7564
  164SOPE   H7Y18458   2.389   0.463   9.598  0.4428  0.4609  0.7231
  164SOPE   C3818459   2.530   0.326   9.507  0.0919  0.3927  0.4748
  164SOPE   H8X18460   2.457   0.242   9.498  3.0755 -2.3880  0.3852
  164SOPE   H8Y18461   2.622   0.274   9.542 -1.2311 -2.3248  0.1990
  164SOPE   C3918462   2.551   0.393   9.371 -0.1847 -0.5478  0.1454
  164SOPE   H9X18463   2.639   0.353   9.316  0.0987 -0.0712  0.2460
  164SOPE   H9Y18464   2.579   0.500   9.383  1.2994 -0.4411 -3.1056
  164SOPE  C31018465   2.424   0.378   9.287 -0.5932  0.0100  0.5516
  164SOPE  H10X18466   2.352   0.446   9.337  0.0421  0.1400  1.2949
  164SOPE  H10Y18467   2.390   0.273   9.300  1.6959 -0.9847 -0.9043
  164SOPE  C31118468   2.442   0.423   9.139  1.0344 -0.3323  0.1972
  164SOPE  H11X18469   2.474   0.529   9.134 -0.7098  0.1962 -2.8638
  164SOPE  H11Y18470   2.342   0.416   9.092  0.1482 -1.7527  2.1751
  164SOPE  C31218471   2.530   0.320   9.066  0.0669 -0.1184  0.9711
  164SOPE  H12X18472   2.496   0.215   9.080  0.1297 -0.3216 -0.3224
  164SOPE  H12Y18473   2.630   0.337   9.111  0.6277  0.4674 -0.4453
  164SOPE  C31318474   2.539   0.332   8.911  0.1483  0.6050 -0.6688
  164SOPE  H13X18475   2.435   0.314   8.877 -0.2135  0.3827  0.4983
  164SOPE  H13Y18476   2.598   0.245   8.873  2.0678  2.2161 -1.5890
  164SOPE  C31418477   2.603   0.457   8.863  1.2430 -0.6658  0.1518
  164SOPE  H14X18478   2.698   0.489   8.909  1.5092  0.7419 -1.2987
  164SOPE  H14Y18479   2.525   0.535   8.873 -0.9887 -2.2263 -3.0580
  164SOPE  C31518480   2.651   0.448   8.712  0.1350  0.3047 -0.6552
  164SOPE  H15X18481   2.575   0.412   8.639  1.1924 -1.8927 -0.7464
  164SOPE  H15Y18482   2.736   0.376   8.708 -0.4898 -0.5188  0.2615
  164SOPE  C31618483   2.710   0.588   8.673  0.1204  0.1229  0.0766
  164SOPE  H16X18484   2.789   0.567   8.597  1.3583  0.7341  1.1594
  164SOPE  H16Y18485   2.765   0.648   8.748  0.7424  1.0280 -1.0597
  164SOPE  C31718486   2.610   0.700   8.634 -0.0040  0.1593  0.1280
  164SOPE  H17X18487   2.551   0.735   8.722 -0.9432  0.9413 -0.7740
  164SOPE  H17Y18488   2.531   0.662   8.565 -0.4186 -0.2148  0.8073
  164SOPE  C31818489   2.665   0.828   8.578 -0.0058 -0.4631  0.1684
  164SOPE  H18X18490   2.635   0.922   8.631 -0.0645  1.3678 -2.8573
  164SOPE  H18Y18491   2.658   0.840   8.468  0.4822  1.8387  0.3208
  164SOPE  H18Z18492   2.774   0.823   8.598 -0.4262  0.5693  3.3281
  165SOPE     N18493   3.330   1.393  11.153  0.4474  0.4169 -0.1312
  165SOPE   HN118494   3.315   1.339  11.066 -0.8451 -0.0645  0.3571
  165SOPE   HN218495   3.342   1.316  11.223  0.2040 -1.5687 -2.1604
  165SOPE   HN318496   3.240   1.439  11.176 -1.1718 -0.7942 -3.4473
  165SOPE   C1218497   3.456   1.477  11.147 -1.1479 -0.6263  0.0896
  165SOPE  H12A18498   3.550   1.418  11.148 -0.6982  0.0330 -1.0155
  165SOPE  H12B18499   3.459   1.540  11.239 -0.4698 -1.3415  0.5703
  165SOPE   C1118500   3.446   1.562  11.020 -0.2568  0.4624  0.7187
  165SOPE  H11A18501   3.413   1.505  10.930  1.9153  1.1336 -0.5822
  165SOPE  H11B18502   3.546   1.606  11.001  0.7465 -0.8622  2.6509
  165SOPE     P18503   3.358   1.794  11.108  0.2048  0.1057  0.0582
  165SOPE   O1318504   3.485   1.807  11.179  0.0597  0.0207 -0.6798
  165SOPE   O1418505   3.236   1.831  11.182  0.1307 -0.2478 -0.5196
  165SOPE   O1218506   3.340   1.660  11.034 -1.0473  0.2123  0.4942
  165SOPE   O1118507   3.368   1.899  10.995 -0.6190 -0.0932 -0.2704
  165SOPE    C118508   3.357   1.888  10.851 -0.4505  0.2465  1.2353
  165SOPE    HA18509   3.252   1.902  10.817 -0.4069 -0.6506  0.7119
  165SOPE    HB18510   3.373   1.785  10.813  0.8771  0.5040  1.0494
  165SOPE    C218511   3.460   1.983  10.774  0.4557  0.2431 -0.2392
  165SOPE    HS18512   3.436   2.086  10.810 -1.2964  0.4347 -1.7996
  165SOPE   O2118513   3.434   1.964  10.633 -0.7599 -0.0376 -0.1692
  165SOPE   C2118514   3.449   2.076  10.561  0.1005  0.7873 -0.0503
  165SOPE   O2218515   3.478   2.184  10.602 -0.6243 -0.5427 -0.3624
  165SOPE   C2218516   3.412   2.040  10.420 -0.1234 -0.1496 -0.0790
  165SOPE   H2R18517   3.301   2.046  10.419 -0.2779 -2.4344 -0.9070
  165SOPE   H2S18518   3.443   1.938  10.390 -0.3026  0.3956 -2.2969
  165SOPE    C318519   3.603   1.951  10.812 -0.2468 -0.2327  0.1626
  165SOPE    HX18520   3.615   1.842  10.790  0.4305  0.3779 -3.1244
  165SOPE    HY18521   3.624   1.978  10.918 -1.9448 -0.0650  0.4762
  165SOPE   O3118522   3.697   2.017  10.723  0.1614 -0.0445  0.5761
  165SOPE   C3118523   3.765   2.128  10.750 -0.5091 -0.3033 -0.3888
  165SOPE   O3218524   3.738   2.201  10.845 -0.3475  0.3530 -0.3073
  165SOPE   C3218525   3.880   2.144  10.658 -0.4503  0.1498 -0.4822
  165SOPE   H2X18526   3.925   2.044  10.639 -1.7334 -0.4712 -0.3417
  165SOPE   H2Y18527   3.961   2.205  10.702 -0.8843  0.3434  0.0611
  165SOPE   C2318528   3.472   2.141  10.316  0.7337  0.0029  0.1078
  165SOPE   H3R18529   3.581   2.122  10.308  0.7848 -0.5575  1.8235
  165SOPE   H3S18530   3.449   2.248  10.336 -1.1314  0.2709 -2.7900
  165SOPE   C2418531   3.410   2.124  10.182 -0.0190  0.0724 -0.6497
  165SOPE   H4R18532   3.373   2.019  10.176 -0.0500  0.0602 -0.2697
  165SOPE   H4S18533   3.319   2.186  10.167 -1.4375 -1.5120  0.9345
  165SOPE   C2518534   3.496   2.166  10.064 -0.1911 -0.6477  0.4926
  165SOPE   H5R18535   3.556   2.255  10.095  1.1858 -1.1336 -0.6633
  165SOPE   H5S18536   3.577   2.092  10.046  0.9925  0.4041  1.2768
  165SOPE   C2618537   3.418   2.192   9.937  0.0541  0.0143 -0.6318
  165SOPE   H6R18538   3.310   2.168   9.948  0.0804 -0.7003 -1.8374
  165SOPE   H6S18539   3.428   2.297   9.904  0.4470  0.4063  0.6555
  165SOPE   C2718540   3.483   2.101   9.833  0.1711  0.3126  0.6022
  165SOPE   H7R18541   3.585   2.144   9.822 -0.1760  1.8255  2.7207
  165SOPE   H7S18542   3.495   1.994   9.863 -0.2304  0.6094  1.8971
  165SOPE   C2818543   3.417   2.113   9.691 -0.7785  0.4001  0.3433
  165SOPE   H8R18544   3.463   2.041   9.620  1.2771  1.3864  0.6067
  165SOPE   H8S18545   3.313   2.073   9.694  0.2134 -2.4713 -0.6766
  165SOPE   C2918546   3.425   2.253   9.627 -0.6348  0.5850  0.0253
  165SOPE   H9118547   3.406   2.334   9.699  1.2554  0.1051  1.1434
  165SOPE  C21018548   3.469   2.284   9.504  0.1914  0.4852 -0.0845
  165SOPE  H10118549   3.478   2.389   9.471  2.2865  1.0029  1.9015
  165SOPE  C21118550   3.504   2.187   9.399 -0.4279  0.3500  0.4048
  165SOPE  H11R18551   3.464   2.085   9.418  1.3118 -0.8081 -1.6990
  165SOPE  H11S18552   3.615   2.183   9.401 -0.3805  1.1399  3.2777
  165SOPE  C21218553   3.457   2.217   9.253 -0.1655 -0.5503  0.0666
  165SOPE  H12R18554   3.415   2.320   9.246  1.9178  0.2744 -1.6570
  165SOPE  H12S18555   3.371   2.154   9.222 -1.0257  0.7906 -0.3652
  165SOPE  C21318556   3.575   2.226   9.153  0.0205 -0.1525  0.5900
  165SOPE  H13R18557   3.621   2.126   9.139  0.1942 -0.2695  1.8911
  165SOPE  H13S18558   3.654   2.284   9.206 -0.6241  0.3911  0.9798
  165SOPE  C21418559   3.540   2.309   9.026  0.5186 -0.2906 -0.6459
  165SOPE  H14R18560   3.511   2.414   9.050 -0.8380 -0.6189 -0.8251
  165SOPE  H14S18561   3.456   2.263   8.971 -2.6541  0.9491  2.7849
  165SOPE  C21518562   3.661   2.306   8.940  0.0917 -0.1030 -0.0881
  165SOPE  H15R18563   3.691   2.199   8.942 -1.8116 -0.7151 -1.4112
  165SOPE  H15S18564   3.737   2.365   8.996  1.6812 -2.0240 -0.0587
  165SOPE  C21618565   3.648   2.363   8.800 -0.2281  0.9864 -0.2598
  165SOPE  H16R18566   3.586   2.289   8.746  2.3937 -0.1494 -1.8857
  165SOPE  H16S18567   3.747   2.332   8.759  0.7482 -0.4269  2.8111
  165SOPE  C21718568   3.627   2.507   8.779  0.5872 -0.1488 -0.3870
  165SOPE  H17R18569   3.537   2.531   8.839  0.5784  2.3229 -1.2548
  165SOPE  H17S18570   3.597   2.528   8.674 -0.0990  0.5281 -0.0667
  165SOPE  C21818571   3.740   2.585   8.830 -0.3797 -0.5841  0.7357
  165SOPE  H18R18572   3.761   2.570   8.938  0.9221 -0.9429  0.4509
  165SOPE  H18S18573   3.704   2.689   8.817 -0.1739 -0.5890  0.0888
  165SOPE  H18T18574   3.831   2.564   8.770 -0.9964 -0.0725 -0.4128
  165SOPE   C3318575   3.837   2.198  10.523 -0.6894  0.6691  0.4832
  165SOPE   H3X18576   3.817   2.307  10.530  3.0623  1.4519  1.5597
  165SOPE   H3Y18577   3.743   2.145  10.497 -0.6944 -0.5877  2.8024
  165SOPE   C3418578   3.956   2.178  10.425 -0.2758 -0.2192 -0.2453
  165SOPE   H4X18579   3.977   2.069  10.415 -0.4774 -0.2347 -0.4860
  165SOPE   H4Y18580   4.040   2.213  10.489 -0.7412 -1.4132  1.0923
  165SOPE   C3518581   3.942   2.259  10.305 -0.4343 -0.2415  0.4388
  165SOPE   H5X18582   3.947   2.367  10.332 -2.6318  0.2426 -0.8905
  165SOPE   H5Y18583   3.846   2.245  10.252  0.3022  1.7890 -1.5542
  165SOPE   C3618584   4.045   2.232  10.189 -0.1175 -0.4449  0.0696
  165SOPE   H6X18585   4.047   2.134  10.136  3.2711  1.1820 -3.2774
  165SOPE   H6Y18586   4.146   2.253  10.230  2.8092  1.8628 -6.8155
  165SOPE   C3718587   4.018   2.331  10.074 -0.3204 -0.9075 -0.8953
  165SOPE   H7X18588   3.911   2.357  10.068  0.2431  1.8636 -0.0985
  165SOPE   H7Y18589   4.049   2.281   9.979 -0.6084  0.4578 -1.7310
  165SOPE   C3818590   4.092   2.466  10.100  0.0291  0.1865 -0.5299
  165SOPE   H8X18591   4.197   2.430  10.096 -0.0738 -0.0093 -2.4433
  165SOPE   H8Y18592   4.069   2.515  10.197  1.0518 -0.3132 -0.0230
  165SOPE   C3918593   4.075   2.572   9.990 -0.2751 -0.2691  0.1104
  165SOPE   H9X18594   3.973   2.616   9.988 -0.5719 -0.9515 -2.0670
  165SOPE   H9Y18595   4.095   2.527   9.890 -0.3025  1.3467 -0.6524
  165SOPE  C31018596   4.176   2.688  10.004 -0.2885 -0.4236  0.4727
  165SOPE  H10X18597   4.275   2.639   9.993 -0.7245 -0.9633 -1.3866
  165SOPE  H10Y18598   4.171   2.732  10.106 -1.4838 -2.6020  1.4308
  165SOPE  C31118599   4.167   2.804   9.907  0.9701 -0.1473 -0.2583
  165SOPE  H11X18600   4.272   2.835   9.885  2.3824 -3.2779  1.3670
  165SOPE  H11Y18601   4.108   2.887   9.951  1.1363  0.2340 -0.7386
  165SOPE  C31218602   4.109   2.768   9.773 -0.1802 -0.0023 -0.5273
  165SOPE  H12X18603   3.999   2.753   9.781 -0.2939  1.4642  1.2759
  165SOPE  H12Y18604   4.155   2.675   9.734  3.0520  2.1061 -2.1350
  165SOPE  C31318605   4.121   2.878   9.664 -0.7120  0.8555  0.3104
  165SOPE  H13X18606   4.231   2.894   9.655 -0.7734  1.0381 -0.1279
  165SOPE  H13Y18607   4.085   2.980   9.689  1.0984  2.1605 -2.0245
  165SOPE  C31418608   4.058   2.822   9.535  0.0862 -0.1629  0.6764
  165SOPE  H14X18609   3.949   2.800   9.537  0.2312 -0.9368  0.3860
  165SOPE  H14Y18610   4.108   2.728   9.505 -2.0818 -0.8631 -1.0024
  165SOPE  C31518611   4.088   2.918   9.416  0.8346  0.5686  0.1384
  165SOPE  H15X18612   4.198   2.921   9.408  1.0145 -0.9200  1.4732
  165SOPE  H15Y18613   4.058   3.021   9.444  0.8627  0.0262  2.3265
  165SOPE  C31618614   4.025   2.881   9.286  0.3040 -0.2469  0.5097
  165SOPE  H16X18615   4.054   2.783   9.244  0.3981  0.5129 -1.3093
  165SOPE  H16Y18616   4.067   2.944   9.204 -0.9352 -0.1846 -0.1108
  165SOPE  C31718617   3.870   2.906   9.267 -0.3593 -0.4452  0.6742
  165SOPE  H17X18618   3.836   3.012   9.271  0.8086 -0.0358  0.1458
  165SOPE  H17Y18619   3.812   2.853   9.346 -0.9950 -2.8813 -1.2927
  165SOPE  C31818620   3.825   2.850   9.132  0.5183  0.6570 -0.8096
  165SOPE  H18X18621   3.888   2.885   9.047  0.1930 -1.5154 -2.0134
  165SOPE  H18Y18622   3.719   2.876   9.112 -0.5726 -0.7437  2.4495
  165SOPE  H18Z18623   3.831   2.740   9.128  3.3243  0.7067 -0.4251
  166SOPE     N18624   5.660   1.090  10.748  0.5993  0.1825 -0.2218
  166SOPE   HN118625   5.718   1.031  10.685  2.3360  1.6083 -0.0458
  166SOPE   HN218626   5.636   1.035  10.833 -1.4387  2.4117  0.7502
  166SOPE   HN318627   5.574   1.122  10.700  0.6767  0.3356 -0.2568
  166SOPE   C1218628   5.738   1.208  10.788 -0.3252 -0.1373  0.5221
  166SOPE  H12A18629   5.797   1.243  10.701 -0.3359 -1.8290 -0.2132
  166SOPE  H12B18630   5.808   1.181  10.870 -0.2062  1.5878  1.0120
  166SOPE   C1118631   5.650   1.321  10.838  1.1459 -0.2316  0.7148
  166SOPE  H11A18632   5.710   1.405  10.881  0.3847  0.7929 -0.1814
  166SOPE  H11B18633   5.590   1.288  10.926  1.5899  0.1690  1.1799
  166SOPE     P18634   5.421   1.339  10.694  0.0920  0.3449 -0.1834
  166SOPE   O1318635   5.348   1.324  10.825  0.0162 -0.1928  0.0042
  166SOPE   O1418636   5.432   1.216  10.610  0.3298 -0.5480  0.3059
  166SOPE   O1218637   5.565   1.381  10.737  0.0993 -0.3691 -0.6358
  166SOPE   O1118638   5.349   1.453  10.610  0.2057  0.3569 -0.4234
  166SOPE    C118639   5.416   1.579  10.583 -0.5977  0.0231  0.0150
  166SOPE    HA18640   5.478   1.614  10.668 -2.6318 -0.1020  1.6311
  166SOPE    HB18641   5.332   1.651  10.575 -1.3627 -0.6818  1.4526
  166SOPE    C218642   5.501   1.564  10.458 -0.2628 -0.4287  1.2920
  166SOPE    HS18643   5.587   1.505  10.494 -0.3832 -0.2598  1.8691
  166SOPE   O2118644   5.546   1.682  10.383 -0.0798 -0.2412 -0.1876
  166SOPE   C2118645   5.585   1.790  10.449 -0.2580  0.0180 -0.3445
  166SOPE   O2218646   5.583   1.807  10.571 -0.1129 -0.8566  0.1991
  166SOPE   C2218647   5.638   1.894  10.352 -0.0765  0.2443  0.8539
  166SOPE   H2R18648   5.691   1.966  10.418 -2.6028 -0.6538  4.1028
  166SOPE   H2S18649   5.558   1.957  10.308 -1.0272 -0.6576  1.2556
  166SOPE    C318650   5.426   1.466  10.353  0.1067 -0.1984 -0.7489
  166SOPE    HX18651   5.338   1.530  10.334  0.0685  0.5441  1.6298
  166SOPE    HY18652   5.394   1.371  10.400  1.7212 -0.3793  0.0556
  166SOPE   O3118653   5.489   1.451  10.229  0.2737  0.1286  0.0042
  166SOPE   C3118654   5.579   1.347  10.226  0.5369  0.1044  0.1123
  166SOPE   O3218655   5.602   1.268  10.316 -0.8814  0.2110 -0.1649
  166SOPE   C3218656   5.645   1.333  10.089 -0.5663  0.7786 -0.2207
  166SOPE   H2X18657   5.731   1.263  10.093 -1.8473 -0.8522 -0.2336
  166SOPE   H2Y18658   5.682   1.434  10.063 -1.5570  0.9303 -1.0688
  166SOPE   C2318659   5.713   1.846  10.227 -0.3561  0.2427  1.3011
  166SOPE   H3R18660   5.788   1.767  10.251 -0.6801 -0.3333  0.4623
  166SOPE   H3S18661   5.770   1.924  10.173 -1.2979 -0.4902 -0.8431
  166SOPE   C2418662   5.610   1.805  10.115 -0.3323 -0.6767  0.3075
  166SOPE   H4R18663   5.584   1.698  10.123 -0.0298 -0.8730 -1.1203
  166SOPE   H4S18664   5.520   1.871  10.109  0.8536  1.1322  1.3111
  166SOPE   C2518665   5.678   1.798   9.977 -0.2416 -0.1160  0.8224
  166SOPE   H5R18666   5.680   1.896   9.924 -0.5062 -1.5024 -1.9402
  166SOPE   H5S18667   5.783   1.765   9.991 -0.0995  0.1840  0.4940
  166SOPE   C2618668   5.617   1.699   9.870 -0.4764 -0.8727  0.1707
  166SOPE   H6R18669   5.571   1.615   9.926 -1.8625 -0.7800 -0.7567
  166SOPE   H6S18670   5.530   1.749   9.821  0.2480 -0.2259 -0.4874
  166SOPE   C2718671   5.710   1.642   9.761 -0.5517 -0.1774  0.6885
  166SOPE   H7R18672   5.784   1.574   9.807  0.1005 -0.0060 -0.0834
  166SOPE   H7S18673   5.646   1.576   9.699 -0.7914  0.4429  0.2571
  166SOPE   C2818674   5.802   1.740   9.690 -0.2368  0.1731  0.4034
  166SOPE   H8R18675   5.839   1.815   9.764  0.2826 -0.0613  0.3832
  166SOPE   H8S18676   5.893   1.692   9.650  0.7166  1.6354  0.7368
  166SOPE   C2918677   5.726   1.811   9.578 -0.0105 -0.6352  0.1161
  166SOPE   H9118678   5.651   1.884   9.613 -1.0864 -1.0442 -1.2670
  166SOPE  C21018679   5.745   1.793   9.450 -0.1140  0.1024 -0.4339
  166SOPE  H10118680   5.685   1.847   9.375  0.3547 -0.4091 -1.1876
  166SOPE  C21118681   5.835   1.691   9.388 -0.0885 -0.1711 -0.1623
  166SOPE  H11R18682   5.855   1.605   9.456 -1.8878 -1.1292 -0.7871
  166SOPE  H11S18683   5.928   1.732   9.344 -1.3403 -0.1772 -3.0158
  166SOPE  C21218684   5.768   1.614   9.267  0.4681  0.0628  0.6883
  166SOPE  H12R18685   5.843   1.555   9.210 -0.1044  0.0336 -0.0512
  166SOPE  H12S18686   5.743   1.696   9.195 -0.8592  1.5366  2.7062
  166SOPE  C21318687   5.642   1.529   9.310  0.1553 -0.2066 -0.6833
  166SOPE  H13R18688   5.570   1.595   9.362 -0.3209 -1.3154  0.1175
  166SOPE  H13S18689   5.688   1.455   9.379  2.2418  2.4545  0.9615
  166SOPE  C21418690   5.571   1.472   9.191  0.5551  0.0966 -0.9153
  166SOPE  H14R18691   5.546   1.560   9.127 -0.8227  0.0987 -0.4008
  166SOPE  H14S18692   5.481   1.418   9.226  0.2042  0.7230 -0.8328
  166SOPE  C21518693   5.651   1.352   9.129 -0.0763  0.8880  0.4135
  166SOPE  H15R18694   5.664   1.275   9.208 -0.6191 -1.6564 -1.8661
  166SOPE  H15S18695   5.753   1.383   9.099  0.6073 -1.1864  0.4226
  166SOPE  C21618696   5.571   1.281   9.020 -0.4328  0.2638  0.3025
  166SOPE  H16R18697   5.555   1.363   8.947 -2.1810  1.4304  1.9080
  166SOPE  H16S18698   5.478   1.242   9.065 -0.5295  1.2506  0.9960
  166SOPE  C21718699   5.648   1.179   8.929  0.1922 -0.0713 -0.1176
  166SOPE  H17R18700   5.747   1.216   8.896  0.2715  0.6553  0.8856
  166SOPE  H17S18701   5.585   1.157   8.840  1.6456  1.6940 -1.6552
  166SOPE  C21818702   5.667   1.046   9.016 -0.0442 -0.1713  0.5302
  166SOPE  H18R18703   5.762   0.999   8.982 -0.7597  0.2634 -2.3718
  166SOPE  H18S18704   5.575   0.984   9.002 -1.1457  1.5548 -0.3603
  166SOPE  H18T18705   5.673   1.071   9.124  0.8271  1.8267  0.0568
  166SOPE   C3318706   5.560   1.285   9.970  0.0601  0.3639  0.3206
  166SOPE   H3X18707   5.480   1.360   9.951  1.4163  1.4628 -1.3362
  166SOPE   H3Y18708   5.511   1.188   9.992 -1.9425  1.2215 -0.1241
  166SOPE   C3418709   5.627   1.278   9.833 -0.4148  0.4726  0.4876
  166SOPE   H4X18710   5.721   1.218   9.833 -0.9624 -0.4432 -1.4366
  166SOPE   H4Y18711   5.653   1.380   9.798 -1.2861  0.0904 -1.3454
  166SOPE   C3518712   5.541   1.212   9.724  0.4429  0.4096 -0.4864
  166SOPE   H5X18713   5.440   1.259   9.723 -0.3415 -1.1033  1.0279
  166SOPE   H5Y18714   5.539   1.103   9.747 -2.1431  0.7056  1.1590
  166SOPE   C3618715   5.604   1.230   9.591  0.1716 -0.0615 -0.1480
  166SOPE   H6X18716   5.712   1.204   9.599  0.2337  0.0353 -0.6430
  166SOPE   H6Y18717   5.596   1.332   9.546 -1.9160  0.4861  1.2911
  166SOPE   C3718718   5.556   1.124   9.488  0.0340  0.6345 -0.3085
  166SOPE   H7X18719   5.599   1.027   9.521 -1.3899  0.1773  0.2882
  166SOPE   H7Y18720   5.606   1.143   9.391  1.2708  0.5106  0.2762
  166SOPE   C3818721   5.405   1.115   9.461 -0.1001  0.0490 -0.2560
  166SOPE   H8X18722   5.358   1.216   9.452  0.3308  0.1304 -1.8075
  166SOPE   H8Y18723   5.367   1.057   9.548  0.4338 -0.0050 -0.0578
  166SOPE   C3918724   5.367   1.031   9.334 -0.3125  0.2201 -0.4207
  166SOPE   H9X18725   5.410   0.929   9.335  0.2628  0.4575 -0.3624
  166SOPE   H9Y18726   5.400   1.091   9.246  1.0906  1.4044  0.8681
  166SOPE  C31018727   5.213   1.021   9.330  0.8910 -0.4222  0.5702
  166SOPE  H10X18728   5.169   1.121   9.352  0.6447 -0.4796  0.3351
  166SOPE  H10Y18729   5.181   0.962   9.419  0.0873 -2.3363 -0.9192
  166SOPE  C31118730   5.165   0.972   9.189 -0.1259  0.0549  0.1622
  166SOPE  H11X18731   5.196   0.867   9.175  1.6214  0.3621  1.3703
  166SOPE  H11Y18732   5.223   1.018   9.106  1.0907 -0.3496  0.7664
  166SOPE  C31218733   5.012   0.991   9.167  0.3232 -0.2860  0.2056
  166SOPE  H12X18734   4.979   1.091   9.202 -2.1779 -0.7009 -0.7858
  166SOPE  H12Y18735   4.957   0.920   9.232 -0.9201  0.6575  0.2323
  166SOPE  C31318736   4.973   0.983   9.020 -0.3083  0.2475  0.3246
  166SOPE  H13X18737   5.019   0.887   8.988  0.9158  1.1703 -0.7854
  166SOPE  H13Y18738   5.025   1.062   8.962 -1.2654 -0.1917 -1.1597
  166SOPE  C31418739   4.826   0.972   9.001 -0.4485  0.2066 -0.3700
  166SOPE  H14X18740   4.791   1.075   9.024 -1.6460 -0.3147  0.2300
  166SOPE  H14Y18741   4.765   0.906   9.066 -2.2293  1.1673 -0.9920
  166SOPE  C31518742   4.775   0.938   8.867 -0.5293  0.0148 -0.4664
  166SOPE  H15X18743   4.665   0.949   8.867 -0.3507  2.4063  0.4340
  166SOPE  H15Y18744   4.806   0.834   8.842 -1.5793 -0.2719 -0.5870
  166SOPE  C31618745   4.837   1.024   8.756  0.4903 -0.7860  0.4270
  166SOPE  H16X18746   4.939   1.002   8.720  0.5352 -0.6188  0.4515
  166SOPE  H16Y18747   4.840   1.133   8.775  0.8376 -0.2166 -2.4436
  166SOPE  C31718748   4.739   1.019   8.642  0.0087 -0.1208 -0.0789
  166SOPE  H17X18749   4.649   1.078   8.669  0.4692 -0.0791  1.4530
  166SOPE  H17Y18750   4.714   0.915   8.614  3.2648 -0.5926 -1.7488
  166SOPE  C31818751   4.792   1.085   8.512 -0.1004 -0.3207 -0.0986
  166SOPE  H18X18752   4.886   1.037   8.479  0.5604  0.1714  1.0193
  166SOPE  H18Y18753   4.811   1.195   8.520 -2.3864  0.3681 -2.6056
  166SOPE  H18Z18754   4.710   1.081   8.437 -1.8730  1.0367  1.6265
  167SOPE     N18755   5.960   3.363   6.266 -0.2371  0.2555 -0.3694
  167SOPE   HN118756   6.009   3.403   6.348 -0.2255 -0.4199 -0.0399
  167SOPE   HN218757   6.038   3.329   6.206  0.4491 -0.1547  0.7364
  167SOPE   HN318758   5.929   3.445   6.210 -0.3977  0.2107 -0.3466
  167SOPE   C1218759   5.860   3.257   6.287  0.1432 -0.3215  0.0151
  167SOPE  H12A18760   5.831   3.218   6.188 -1.1312  2.1861 -0.6853
  167SOPE  H12B18761   5.774   3.306   6.337  1.5126  1.0585  1.1122
  167SOPE   C1118762   5.912   3.147   6.384  0.1336 -1.0192  0.3949
  167SOPE  H11A18763   5.960   3.196   6.471  0.3150  3.3647 -1.8767
  167SOPE  H11B18764   5.986   3.089   6.326 -2.8981 -1.4510 -3.5132
  167SOPE     P18765   5.727   2.960   6.355 -0.1523 -0.1158  0.0294
  167SOPE   O1318766   5.822   2.864   6.294 -0.4843 -0.4587  0.1577
  167SOPE   O1418767   5.645   3.025   6.253  0.0742  0.5084 -0.2999
  167SOPE   O1218768   5.807   3.070   6.435  0.5999  0.2090  0.3056
  167SOPE   O1118769   5.626   2.884   6.450  0.3578  0.3570 -0.3129
  167SOPE    C118770   5.666   2.755   6.505 -0.0219  0.6803 -0.8432
  167SOPE    HA18771   5.710   2.694   6.423 -0.7944  1.4119 -1.8288
  167SOPE    HB18772   5.568   2.712   6.536  0.9293  0.1650  1.7238
  167SOPE    C218773   5.764   2.763   6.617 -0.5803  0.8665 -0.2323
  167SOPE    HS18774   5.749   2.684   6.694  1.7201 -1.0867 -1.6514
  167SOPE   O2118775   5.783   2.892   6.678 -0.3007  0.2136  0.1807
  167SOPE   C2118776   5.688   2.918   6.757  0.1110 -0.1185 -0.0254
  167SOPE   O2218777   5.604   2.843   6.802 -0.4282  0.0101  0.0651
  167SOPE   C2218778   5.710   3.058   6.818  0.1235 -0.2810 -0.8253
  167SOPE   H2R18779   5.604   3.093   6.817 -0.2034 -1.2425 -0.6489
  167SOPE   H2S18780   5.781   3.119   6.758 -0.2492 -1.2566 -2.3371
  167SOPE    C318781   5.909   2.714   6.567  0.6391 -0.0189 -1.1315
  167SOPE    HX18782   5.940   2.797   6.500 -1.2782  0.6723 -1.2132
  167SOPE    HY18783   5.898   2.625   6.501 -2.4139  0.1257 -0.9422
  167SOPE   O3118784   6.003   2.690   6.679 -0.2907  0.5863  0.5265
  167SOPE   C3118785   6.097   2.791   6.701  0.1866 -0.3188  0.1320
  167SOPE   O3218786   6.122   2.874   6.615  0.5103  0.3038  0.4042
  167SOPE   C3218787   6.150   2.773   6.838  0.0211 -0.0945 -0.1355
  167SOPE   H2X18788   6.216   2.861   6.850  0.2198  0.0091 -1.7764
  167SOPE   H2Y18789   6.198   2.673   6.835 -0.8058 -0.4942 -0.3312
  167SOPE   C2318790   5.756   3.054   6.968  0.2134  0.4130  0.3915
  167SOPE   H3R18791   5.764   3.162   6.993  2.9022  0.4919 -0.5537
  167SOPE   H3S18792   5.858   3.015   6.986  0.5036  1.3350  0.8124
  167SOPE   C2418793   5.672   2.986   7.078  0.2791 -0.6656  0.3991
  167SOPE   H4R18794   5.564   3.004   7.060  0.4360  0.3874  0.4330
  167SOPE   H4S18795   5.689   2.876   7.070 -1.1225 -0.9574  0.9883
  167SOPE   C2518796   5.719   3.021   7.221 -0.0554 -0.2897  0.2941
  167SOPE   H5R18797   5.821   2.983   7.244  0.5258  1.6304  1.1313
  167SOPE   H5S18798   5.717   3.132   7.211 -1.5328 -0.3903 -0.8738
  167SOPE   C2618799   5.628   2.973   7.329  0.3723  0.3636  0.3081
  167SOPE   H6R18800   5.539   3.038   7.340  0.8227  1.0325  0.0581
  167SOPE   H6S18801   5.580   2.876   7.304 -1.9207  1.1005  1.6448
  167SOPE   C2718802   5.705   2.963   7.463  0.2578  0.0245  0.0039
  167SOPE   H7R18803   5.633   2.916   7.533  0.7147  0.2488  0.6335
  167SOPE   H7S18804   5.781   2.883   7.450 -1.1373 -1.1859 -1.0198
  167SOPE   C2818805   5.761   3.099   7.510  0.5942 -0.4288  0.3223
  167SOPE   H8R18806   5.805   3.163   7.431 -1.2708  0.5944  0.0497
  167SOPE   H8S18807   5.671   3.156   7.542  1.2228  0.1249  1.1395
  167SOPE   C2918808   5.866   3.076   7.618 -0.2113 -0.5185 -0.0558
  167SOPE   H9118809   5.949   3.011   7.588  0.5437  0.7711 -0.7788
  167SOPE  C21018810   5.857   3.118   7.748  0.1633  0.2626 -0.9062
  167SOPE  H10118811   5.944   3.117   7.816 -1.0633  0.1462  0.7151
  167SOPE  C21118812   5.737   3.194   7.793 -0.3522  0.4262  0.1383
  167SOPE  H11R18813   5.640   3.161   7.750 -0.4585  0.9978 -0.0685
  167SOPE  H11S18814   5.765   3.299   7.772  2.1335 -0.5864 -2.1173
  167SOPE  C21218815   5.724   3.185   7.945 -0.5029 -0.4586 -0.4924
  167SOPE  H12R18816   5.634   3.242   7.978  1.1068  1.1976  1.2411
  167SOPE  H12S18817   5.811   3.220   8.004 -0.1748  1.7191 -2.1233
  167SOPE  C21318818   5.694   3.042   7.998 -0.3422 -0.6743 -0.2992
  167SOPE  H13R18819   5.779   2.972   7.987 -0.2277 -0.7960  1.1511
  167SOPE  H13S18820   5.611   2.996   7.940 -0.5704 -2.2440  1.1736
  167SOPE  C21418821   5.654   3.029   8.145  0.5001 -0.3491  0.0583
  167SOPE  H14R18822   5.660   2.924   8.181  0.1531  0.2201  1.8842
  167SOPE  H14S18823   5.557   3.082   8.160  1.1671  1.5317 -1.7959
  167SOPE  C21518824   5.741   3.099   8.247  0.0663  0.5198 -0.4155
  167SOPE  H15R18825   5.741   3.209   8.230 -1.4891  0.4535 -1.0163
  167SOPE  H15S18826   5.845   3.061   8.244 -0.1883 -0.1891 -0.2091
  167SOPE  C21618827   5.685   3.095   8.398  0.3344 -0.1444  0.2253
  167SOPE  H16R18828   5.579   3.124   8.412  0.5939 -0.5528  3.9685
  167SOPE  H16S18829   5.742   3.181   8.440  0.5413  0.6336 -1.5406
  167SOPE  C21718830   5.735   2.966   8.480  0.4242  0.2059  0.4950
  167SOPE  H17R18831   5.829   2.936   8.429 -1.4773 -2.7979 -1.5832
  167SOPE  H17S18832   5.656   2.891   8.459  1.2613 -0.6681  0.4118
  167SOPE  C21818833   5.755   3.001   8.626  0.2730 -0.3946 -0.5847
  167SOPE  H18R18834   5.661   2.994   8.685 -0.1571  1.9508 -0.8609
  167SOPE  H18S18835   5.803   3.101   8.638 -0.2002 -0.0631 -1.3781
  167SOPE  H18T18836   5.830   2.930   8.668  2.6187  2.0937 -0.2456
  167SOPE   C3318837   6.046   2.781   6.952 -0.0001  0.1938 -0.0775
  167SOPE   H3X18838   5.965   2.707   6.933  0.0993  0.1298 -0.2523
  167SOPE   H3Y18839   6.006   2.884   6.962 -1.8759 -0.6219  1.5278
  167SOPE   C3418840   6.112   2.741   7.088 -0.1069 -0.9169  0.5643
  167SOPE   H4X18841   6.174   2.826   7.124  0.7701 -1.1112 -0.4160
  167SOPE   H4Y18842   6.191   2.663   7.081  0.0401 -0.8529  1.3835
  167SOPE   C3518843   6.013   2.686   7.184  0.2817 -0.1069  0.3292
  167SOPE   H5X18844   5.983   2.586   7.145  1.5562 -0.2467 -0.3307
  167SOPE   H5Y18845   5.917   2.742   7.189 -0.6644 -1.5994 -0.3274
  167SOPE   C3618846   6.074   2.672   7.323 -0.1835  0.1171 -0.3853
  167SOPE   H6X18847   6.108   2.770   7.362  2.4029 -0.3224 -1.3123
  167SOPE   H6Y18848   6.170   2.617   7.327  0.2223  0.8861  0.7654
  167SOPE   C3718849   5.977   2.605   7.417  0.8347 -0.0814 -0.5007
  167SOPE   H7X18850   5.938   2.510   7.375  0.7024  0.0415 -0.6543
  167SOPE   H7Y18851   5.892   2.671   7.444 -2.8419 -4.9737  1.4941
  167SOPE   C3818852   6.037   2.561   7.555 -0.5255 -0.2108 -0.2648
  167SOPE   H8X18853   6.136   2.523   7.521  0.3848  0.6986  1.2126
  167SOPE   H8Y18854   5.969   2.487   7.601  0.4118  0.8080  3.0294
  167SOPE   C3918855   6.080   2.674   7.650  0.1361  0.1756 -0.0286
  167SOPE   H9X18856   5.994   2.744   7.650  0.1853  0.2343 -0.4900
  167SOPE   H9Y18857   6.171   2.729   7.620  0.4764 -0.1750  0.3473
  167SOPE  C31018858   6.108   2.637   7.802  0.2765 -0.4512  0.1195
  167SOPE  H10X18859   6.167   2.544   7.810  2.6942  1.0952  1.4179
  167SOPE  H10Y18860   6.012   2.614   7.853 -0.2646 -0.2756 -0.7777
  167SOPE  C31118861   6.173   2.738   7.891 -0.5773 -0.5693  0.2009
  167SOPE  H11X18862   6.279   2.751   7.862  0.6550  0.4783  4.4486
  167SOPE  H11Y18863   6.179   2.684   7.988 -0.7579 -3.0541 -1.0913
  167SOPE  C31218864   6.100   2.873   7.912  0.2645  0.3367 -0.1937
  167SOPE  H12X18865   5.992   2.857   7.933 -0.1089  1.0973 -1.4190
  167SOPE  H12Y18866   6.109   2.930   7.817 -1.4739 -0.3636 -0.8190
  167SOPE  C31318867   6.181   2.943   8.024  0.2603  0.9522 -0.5664
  167SOPE  H13X18868   6.282   2.967   7.985 -0.2439  1.8096 -1.3876
  167SOPE  H13Y18869   6.201   2.880   8.114  4.2437  1.0617 -1.2128
  167SOPE  C31418870   6.125   3.074   8.077  0.2984 -0.2848 -0.3990
  167SOPE  H14X18871   6.015   3.060   8.083  0.4723 -1.3801  0.5183
  167SOPE  H14Y18872   6.144   3.152   8.000 -1.9190  0.2897 -0.4269
  167SOPE  C31518873   6.176   3.119   8.210 -0.2452  0.1173  0.4478
  167SOPE  H15X18874   6.280   3.157   8.211  0.2230 -1.1370  1.0825
  167SOPE  H15Y18875   6.175   3.029   8.274 -1.0479  0.1451  0.4903
  167SOPE  C31618876   6.099   3.241   8.269  0.7585 -0.2316  0.7524
  167SOPE  H16X18877   5.989   3.229   8.281  0.8761 -1.8201  0.4736
  167SOPE  H16Y18878   6.107   3.317   8.188 -0.2646 -0.0868  0.7763
  167SOPE  C31718879   6.161   3.295   8.402  0.0892 -0.8118  0.1880
  167SOPE  H17X18880   6.129   3.401   8.417  1.3011 -0.6162  1.6681
  167SOPE  H17Y18881   6.271   3.289   8.391  0.1737 -1.1887  1.1063
  167SOPE  C31818882   6.109   3.206   8.522 -0.2628 -0.8707  0.0045
  167SOPE  H18X18883   6.141   3.245   8.621 -1.2358 -1.5252  0.6057
  167SOPE  H18Y18884   6.159   3.107   8.519  0.0654 -0.6766 -1.1122
  167SOPE  H18Z18885   5.998   3.195   8.524 -0.4888  0.0920 -3.1733
  168SOPE     N18886   0.407   1.265   6.100 -0.1765  0.1113  0.1858
  168SOPE   HN118887   0.310   1.233   6.083  0.2789 -2.1508  1.5125
  168SOPE   HN218888   0.411   1.369   6.108  1.0114  0.1640 -0.8479
  168SOPE   HN318889   0.476   1.233   6.029 -0.0796 -0.4316  0.5163
  168SOPE   C1218890   0.457   1.218   6.231 -0.5650 -0.3174  0.0751
  168SOPE  H12A18891   0.472   1.108   6.229  1.3241 -0.0939 -0.2420
  168SOPE  H12B18892   0.385   1.246   6.311  1.6361  0.0635  2.0332
  168SOPE   C1118893   0.584   1.296   6.262 -0.1650  0.7980 -0.6906
  168SOPE  H11A18894   0.660   1.268   6.186  1.6085 -0.1997  1.3073
  168SOPE  H11B18895   0.631   1.265   6.358  1.0370  0.4651 -1.3607
  168SOPE     P18896   0.544   1.516   6.399  0.0333  0.0126 -0.1003
  168SOPE   O1318897   0.449   1.626   6.363 -0.2950  0.1948 -0.7291
  168SOPE   O1418898   0.676   1.563   6.448  0.1007 -0.3652  0.4237
  168SOPE   O1218899   0.561   1.435   6.263  0.6282  0.3042 -0.5167
  168SOPE   O1118900   0.484   1.424   6.508 -0.0691 -0.0162  0.3271
  168SOPE    C118901   0.349   1.442   6.559  0.1580 -0.1538  0.9853
  168SOPE    HA18902   0.294   1.346   6.565 -0.3022 -0.1726 -1.8919
  168SOPE    HB18903   0.280   1.509   6.503 -2.6766 -1.4060  2.7720
  168SOPE    C218904   0.364   1.494   6.701 -0.6217  0.8941  0.4311
  168SOPE    HS18905   0.420   1.590   6.694 -0.0433  0.5156 -0.4084
  168SOPE   O2118906   0.446   1.403   6.771  0.2412  0.6888  0.1499
  168SOPE   C2118907   0.529   1.457   6.860 -0.6171 -0.1844  0.5352
  168SOPE   O2218908   0.549   1.576   6.888  0.0996 -0.3783 -0.0950
  168SOPE   C2218909   0.605   1.352   6.941 -0.2115  0.5202  0.1368
  168SOPE   H2R18910   0.697   1.408   6.970 -0.6143  2.8626 -2.6836
  168SOPE   H2S18911   0.630   1.264   6.877 -1.4319  0.6830 -0.5995
  168SOPE    C318912   0.230   1.507   6.773  0.4993 -0.2781  0.2294
  168SOPE    HX18913   0.181   1.410   6.794 -0.1633 -0.0262 -0.0961
  168SOPE    HY18914   0.161   1.561   6.703  2.8198  1.9729 -0.4822
  168SOPE   O3118915   0.245   1.577   6.900  0.1660 -0.6027 -0.5345
  168SOPE   C3118916   0.264   1.706   6.879  0.1768 -0.4543  0.2722
  168SOPE   O3218917   0.247   1.769   6.777  0.3506  0.4449 -0.4278
  168SOPE   C3218918   0.320   1.767   7.009  0.4980 -0.0933  0.1694
  168SOPE   H2X18919   0.244   1.841   7.041  1.7509  0.2497  2.5491
  168SOPE   H2Y18920   0.421   1.811   6.996 -0.3541  2.3922  1.2680
  168SOPE   C2318921   0.519   1.290   7.057  0.3821 -0.0619  0.1983
  168SOPE   H3R18922   0.537   1.180   7.065 -1.7152 -0.3022  3.2516
  168SOPE   H3S18923   0.409   1.296   7.052  0.3658  0.9650  1.3749
  168SOPE   C2418924   0.549   1.344   7.205  0.4705  0.3206  0.1289
  168SOPE   H4R18925   0.660   1.351   7.207  0.4346  0.8992  1.0378
  168SOPE   H4S18926   0.503   1.444   7.217 -2.5479 -1.0544  1.0627
  168SOPE   C2518927   0.504   1.243   7.304  0.5686  0.8506  0.0478
  168SOPE   H5R18928   0.395   1.228   7.290  0.6203  1.0743 -0.6313
  168SOPE   H5S18929   0.549   1.148   7.266  1.9098  0.8960  1.4184
  168SOPE   C2618930   0.524   1.280   7.454  0.3175  0.1457 -0.7887
  168SOPE   H6R18931   0.629   1.263   7.484 -0.3496  0.1901  1.7466
  168SOPE   H6S18932   0.496   1.386   7.472 -0.4804  0.0947 -1.6249
  168SOPE   C2718933   0.440   1.190   7.545 -0.5533  0.2966 -0.1838
  168SOPE   H7R18934   0.339   1.172   7.503 -0.3060 -2.6806  0.2259
  168SOPE   H7S18935   0.493   1.092   7.540 -0.0568  0.5117  0.6305
  168SOPE   C2818936   0.440   1.243   7.691  1.2303  0.5831 -0.1591
  168SOPE   H8R18937   0.545   1.250   7.729  1.4824  3.7840 -1.1412
  168SOPE   H8S18938   0.400   1.347   7.696  0.8150  0.4780 -1.1831
  168SOPE   C2918939   0.366   1.151   7.786  0.4875  0.1446  0.0559
  168SOPE   H9118940   0.279   1.099   7.743  0.1679  1.0052 -0.3823
  168SOPE  C21018941   0.400   1.133   7.911 -0.5957 -0.3122  0.4647
  168SOPE  H10118942   0.342   1.061   7.969 -2.3654  0.3653 -0.3919
  168SOPE  C21118943   0.507   1.207   7.989 -0.8031 -0.2857 -0.8751
  168SOPE  H11R18944   0.599   1.241   7.938 -1.3471  1.6706 -0.6443
  168SOPE  H11S18945   0.533   1.137   8.071 -1.7095  1.5201  1.0749
  168SOPE  C21218946   0.456   1.327   8.072  0.1158 -0.0278  0.0844
  168SOPE  H12R18947   0.375   1.311   8.147 -1.1878 -2.3809 -1.6744
  168SOPE  H12S18948   0.420   1.400   7.996  0.7425 -0.3862 -0.5643
  168SOPE  C21318949   0.572   1.388   8.146 -0.5879  0.1261 -0.2750
  168SOPE  H13R18950   0.547   1.493   8.171  1.5151  0.4101  0.7918
  168SOPE  H13S18951   0.661   1.392   8.079  0.1262  1.2381  0.7241
  168SOPE  C21418952   0.591   1.326   8.282 -0.5312  0.3991 -0.3253
  168SOPE  H14R18953   0.600   1.215   8.278  2.3314  0.5166  0.9483
  168SOPE  H14S18954   0.500   1.345   8.343  0.9694 -0.9790  2.5171
  168SOPE  C21518955   0.713   1.379   8.365 -0.1187  0.3469 -0.4057
  168SOPE  H15R18956   0.709   1.490   8.369  0.9667  0.3623  1.5053
  168SOPE  H15S18957   0.803   1.356   8.305 -1.0193 -0.7959 -1.3704
  168SOPE  C21618958   0.721   1.315   8.510  0.3509  0.4040  0.1431
  168SOPE  H16R18959   0.713   1.206   8.492  1.6816  0.0316  1.6214
  168SOPE  H16S18960   0.639   1.352   8.575  0.5234 -0.9148  1.1325
  168SOPE  C21718961   0.854   1.332   8.581 -0.0612  0.1499 -0.4822
  168SOPE  H17R18962   0.881   1.438   8.600 -0.6995  0.2013  0.1774
  168SOPE  H17S18963   0.933   1.277   8.526  2.4413  1.3979  1.6698
  168SOPE  C21818964   0.847   1.269   8.719  0.1691 -0.3765 -0.1470
  168SOPE  H18R18965   0.783   1.335   8.781  1.6947  0.8585  0.1713
  168SOPE  H18S18966   0.943   1.268   8.775  0.5133  1.0314 -0.6795
  168SOPE  H18T18967   0.808   1.164   8.715  0.1078 -0.3706  0.2566
  168SOPE   C3318968   0.343   1.678   7.136 -0.5163 -0.2437  0.3317
  168SOPE   H3X18969   0.438   1.621   7.125  0.5161  1.7181 -1.7321
  168SOPE   H3Y18970   0.259   1.607   7.147 -1.7135  1.0382 -0.2030
  168SOPE   C3418971   0.331   1.756   7.270 -0.0706  0.1185  0.7707
  168SOPE   H4X18972   0.225   1.764   7.299 -0.3430 -0.6972  0.0519
  168SOPE   H4Y18973   0.354   1.864   7.272  0.0540  0.1835 -1.2945
  168SOPE   C3518974   0.398   1.691   7.388 -0.4150  1.2294  0.6583
  168SOPE   H5X18975   0.504   1.673   7.362 -0.3166  0.8030  1.3581
  168SOPE   H5Y18976   0.350   1.591   7.392 -1.8010  1.8759  0.7923
  168SOPE   C3618977   0.367   1.766   7.521 -0.9815 -0.3562  0.2591
  168SOPE   H6X18978   0.259   1.750   7.542 -0.9001 -0.4334  0.6273
  168SOPE   H6Y18979   0.395   1.870   7.496  0.4647 -1.1378 -1.6841
  168SOPE   C3718980   0.444   1.700   7.644  0.8302 -0.0412  0.0068
  168SOPE   H7X18981   0.545   1.680   7.604  0.5781  1.7724 -1.7103
  168SOPE   H7Y18982   0.397   1.600   7.658 -0.7103  0.4355 -1.4193
  168SOPE   C3818983   0.437   1.776   7.772  0.5751 -0.5355 -0.1565
  168SOPE   H8X18984   0.329   1.784   7.799  0.2839 -0.6245 -1.2206
  168SOPE   H8Y18985   0.476   1.879   7.759  0.2513  0.0146  2.6019
  168SOPE   C3918986   0.498   1.706   7.901  0.3642  1.0083  0.3561
  168SOPE   H9X18987   0.606   1.730   7.893  0.4896  1.1477  2.1286
  168SOPE   H9Y18988   0.479   1.597   7.890 -3.3656  1.2859  2.2684
  168SOPE  C31018989   0.447   1.770   8.031  0.7559  0.4250 -0.4403
  168SOPE  H10X18990   0.490   1.717   8.119  1.2381  0.7546 -0.4728
  168SOPE  H10Y18991   0.337   1.755   8.036  0.7081 -0.9318 -3.4097
  168SOPE  C31118992   0.485   1.923   8.048  0.0002 -0.0449 -0.4829
  168SOPE  H11X18993   0.431   1.974   7.965 -0.5835 -1.7417 -1.1784
  168SOPE  H11Y18994   0.594   1.940   8.030 -0.0326  0.0078 -0.6408
  168SOPE  C31218995   0.460   1.968   8.188 -0.2229 -0.7800 -0.3314
  168SOPE  H12X18996   0.521   1.912   8.261 -0.4981  1.8326  2.0659
  168SOPE  H12Y18997   0.353   1.942   8.205 -0.6037  1.1669  0.5081
  168SOPE  C31318998   0.504   2.112   8.211  0.8001  0.0375 -0.7258
  168SOPE  H13X18999   0.440   2.174   8.145 -0.9042 -0.1445  0.7062
  168SOPE  H13Y19000   0.610   2.125   8.179  0.3945  0.5721 -1.9415
  168SOPE  C31419001   0.494   2.167   8.356 -0.4089  0.2355 -0.0554
  168SOPE  H14X19002   0.550   2.090   8.414 -2.1132 -1.0596 -0.0546
  168SOPE  H14Y19003   0.389   2.153   8.390 -0.4569 -0.4176 -0.4668
  168SOPE  C31519004   0.540   2.311   8.383  1.1206  0.4802  0.2277
  168SOPE  H15X19005   0.487   2.368   8.304 -1.2823 -0.1081  1.3304
  168SOPE  H15Y19006   0.647   2.329   8.359  1.0622  1.6078  0.7138
  168SOPE  C31619007   0.500   2.365   8.522  0.4744 -0.1375 -0.3299
  168SOPE  H16X19008   0.535   2.290   8.596  0.3593 -2.5093 -2.5444
  168SOPE  H16Y19009   0.389   2.364   8.521  0.4071 -0.8760 -3.5502
  168SOPE  C31719010   0.559   2.511   8.538 -0.2503  0.4810 -0.3610
  168SOPE  H17X19011   0.508   2.575   8.463 -0.7327  0.6271  0.0851
  168SOPE  H17Y19012   0.664   2.518   8.502 -0.7838  3.2142 -1.6299
  168SOPE  C31819013   0.546   2.577   8.663 -0.1519 -0.0018 -0.6941
  168SOPE  H18X19014   0.575   2.685   8.665 -0.0465 -0.0011  2.2375
  168SOPE  H18Y19015   0.611   2.534   8.742 -1.4475 -0.3498  0.1973
  168SOPE  H18Z19016   0.441   2.567   8.697  0.2716 -1.3884  0.2785
  169SOPE     N19017   0.649   3.640   6.353 -0.0937  0.4253  0.0311
  169SOPE   HN119018   0.726   3.576   6.322 -1.1126 -0.8785  0.1226
  169SOPE   HN219019   0.605   3.610   6.443 -0.8609 -2.5565 -1.2266
  169SOPE   HN319020   0.574   3.619   6.285  0.4466 -3.6615  0.4713
  169SOPE   C1219021   0.690   3.784   6.325 -0.6669 -0.5061  0.5208
  169SOPE  H12A19022   0.740   3.782   6.225 -1.4777 -1.3048  0.1192
  169SOPE  H12B19023   0.766   3.812   6.401  0.5675  1.0033 -1.1727
  169SOPE   C1119024   0.577   3.882   6.329 -0.6391 -0.4361  0.4269
  169SOPE  H11A19025   0.511   3.868   6.241 -1.0036 -0.0957  0.6386
  169SOPE  H11B19026   0.622   3.982   6.320 -0.1260 -0.6571  0.5169
  169SOPE     P19027   0.352   3.897   6.480 -0.4313  0.0071  0.5346
  169SOPE   O1319028   0.286   3.768   6.511 -0.3516 -0.0697  0.2057
  169SOPE   O1419029   0.296   3.963   6.362  0.7422  0.0119 -0.2289
  169SOPE   O1219030   0.505   3.869   6.454  0.2399  0.3951  0.1288
  169SOPE   O1119031   0.342   3.982   6.612  0.1550 -0.0075 -0.3045
  169SOPE    C119032   0.448   3.984   6.710  0.0519 -0.7035  0.2049
  169SOPE    HA19033   0.430   4.061   6.788  1.1507 -1.2175  0.9871
  169SOPE    HB19034   0.546   4.015   6.667 -0.3163  0.4756  0.1863
  169SOPE    C219035   0.456   3.847   6.791 -0.0630  0.7721  0.0147
  169SOPE    HS19036   0.494   3.772   6.718  1.2850  1.4095  0.0350
  169SOPE   O2119037   0.323   3.803   6.837 -0.5496 -0.1313 -0.1478
  169SOPE   C2119038   0.311   3.668   6.851 -0.1598 -0.5161 -0.4088
  169SOPE   O2219039   0.397   3.590   6.820  0.1024 -0.0103  0.1807
  169SOPE   C2219040   0.181   3.625   6.923  0.5913 -0.6750 -0.4575
  169SOPE   H2R19041   0.102   3.599   6.849 -1.5546  1.1743  1.0729
  169SOPE   H2S19042   0.148   3.715   6.978  1.7910 -0.4094 -0.1483
  169SOPE    C319043   0.562   3.869   6.904 -0.7363 -0.0203  0.3360
  169SOPE    HX19044   0.575   3.772   6.956  1.1293 -0.4755 -0.8670
  169SOPE    HY19045   0.530   3.942   6.981 -0.2478  0.3762  0.1648
  169SOPE   O3119046   0.690   3.920   6.847 -0.1578  0.4191 -0.0387
  169SOPE   C3119047   0.770   3.822   6.799 -0.3116  0.1028 -0.7709
  169SOPE   O3219048   0.739   3.703   6.795  0.2422 -0.1375 -0.1904
  169SOPE   C3219049   0.915   3.884   6.767  1.3178  0.0255 -0.1427
  169SOPE   H2X19050   0.922   3.995   6.778 -2.0805  0.4794 -1.1890
  169SOPE   H2Y19051   0.928   3.852   6.661  0.1775  1.5897 -0.8012
  169SOPE   C2319052   0.182   3.506   7.020  0.1807  0.5786  0.3037
  169SOPE   H3R19053   0.241   3.424   6.971  0.7625  1.0288  0.2402
  169SOPE   H3S19054   0.079   3.471   7.043  0.4994  0.0646  0.9971
  169SOPE   C2419055   0.251   3.532   7.155 -0.4408  1.0579 -0.1893
  169SOPE   H4R19056   0.223   3.454   7.230  2.3130  2.0952  2.1003
  169SOPE   H4S19057   0.359   3.512   7.140 -0.5202  0.2833  0.2034
  169SOPE   C2519058   0.232   3.660   7.233 -0.2179 -0.9370 -1.2777
  169SOPE   H5R19059   0.259   3.756   7.185  0.4430 -1.2723 -1.5974
  169SOPE   H5S19060   0.123   3.664   7.253 -0.2047 -2.4995 -0.7602
  169SOPE   C2619061   0.305   3.639   7.363 -0.7680 -0.0789  0.1730
  169SOPE   H6R19062   0.253   3.574   7.437 -1.8096  1.3104  0.7072
  169SOPE   H6S19063   0.398   3.583   7.338 -2.0231 -2.0751 -0.2471
  169SOPE   C2719064   0.339   3.770   7.429 -0.6446  0.1152 -0.3946
  169SOPE   H7R19065   0.370   3.845   7.352 -0.2506  1.1058  0.6932
  169SOPE   H7S19066   0.246   3.798   7.482 -1.4018 -1.6523 -0.7422
  169SOPE   C2819067   0.448   3.747   7.542  0.3535 -0.5196  0.1157
  169SOPE   H8R19068   0.439   3.815   7.629 -1.3374 -2.6848  1.7428
  169SOPE   H8S19069   0.417   3.650   7.587 -0.5131 -0.2711  0.0650
  169SOPE   C2919070   0.581   3.733   7.482  0.7954  0.0468 -0.1286
  169SOPE   H9119071   0.579   3.764   7.376 -2.3670  1.7183  0.3127
  169SOPE  C21019072   0.692   3.683   7.533  0.1298  0.6492  0.1139
  169SOPE  H10119073   0.776   3.655   7.468 -1.0703 -0.6160 -0.9460
  169SOPE  C21119074   0.701   3.629   7.669  0.0972 -0.3728 -0.5134
  169SOPE  H11R19075   0.786   3.558   7.677  0.1164 -0.2379  0.8062
  169SOPE  H11S19076   0.607   3.572   7.688 -0.3547  0.5056 -0.0541
  169SOPE  C21219077   0.715   3.741   7.773 -0.0170 -0.4050  0.3799
  169SOPE  H12R19078   0.623   3.804   7.766 -0.2010 -0.8202 -1.5759
  169SOPE  H12S19079   0.804   3.798   7.740 -0.4683  0.0177 -0.1359
  169SOPE  C21319080   0.749   3.689   7.912 -0.2983  0.6081 -0.2936
  169SOPE  H13R19081   0.855   3.655   7.905 -0.3722  0.2525  0.3121
  169SOPE  H13S19082   0.688   3.601   7.938  1.4933 -0.2890  1.0556
  169SOPE  C21419083   0.717   3.794   8.019  0.0515  0.2309 -0.0962
  169SOPE  H14R19084   0.608   3.804   8.038 -0.5241 -0.2943 -2.6510
  169SOPE  H14S19085   0.742   3.900   7.997 -0.2930  0.0420 -1.4909
  169SOPE  C21519086   0.793   3.760   8.148  0.4060  0.8548 -0.2252
  169SOPE  H15R19087   0.903   3.774   8.138  0.8219 -2.0930 -0.7952
  169SOPE  H15S19088   0.789   3.649   8.150 -3.4156  0.8828  0.0466
  169SOPE  C21619089   0.738   3.824   8.274  0.1156  0.1023  0.3278
  169SOPE  H16R19090   0.629   3.802   8.267 -0.3702  2.5639 -0.8251
  169SOPE  H16S19091   0.740   3.935   8.269  1.3632  0.2497  2.6206
  169SOPE  C21719092   0.809   3.772   8.390  0.0806  0.5052 -0.7827
  169SOPE  H17R19093   0.914   3.807   8.386  0.3786 -0.2044  0.3390
  169SOPE  H17S19094   0.815   3.661   8.390 -2.0749  0.2652  2.0071
  169SOPE  C21819095   0.735   3.816   8.524  0.3421  0.1701 -0.9394
  169SOPE  H18R19096   0.774   3.759   8.612  1.8576 -0.0265 -1.6969
  169SOPE  H18S19097   0.626   3.810   8.506  0.2971  2.2323 -1.5840
  169SOPE  H18T19098   0.756   3.920   8.556 -1.3634  0.0132  0.8577
  169SOPE   C3319099   1.031   3.808   6.843  0.2344 -1.0146 -0.0923
  169SOPE   H3X19100   1.123   3.832   6.786  1.2012  0.1482  1.8515
  169SOPE   H3Y19101   1.013   3.698   6.849 -0.7089 -0.8449  0.2566
  169SOPE   C3419102   1.052   3.847   6.987 -0.3422 -0.5848 -0.6201
  169SOPE   H4X19103   1.024   3.954   6.993  2.0951  0.1150 -0.6427
  169SOPE   H4Y19104   1.158   3.831   7.016 -0.7011  1.9179  2.6033
  169SOPE   C3519105   0.964   3.768   7.078 -0.6305  0.5504  0.2104
  169SOPE   H5X19106   1.005   3.665   7.076 -1.4437  0.2100 -1.9674
  169SOPE   H5Y19107   0.864   3.756   7.031  0.4592  0.7375 -2.3199
  169SOPE   C3619108   0.962   3.827   7.217 -0.3622 -0.1080  0.0129
  169SOPE   H6X19109   0.873   3.791   7.273  1.7285 -1.1666  2.8606
  169SOPE   H6Y19110   0.944   3.935   7.198  1.5214 -0.1093 -2.2215
  169SOPE   C3719111   1.082   3.790   7.297  0.3626  0.3369 -0.5959
  169SOPE   H7X19112   1.175   3.838   7.259  0.2727 -0.1945 -1.5211
  169SOPE   H7Y19113   1.104   3.681   7.303  3.9519  0.8434 -1.8893
  169SOPE   C3819114   1.070   3.844   7.441 -0.2627 -0.4088  0.1318
  169SOPE   H8X19115   1.061   3.954   7.424 -0.0195 -0.3006  0.6620
  169SOPE   H8Y19116   0.979   3.799   7.485 -0.2729  1.4449  2.2150
  169SOPE   C3919117   1.183   3.814   7.544  0.0910 -0.5618 -0.4281
  169SOPE   H9X19118   1.279   3.864   7.519  0.1623 -1.3972 -1.9081
  169SOPE   H9Y19119   1.205   3.705   7.544  1.0830 -0.3784 -1.6796
  169SOPE  C31019120   1.124   3.853   7.696 -0.1099  0.5177  0.7919
  169SOPE  H10X19121   1.046   3.782   7.731  0.1669 -0.6698 -0.8649
  169SOPE  H10Y19122   1.070   3.950   7.701 -0.2618  0.3666  3.5315
  169SOPE  C31119123   1.237   3.865   7.806 -0.1653 -0.4007  0.2015
  169SOPE  H11X19124   1.310   3.943   7.774  3.0328 -3.1661  0.2191
  169SOPE  H11Y19125   1.299   3.774   7.822 -0.0933 -0.3608  0.1493
  169SOPE  C31219126   1.174   3.912   7.939  0.2687  0.0862  0.9367
  169SOPE  H12X19127   1.102   3.835   7.974  0.4859 -0.7438 -0.3551
  169SOPE  H12Y19128   1.110   3.998   7.910  1.5394 -0.1103 -3.1304
  169SOPE  C31319129   1.283   3.936   8.051  0.6934  0.6499 -0.6631
  169SOPE  H13X19130   1.351   4.016   8.014  0.2576  0.9131 -0.9196
  169SOPE  H13Y19131   1.334   3.838   8.054 -0.4467  0.0208 -1.1803
  169SOPE  C31419132   1.206   3.955   8.185 -0.0642 -0.4726 -0.9299
  169SOPE  H14X19133   1.124   3.880   8.184  1.1755 -1.8676 -0.7566
  169SOPE  H14Y19134   1.156   4.054   8.176  1.6390  0.4731 -0.4003
  169SOPE  C31519135   1.299   3.958   8.310  0.8400  0.6457  0.3855
  169SOPE  H15X19136   1.382   3.889   8.285 -0.5591 -0.6107 -0.9745
  169SOPE  H15Y19137   1.243   3.931   8.402  1.2697  2.2060  1.1459
  169SOPE  C31619138   1.338   4.107   8.336  0.0159  0.0747 -0.4672
  169SOPE  H16X19139   1.251   4.174   8.354 -0.1178  0.3063 -1.8778
  169SOPE  H16Y19140   1.392   4.149   8.248  0.0776 -0.6144 -0.7639
  169SOPE  C31719141   1.423   4.104   8.463  0.1322  0.4020  0.3853
  169SOPE  H17X19142   1.498   4.024   8.451 -0.3504 -0.4531  2.5907
  169SOPE  H17Y19143   1.360   4.075   8.550 -0.4455  1.1407  0.2229
  169SOPE  C31819144   1.467   4.244   8.494 -0.6844  0.2373  0.3580
  169SOPE  H18X19145   1.527   4.238   8.587 -1.5266  1.9171  1.0406
  169SOPE  H18Y19146   1.382   4.309   8.526  0.8532  4.2942 -2.9716
  169SOPE  H18Z19147   1.538   4.290   8.423 -1.3741  0.8783  0.0754
  170SOPE     N19148   1.765   1.667   6.061 -0.6104 -0.3264 -0.0746
  170SOPE   HN119149   1.864   1.696   6.057  0.0582 -2.4485 -0.2400
  170SOPE   HN219150   1.764   1.563   6.070  0.2298 -0.3153  0.2643
  170SOPE   HN319151   1.726   1.690   5.968 -1.2796  1.4679  0.6146
  170SOPE   C1219152   1.689   1.745   6.167 -0.3530  0.6962  0.7126
  170SOPE  H12A19153   1.726   1.713   6.266  1.1453  0.7556  0.1970
  170SOPE  H12B19154   1.581   1.737   6.142 -0.0114 -0.5635 -0.4801
  170SOPE   C1119155   1.724   1.893   6.147  0.0080  0.0913 -0.0670
  170SOPE  H11A19156   1.663   1.954   6.217 -0.4913 -1.2117  0.6514
  170SOPE  H11B19157   1.685   1.925   6.048  0.7136  1.6274  0.1260
  170SOPE     P19158   1.938   1.968   6.294  0.1937 -0.2803  0.0147
  170SOPE   O1319159   1.895   2.104   6.328  0.5583 -0.4812 -0.6551
  170SOPE   O1419160   2.077   1.946   6.267 -0.5586  0.3880  0.1487
  170SOPE   O1219161   1.863   1.919   6.163  0.4384 -0.6423 -0.3756
  170SOPE   O1119162   1.889   1.867   6.403 -0.0115  0.0832  0.5207
  170SOPE    C119163   1.795   1.883   6.507  0.3655  0.0957 -0.6284
  170SOPE    HA19164   1.787   1.787   6.563  1.7016  1.2993  1.7810
  170SOPE    HB19165   1.697   1.899   6.457 -0.5257 -0.7493  0.7947
  170SOPE    C219166   1.834   1.991   6.618  0.8170  1.2069  0.1206
  170SOPE    HS19167   1.834   2.090   6.567  0.5310 -0.0339 -2.4202
  170SOPE   O2119168   1.954   1.940   6.672  0.4996  0.1244  0.7913
  170SOPE   C2119169   2.039   2.028   6.711  0.5912 -0.1280 -0.3071
  170SOPE   O2219170   2.032   2.146   6.696  0.7996 -0.1394  0.0319
  170SOPE   C2219171   2.159   1.954   6.773  0.1396 -0.5728 -0.0296
  170SOPE   H2R19172   2.205   1.886   6.699 -1.1159 -1.7725  0.2721
  170SOPE   H2S19173   2.118   1.887   6.852 -0.0039 -0.6756 -0.1918
  170SOPE    C319174   1.732   2.004   6.736  0.0879  0.6536 -0.1518
  170SOPE    HX19175   1.727   1.902   6.779 -1.8184 -0.2529 -2.2964
  170SOPE    HY19176   1.628   2.030   6.705 -1.1282 -2.7367  0.6328
  170SOPE   O3119177   1.786   2.079   6.847 -0.4513  0.1461 -0.7635
  170SOPE   C3119178   1.736   2.195   6.876  0.2302  0.1637  0.2092
  170SOPE   O3219179   1.626   2.232   6.841  0.1359 -0.1436 -0.2014
  170SOPE   C3219180   1.817   2.279   6.972  0.0755 -0.6525 -0.5244
  170SOPE   H2X19181   1.839   2.378   6.926  1.5003 -0.0645  1.2761
  170SOPE   H2Y19182   1.915   2.227   6.984 -0.8646 -2.5533 -0.7004
  170SOPE   C2319183   2.273   2.050   6.827  0.2611  0.3036  0.6238
  170SOPE   H3R19184   2.314   2.107   6.741 -0.1547 -0.8687 -0.3924
  170SOPE   H3S19185   2.343   1.967   6.847 -2.3994 -2.2521  0.0681
  170SOPE   C2419186   2.232   2.132   6.949 -0.8696 -0.1859  0.5838
  170SOPE   H4R19187   2.320   2.189   6.987  0.1992 -0.7097 -1.0034
  170SOPE   H4S19188   2.162   2.213   6.919 -1.0001 -1.1519 -1.9276
  170SOPE   C2519189   2.182   2.030   7.048 -0.5606  0.6206 -0.6815
  170SOPE   H5R19190   2.075   2.011   7.026 -0.2725 -1.3229 -0.6126
  170SOPE   H5S19191   2.233   1.932   7.035 -2.9339 -0.8127  0.2299
  170SOPE   C2619192   2.217   2.076   7.191  0.0318 -0.7915  0.2655
  170SOPE   H6R19193   2.321   2.037   7.198  0.4786  0.4348  0.7315
  170SOPE   H6S19194   2.223   2.185   7.212 -0.8491 -1.1276  2.5042
  170SOPE   C2719195   2.108   2.037   7.300  0.5500  0.4683  0.2656
  170SOPE   H7R19196   2.019   2.102   7.285  0.4344  0.8267  2.2559
  170SOPE   H7S19197   2.094   1.928   7.289 -0.8158  0.6239  0.3461
  170SOPE   C2819198   2.157   2.057   7.440 -0.3171 -0.4064 -1.0262
  170SOPE   H8R19199   2.076   2.017   7.504 -1.6139  2.3051 -0.8388
  170SOPE   H8S19200   2.249   2.000   7.462 -0.1930  1.0237  3.0187
  170SOPE   C2919201   2.178   2.197   7.484  0.5948  0.0662  0.2956
  170SOPE   H9119202   2.151   2.277   7.413 -4.0308 -3.3034 -2.2754
  170SOPE  C21019203   2.227   2.223   7.607  0.8744 -0.6484 -0.5761
  170SOPE  H10119204   2.243   2.327   7.638  0.0302 -1.0033  1.1317
  170SOPE  C21119205   2.255   2.132   7.725  0.0116  0.1196  0.0316
  170SOPE  H11R19206   2.351   2.078   7.711  0.3886  0.5072  0.9954
  170SOPE  H11S19207   2.179   2.051   7.732 -1.3906  1.3646 -0.4373
  170SOPE  C21219208   2.270   2.217   7.854 -0.4722 -0.0897  0.1942
  170SOPE  H12R19209   2.171   2.266   7.863 -0.9712 -0.5437 -2.0552
  170SOPE  H12S19210   2.351   2.293   7.849 -0.9103  0.4970  1.6324
  170SOPE  C21319211   2.286   2.138   7.979  0.4937  0.7579  0.2744
  170SOPE  H13R19212   2.261   2.031   7.963  0.0600  0.8098  0.5871
  170SOPE  H13S19213   2.213   2.169   8.057  0.7758  0.1402  0.8066
  170SOPE  C21419214   2.429   2.131   8.039  0.0100  0.2618  0.0815
  170SOPE  H14R19215   2.471   2.230   8.068 -0.4557  0.8827 -1.3105
  170SOPE  H14S19216   2.489   2.094   7.953 -0.4873 -0.8616  0.1994
  170SOPE  C21519217   2.453   2.030   8.154  1.1794 -0.9125 -0.0786
  170SOPE  H15R19218   2.389   1.943   8.127  1.5345 -0.5578 -2.2759
  170SOPE  H15S19219   2.416   2.087   8.242 -0.5568 -0.2102 -1.1987
  170SOPE  C21619220   2.598   1.990   8.176 -0.8143  0.3138  0.4600
  170SOPE  H16R19221   2.655   2.083   8.194  0.8918 -0.8333  1.2979
  170SOPE  H16S19222   2.634   1.931   8.089  0.4411  0.7490  0.6646
  170SOPE  C21719223   2.619   1.894   8.293  0.2913  0.5251 -0.1156
  170SOPE  H17R19224   2.572   1.795   8.277  1.3236  0.0424 -0.2561
  170SOPE  H17S19225   2.562   1.929   8.382  0.2530 -0.8217  0.4115
  170SOPE  C21819226   2.768   1.884   8.338  0.1328 -0.4760 -0.6162
  170SOPE  H18R19227   2.828   1.971   8.371 -3.7591  1.4426  2.2386
  170SOPE  H18S19228   2.822   1.831   8.257 -0.7873 -1.0744 -0.8514
  170SOPE  H18T19229   2.771   1.813   8.423 -0.8582  0.9851  0.6893
  170SOPE   C3319230   1.745   2.288   7.108  0.3362 -0.3314  0.4264
  170SOPE   H3X19231   1.716   2.184   7.134  1.0914 -1.3317 -2.2964
  170SOPE   H3Y19232   1.655   2.352   7.095 -0.0341 -0.9825 -0.3051
  170SOPE   C3419233   1.829   2.345   7.220 -0.3531  0.4824  0.5522
  170SOPE   H4X19234   1.852   2.450   7.192 -1.1553 -0.0079 -2.2437
  170SOPE   H4Y19235   1.925   2.288   7.225  0.4808  1.8385  0.4686
  170SOPE   C3519236   1.755   2.348   7.353 -0.1127 -0.0221 -0.4452
  170SOPE   H5X19237   1.683   2.263   7.348  0.2118 -0.2678 -1.2079
  170SOPE   H5Y19238   1.684   2.431   7.371 -0.8804 -0.4621 -1.3711
  170SOPE   C3619239   1.850   2.333   7.471 -0.2940  0.0765 -0.2401
  170SOPE   H6X19240   1.918   2.419   7.486  0.0692 -0.8001  4.7108
  170SOPE   H6Y19241   1.919   2.246   7.464  0.6397  0.8975 -1.6345
  170SOPE   C3719242   1.770   2.306   7.594  0.5424 -0.2050  1.4844
  170SOPE   H7X19243   1.723   2.207   7.581 -1.4583  0.6063  2.2326
  170SOPE   H7Y19244   1.692   2.385   7.604  0.6398 -0.1160  1.5417
  170SOPE   C3819245   1.847   2.293   7.725 -0.8060  0.1485  0.0016
  170SOPE   H8X19246   1.927   2.369   7.714 -0.1870 -0.6342 -1.1234
  170SOPE   H8Y19247   1.901   2.196   7.724 -0.8398  0.1249  0.3615
  170SOPE   C3919248   1.755   2.296   7.842  0.6762 -0.0337 -0.2368
  170SOPE   H9X19249   1.664   2.236   7.825 -0.5984  1.4329  1.0720
  170SOPE   H9Y19250   1.717   2.398   7.866 -1.3964 -0.9990  0.8638
  170SOPE  C31019251   1.823   2.244   7.974  0.0520 -0.1208  0.3943
  170SOPE  H10X19252   1.904   2.317   7.993 -0.2854  0.3714 -0.0388
  170SOPE  H10Y19253   1.885   2.153   7.960  0.1255  0.1051 -0.7778
  170SOPE  C31119254   1.745   2.249   8.108  0.2152  0.2309  0.0277
  170SOPE  H11X19255   1.667   2.171   8.110 -0.6247  1.0632  0.3876
  170SOPE  H11Y19256   1.689   2.345   8.117  0.8675  0.5323  1.0191
  170SOPE  C31219257   1.849   2.256   8.222  0.8132 -0.1672  0.8236
  170SOPE  H12X19258   1.802   2.258   8.322  0.8920 -3.0423  0.9735
  170SOPE  H12Y19259   1.907   2.350   8.209 -0.4002  0.3879 -1.0673
  170SOPE  C31319260   1.941   2.134   8.224  0.3079 -0.3621  0.3539
  170SOPE  H13X19261   2.012   2.151   8.140  0.0891  0.0143  0.2416
  170SOPE  H13Y19262   1.893   2.034   8.212  2.3456 -1.4473  0.7847
  170SOPE  C31419263   2.030   2.120   8.352  0.3145 -0.2801  0.4538
  170SOPE  H14X19264   2.098   2.208   8.348  0.4267 -0.3453  0.9536
  170SOPE  H14Y19265   2.095   2.033   8.328 -0.1738 -0.8421  1.1316
  170SOPE  C31519266   1.962   2.099   8.491  0.3879  0.9143  0.9652
  170SOPE  H15X19267   1.908   2.187   8.533  0.3716  0.2904  2.3059
  170SOPE  H15Y19268   2.039   2.067   8.564 -0.9406 -1.1550  1.5619
  170SOPE  C31619269   1.865   1.976   8.491 -0.3405  0.8759 -0.1818
  170SOPE  H16X19270   1.923   1.889   8.456 -0.0046  0.7569  0.6480
  170SOPE  H16Y19271   1.781   1.987   8.420 -2.4103 -0.2206  1.9471
  170SOPE  C31719272   1.812   1.928   8.629 -0.3975 -0.5234  0.9695
  170SOPE  H17X19273   1.755   2.007   8.681  0.0482 -2.0109  3.9936
  170SOPE  H17Y19274   1.902   1.908   8.692 -0.1751 -0.0794  0.7971
  170SOPE  C31819275   1.732   1.800   8.623 -0.3208 -0.4480  0.7028
  170SOPE  H18X19276   1.791   1.711   8.594 -1.2522 -0.2469 -2.1371
  170SOPE  H18Y19277   1.665   1.804   8.534  0.8921 -1.0426 -0.2707
  170SOPE  H18Z19278   1.679   1.781   8.719 -0.1140  0.8122  1.0863
  171SOPE     N19279   1.918   4.789   6.252  0.0381 -0.5245  0.2626
  171SOPE   HN119280   2.003   4.770   6.196  0.4541 -0.0041  0.7024
  171SOPE   HN219281   1.853   4.725   6.203 -0.9196  0.0988  0.6923
  171SOPE   HN319282   1.899   4.890   6.238  0.9535 -0.3574  0.1534
  171SOPE   C1219283   1.945   4.770   6.398 -0.3960  0.1620 -0.0363
  171SOPE  H12A19284   2.015   4.683   6.408  2.4439  2.1394 -1.2915
  171SOPE  H12B19285   1.843   4.753   6.437  0.1174 -2.5421  0.3717
  171SOPE   C1119286   2.009   4.898   6.460  0.3290  0.1193  0.4019
  171SOPE  H11A19287   2.022   4.882   6.569 -0.4123  3.1431  1.0278
  171SOPE  H11B19288   1.940   4.983   6.441 -0.0165 -0.4963 -1.3192
  171SOPE     P19289   2.234   5.034   6.434  0.0052  0.3692  0.1379
  171SOPE   O1319290   2.170   5.148   6.359  0.5236 -0.0772  0.9053
  171SOPE   O1419291   2.378   4.998   6.406  0.2214 -0.0866  0.2220
  171SOPE   O1219292   2.140   4.906   6.408 -0.3213  0.4259  0.5012
  171SOPE   O1119293   2.226   5.060   6.589  0.9303  0.0706 -0.1850
  171SOPE    C119294   2.310   5.010   6.692 -0.9120 -0.2330 -1.1054
  171SOPE    HA19295   2.367   4.920   6.657 -1.0333 -0.6541 -0.2481
  171SOPE    HB19296   2.256   4.959   6.774  1.0816  3.1401  2.6204
  171SOPE    C219297   2.399   5.125   6.746 -0.3513 -0.1377 -0.4038
  171SOPE    HS19298   2.488   5.130   6.680  0.9570 -0.3324  1.3114
  171SOPE   O2119299   2.436   5.096   6.882 -0.3100 -0.6819  0.2952
  171SOPE   C2119300   2.526   5.002   6.893 -0.0491 -0.0453  0.1273
  171SOPE   O2219301   2.603   4.970   6.805  0.3499 -0.0213  0.5311
  171SOPE   C2219302   2.509   4.932   7.032 -0.6160 -0.5380 -0.5326
  171SOPE   H2R19303   2.458   4.838   7.000 -0.2413 -1.1383  0.5912
  171SOPE   H2S19304   2.439   4.997   7.089 -0.3108 -0.6269 -0.0542
  171SOPE    C319305   2.326   5.260   6.749 -0.0446  0.0981 -0.4942
  171SOPE    HX19306   2.231   5.265   6.806 -0.9474  0.5862 -1.9726
  171SOPE    HY19307   2.303   5.274   6.641  0.8183 -1.4575 -0.9095
  171SOPE   O3119308   2.405   5.362   6.806 -0.0431 -0.3689  0.0389
  171SOPE   C3119309   2.504   5.411   6.729 -0.7986 -0.2478 -0.2543
  171SOPE   O3219310   2.514   5.396   6.609  0.3686 -0.5116 -0.2528
  171SOPE   C3219311   2.590   5.511   6.810  0.5582 -0.2540 -0.0504
  171SOPE   H2X19312   2.531   5.569   6.884  1.5366  0.9796 -0.1882
  171SOPE   H2Y19313   2.626   5.584   6.734 -0.4033 -0.6873 -0.9425
  171SOPE   C2319314   2.636   4.899   7.110 -0.1507 -0.2889 -0.6392
  171SOPE   H3R19315   2.676   4.994   7.154 -0.9119 -0.1468 -0.2426
  171SOPE   H3S19316   2.708   4.855   7.038 -1.0390 -3.7524  0.3906
  171SOPE   C2419317   2.610   4.794   7.219 -0.3617  0.0654 -0.3480
  171SOPE   H4R19318   2.532   4.840   7.283 -0.7054 -2.5210  1.2419
  171SOPE   H4S19319   2.563   4.711   7.163  1.1425 -0.4557 -0.8938
  171SOPE   C2519320   2.729   4.746   7.293 -0.3640 -0.9020  0.4800
  171SOPE   H5R19321   2.777   4.674   7.223  0.0838  0.4441 -0.6350
  171SOPE   H5S19322   2.793   4.833   7.317 -0.2887 -0.6930 -0.4413
  171SOPE   C2619323   2.710   4.674   7.431 -0.1650 -0.2654  0.0354
  171SOPE   H6R19324   2.670   4.759   7.490 -1.3098 -0.5873 -0.2470
  171SOPE   H6S19325   2.642   4.587   7.418 -0.1938 -0.4001  1.0396
  171SOPE   C2719326   2.846   4.638   7.488  0.0915 -0.7529 -0.3675
  171SOPE   H7R19327   2.870   4.544   7.435 -3.6962 -1.5198 -1.0204
  171SOPE   H7S19328   2.919   4.717   7.461 -1.3934  1.3529  1.3906
  171SOPE   C2819329   2.847   4.620   7.638  0.2652  0.2744 -0.3950
  171SOPE   H8R19330   2.785   4.533   7.669 -1.5360  1.7966  0.4410
  171SOPE   H8S19331   2.953   4.591   7.655 -0.2442 -0.9628  0.8383
  171SOPE   C2919332   2.814   4.739   7.715  0.2892  0.2236 -0.4309
  171SOPE   H9119333   2.778   4.824   7.655 -0.0770  1.6603  1.7279
  171SOPE  C21019334   2.817   4.739   7.848 -0.1367 -0.6362  0.9533
  171SOPE  H10119335   2.809   4.838   7.896  2.9187 -0.0412  0.4484
  171SOPE  C21119336   2.849   4.614   7.940  0.2381 -0.7528  0.0348
  171SOPE  H11R19337   2.955   4.581   7.942  0.5229  0.0714 -0.8895
  171SOPE  H11S19338   2.800   4.522   7.902 -1.0361 -1.4351  2.9999
  171SOPE  C21219339   2.795   4.630   8.091 -0.4416  0.7200  0.1674
  171SOPE  H12R19340   2.686   4.644   8.077 -0.6410 -1.2722 -0.4842
  171SOPE  H12S19341   2.836   4.724   8.135  1.1939  1.1489 -2.0971
  171SOPE  C21319342   2.831   4.508   8.178  0.6393  0.4312  0.1943
  171SOPE  H13R19343   2.786   4.523   8.279  0.7819  0.9551  0.1839
  171SOPE  H13S19344   2.939   4.483   8.176  0.0952 -2.2473  0.7810
  171SOPE  C21419345   2.755   4.383   8.126 -0.1984  0.7929 -0.3532
  171SOPE  H14R19346   2.793   4.340   8.031  0.0206 -1.7239  0.8043
  171SOPE  H14S19347   2.647   4.408   8.116 -0.5587  0.1696  1.6458
  171SOPE  C21519348   2.762   4.267   8.226  0.0184 -0.2690  0.0404
  171SOPE  H15R19349   2.691   4.185   8.204  0.8265 -1.0952  0.4244
  171SOPE  H15S19350   2.727   4.315   8.320 -0.2039  2.1809 -1.2235
  171SOPE  C21619351   2.908   4.218   8.252  0.2022 -0.1443  0.9109
  171SOPE  H16R19352   2.978   4.302   8.268 -1.1323  1.2921 -0.3788
  171SOPE  H16S19353   2.958   4.180   8.160 -1.0704  2.7436 -1.1086
  171SOPE  C21719354   2.912   4.108   8.360 -0.0978 -0.0313 -0.0293
  171SOPE  H17R19355   2.846   4.023   8.333  0.2258 -0.9815  2.0365
  171SOPE  H17S19356   2.872   4.151   8.454 -1.0683  0.5816 -0.6941
  171SOPE  C21819357   3.057   4.058   8.372 -0.2716  0.2334  0.4047
  171SOPE  H18R19358   3.054   3.978   8.449 -2.5015  1.7768  2.0690
  171SOPE  H18S19359   3.113   4.143   8.416  0.5663 -0.7136  1.2177
  171SOPE  H18T19360   3.105   4.016   8.282  0.2692  0.2088  0.6976
  171SOPE   C3319361   2.711   5.434   6.876  0.7869 -0.2821 -0.1848
  171SOPE   H3X19362   2.782   5.510   6.916  0.2149 -0.6106  1.5658
  171SOPE   H3Y19363   2.764   5.374   6.799 -0.9097  0.4543 -2.0030
  171SOPE   C3419364   2.662   5.346   7.000 -0.5860  0.6035 -0.3065
  171SOPE   H4X19365   2.755   5.294   7.031 -0.5213  1.0278  0.2340
  171SOPE   H4Y19366   2.592   5.266   6.968  0.0024  0.9027 -2.4921
  171SOPE   C3519367   2.605   5.435   7.119  0.3287  0.1151  0.0151
  171SOPE   H5X19368   2.498   5.451   7.092  0.3068 -1.2107 -0.7464
  171SOPE   H5Y19369   2.651   5.535   7.099  0.0294 -0.3321 -3.5102
  171SOPE   C3619370   2.630   5.389   7.262  0.4252  0.2840  0.4476
  171SOPE   H6X19371   2.602   5.473   7.329 -0.2309  0.6511 -0.2652
  171SOPE   H6Y19372   2.733   5.355   7.286  2.5739  3.4825 -3.0180
  171SOPE   C3719373   2.533   5.269   7.289  0.2046 -0.1120 -0.2117
  171SOPE   H7X19374   2.569   5.182   7.230  3.7655  1.2586 -0.3588
  171SOPE   H7Y19375   2.432   5.289   7.250  0.2668  2.4226  0.7298
  171SOPE   C3819376   2.542   5.231   7.435  0.3354 -0.3730  0.2838
  171SOPE   H8X19377   2.501   5.128   7.447  2.0809 -1.1700 -0.2470
  171SOPE   H8Y19378   2.493   5.311   7.495  0.4199  0.9756 -1.3748
  171SOPE   C3919379   2.675   5.228   7.508 -0.1395 -0.4345  0.0060
  171SOPE   H9X19380   2.730   5.323   7.516  2.0181 -1.6447  0.1895
  171SOPE   H9Y19381   2.746   5.162   7.454  1.2487  1.0033  0.0223
  171SOPE  C31019382   2.662   5.186   7.651 -0.0570  0.2411 -0.4350
  171SOPE  H10X19383   2.601   5.093   7.664  1.5878 -0.5038  3.6001
  171SOPE  H10Y19384   2.614   5.264   7.715 -0.5623 -0.9805  0.7419
  171SOPE  C31119385   2.797   5.145   7.722  0.6650 -0.7760 -1.0088
  171SOPE  H11X19386   2.871   5.223   7.697  1.5218 -0.3893  2.2567
  171SOPE  H11Y19387   2.828   5.049   7.675 -0.5106 -1.5126 -0.3266
  171SOPE  C31219388   2.778   5.138   7.874 -0.2493 -1.1039 -0.1367
  171SOPE  H12X19389   2.698   5.066   7.902 -0.3112 -1.1000 -0.3016
  171SOPE  H12Y19390   2.756   5.243   7.904  3.3926 -0.3335  0.3185
  171SOPE  C31319391   2.903   5.088   7.952 -0.4345  0.1614  0.0327
  171SOPE  H13X19392   2.986   5.160   7.934 -0.6948  0.3567 -0.4114
  171SOPE  H13Y19393   2.929   4.991   7.906 -0.4736  0.7389 -1.2775
  171SOPE  C31419394   2.867   5.071   8.101 -0.1367  0.0749  0.5440
  171SOPE  H14X19395   2.793   4.991   8.122 -1.4551  0.8061 -1.0567
  171SOPE  H14Y19396   2.814   5.165   8.129  0.1524  0.1245  0.9180
  171SOPE  C31519397   2.987   5.061   8.194  0.2508 -0.0683  0.6502
  171SOPE  H15X19398   3.060   4.985   8.161 -0.3562 -0.2993 -0.2041
  171SOPE  H15Y19399   2.940   5.022   8.287  0.6705  2.1163  1.8464
  171SOPE  C31619400   3.062   5.189   8.233 -0.1908 -0.3730 -0.0716
  171SOPE  H16X19401   3.003   5.279   8.258  0.9056 -0.1649  2.0299
  171SOPE  H16Y19402   3.112   5.228   8.143  1.5896  0.3225  1.1648
  171SOPE  C31719403   3.154   5.174   8.348 -0.1624 -0.3421  0.1899
  171SOPE  H17X19404   3.240   5.112   8.316  0.4498  0.4472  0.2555
  171SOPE  H17Y19405   3.105   5.108   8.423 -0.7058 -0.3560 -0.1709
  171SOPE  C31819406   3.200   5.308   8.405  0.2996 -0.2340 -0.1348
  171SOPE  H18X19407   3.230   5.385   8.331  3.4751  0.3733  1.5993
  171SOPE  H18Y19408   3.293   5.300   8.465  1.2925 -2.1065 -1.8184
  171SOPE  H18Z19409   3.129   5.355   8.477  0.2041 -0.8217  0.1643
  172SOPE     N19410   2.745   6.270   6.679 -0.6542  0.8176  0.1091
  172SOPE   HN119411   2.737   6.172   6.646  0.1527 -0.5207  3.4295
  172SOPE   HN219412   2.840   6.299   6.646  0.3502 -1.5749  0.6455
  172SOPE   HN319413   2.751   6.268   6.783 -0.1167 -0.9110  0.0835
  172SOPE   C1219414   2.638   6.358   6.635 -0.0819 -0.4664  0.5529
  172SOPE  H12A19415   2.540   6.311   6.657  1.0602 -3.3289  0.0572
  172SOPE  H12B19416   2.641   6.365   6.524 -1.3272 -0.8328  0.4808
  172SOPE   C1119417   2.651   6.496   6.700  0.2734  0.3953  0.1418
  172SOPE  H11A19418   2.647   6.493   6.811  0.1751 -2.9071  0.1686
  172SOPE  H11B19419   2.562   6.553   6.667  0.6414  1.7705  1.4686
  172SOPE     P19420   2.769   6.715   6.608  0.1971 -0.0137  0.0367
  172SOPE   O1319421   2.639   6.749   6.545  0.0565 -0.2780 -0.1571
  172SOPE   O1419422   2.886   6.742   6.521  0.1946  0.0972  0.4570
  172SOPE   O1219423   2.771   6.564   6.652  0.2883 -0.2209 -0.0374
  172SOPE   O1119424   2.788   6.790   6.747  0.7199 -0.5555 -0.0381
  172SOPE    C119425   2.670   6.839   6.814 -0.4182  0.3865  0.9498
  172SOPE    HA19426   2.639   6.759   6.884  0.9466 -0.5791  0.4942
  172SOPE    HB19427   2.590   6.871   6.743 -0.2987  1.4019  1.2683
  172SOPE    C219428   2.708   6.969   6.888 -0.1830 -0.7344  0.0754
  172SOPE    HS19429   2.742   7.040   6.810  2.2936 -1.5462  0.3269
  172SOPE   O2119430   2.807   6.944   6.986  0.3367  0.1645 -0.3446
  172SOPE   C2119431   2.933   6.973   6.955  0.6853  0.1305  0.8268
  172SOPE   O2219432   2.956   7.050   6.862 -0.1307  0.0389  0.2244
  172SOPE   C2219433   3.026   6.915   7.062 -0.0691 -0.2450  0.3161
  172SOPE   H2R19434   3.119   6.877   7.013  0.3241  0.7708  0.2399
  172SOPE   H2S19435   2.978   6.832   7.117 -1.7747  1.6179  1.7918
  172SOPE    C319436   2.580   7.023   6.959  0.2376 -0.0080  0.5550
  172SOPE    HX19437   2.504   7.049   6.882  1.0640  1.8377  0.3105
  172SOPE    HY19438   2.593   7.125   7.000  0.2295  1.0866 -1.9983
  172SOPE   O3119439   2.537   6.918   7.050  0.9438  0.4802 -0.8968
  172SOPE   C3119440   2.580   6.942   7.164 -0.5844 -0.7987 -0.5159
  172SOPE   O3219441   2.592   7.052   7.212 -0.5218 -0.1535 -0.2841
  172SOPE   C3219442   2.622   6.809   7.232  0.2684  0.1036  0.1741
  172SOPE   H2X19443   2.683   6.842   7.318  2.8289  2.6145 -2.3766
  172SOPE   H2Y19444   2.689   6.754   7.163  2.1868  1.9271  0.4673
  172SOPE   C2319445   3.062   7.022   7.173  0.3746  0.0848  0.2605
  172SOPE   H3R19446   3.072   7.117   7.116  1.6800 -0.1241  0.1161
  172SOPE   H3S19447   3.155   6.994   7.227  0.2325 -2.0941 -0.5100
  172SOPE   C2419448   2.941   7.037   7.268  0.3755 -0.4221  1.0363
  172SOPE   H4R19449   2.941   7.146   7.286  0.8431  0.0011 -1.2168
  172SOPE   H4S19450   2.843   7.010   7.223  1.4540 -0.8222 -1.2166
  172SOPE   C2519451   2.960   6.957   7.393  0.2189 -0.1632 -0.4156
  172SOPE   H5R19452   2.946   6.850   7.369 -0.4082 -0.0333 -0.6409
  172SOPE   H5S19453   3.061   6.962   7.440  0.3585 -1.8595 -0.4633
  172SOPE   C2619454   2.857   7.009   7.504  0.0592 -0.0496 -0.0731
  172SOPE   H6R19455   2.885   7.114   7.523 -1.0045  0.0856  0.8487
  172SOPE   H6S19456   2.757   6.999   7.457  0.8051  1.0893 -1.9913
  172SOPE   C2719457   2.866   6.941   7.640 -0.2644  0.2937 -0.3108
  172SOPE   H7R19458   2.836   6.835   7.651  0.9929 -0.1309 -0.8388
  172SOPE   H7S19459   2.975   6.929   7.654 -0.2789 -0.2964 -0.6729
  172SOPE   C2819460   2.815   7.030   7.753 -0.1186 -0.2116 -0.1298
  172SOPE   H8R19461   2.839   6.978   7.848 -2.4063  0.2248  0.7411
  172SOPE   H8S19462   2.881   7.119   7.745  0.3551 -0.6093 -0.7042
  172SOPE   C2919463   2.664   7.053   7.735 -0.0475  0.0317  0.1233
  172SOPE   H9119464   2.637   7.118   7.651  1.3113 -1.0364 -1.2138
  172SOPE  C21019465   2.553   7.009   7.802 -0.1748 -0.5877  0.5830
  172SOPE  H10119466   2.456   7.047   7.766 -0.8121 -2.8274 -0.1777
  172SOPE  C21119467   2.559   6.917   7.926  0.2947  0.4266 -0.2223
  172SOPE  H11R19468   2.650   6.853   7.925  0.9185  1.2911 -1.7847
  172SOPE  H11S19469   2.469   6.851   7.930  0.2561  0.2464 -2.6328
  172SOPE  C21219470   2.564   6.997   8.053  0.2936  0.7321 -0.4100
  172SOPE  H12R19471   2.547   6.930   8.140 -0.2061  1.2260 -0.1189
  172SOPE  H12S19472   2.484   7.074   8.059  1.4643  1.8720  1.5229
  172SOPE  C21319473   2.699   7.073   8.081  0.3297  0.1895 -0.0073
  172SOPE  H13R19474   2.706   7.160   8.011  2.9840  0.3232  0.3139
  172SOPE  H13S19475   2.775   6.999   8.048 -0.6398 -1.2434  0.8836
  172SOPE  C21419476   2.719   7.110   8.227  0.5072 -0.2239  0.7685
  172SOPE  H14R19477   2.695   7.034   8.304 -1.7833  3.0988  3.6105
  172SOPE  H14S19478   2.640   7.184   8.249  2.1919  1.1364  2.5625
  172SOPE  C21519479   2.863   7.167   8.251  0.3303  0.0376  0.5114
  172SOPE  H15R19480   2.938   7.085   8.244  1.2164  0.8694 -0.0731
  172SOPE  H15S19481   2.873   7.208   8.354  0.5456 -0.1428  0.5629
  172SOPE  C21619482   2.897   7.287   8.168  0.2599  0.1061 -0.4652
  172SOPE  H16R19483   2.945   7.368   8.228 -1.2171  0.2819  0.5421
  172SOPE  H16S19484   2.820   7.344   8.113  0.5970 -0.8801 -2.0404
  172SOPE  C21719485   3.010   7.251   8.067 -0.3675  0.9755  0.7246
  172SOPE  H17R19486   2.980   7.187   7.981  0.5635 -1.4854  2.1265
  172SOPE  H17S19487   3.083   7.185   8.119  0.3590 -0.1117 -1.5609
  172SOPE  C21819488   3.082   7.376   8.025  0.0323  0.5942  0.1120
  172SOPE  H18R19489   3.011   7.454   7.990  0.8519  1.5790  0.5925
  172SOPE  H18S19490   3.166   7.358   7.955  0.4799  1.2980  0.4596
  172SOPE  H18T19491   3.137   7.421   8.110 -0.1403 -1.1511  1.2007
  172SOPE   C3319492   2.509   6.701   7.272  0.5346 -0.1524  0.0150
  172SOPE   H3X19493   2.547   6.597   7.287 -0.6124 -0.3790  1.5391
  172SOPE   H3Y19494   2.444   6.689   7.182 -0.5616  0.0766  0.7584
  172SOPE   C3419495   2.433   6.749   7.395  0.1785 -0.0173 -0.3516
  172SOPE   H4X19496   2.364   6.829   7.360 -1.3625 -1.7207 -1.3842
  172SOPE   H4Y19497   2.498   6.789   7.476  2.5378  0.0639 -2.2116
  172SOPE   C3519498   2.344   6.630   7.448 -0.0828 -0.4642  0.6106
  172SOPE   H5X19499   2.401   6.571   7.524 -0.4444 -1.0254  0.4523
  172SOPE   H5Y19500   2.306   6.579   7.357  1.4673  2.8646 -2.1155
  172SOPE   C3619501   2.213   6.682   7.522  0.6673  0.4348  0.2182
  172SOPE   H6X19502   2.152   6.591   7.539  1.2803  0.0272  0.2626
  172SOPE   H6Y19503   2.167   6.759   7.456  2.1838  0.9039 -0.3284
  172SOPE   C3719504   2.242   6.743   7.663  0.2644 -0.5967  0.1018
  172SOPE   H7X19505   2.309   6.831   7.652  0.7033 -0.6663  1.8950
  172SOPE   H7Y19506   2.296   6.676   7.732 -0.6727  0.7614  2.2397
  172SOPE   C3819507   2.119   6.785   7.749 -0.8189 -0.4178 -0.1053
  172SOPE   H8X19508   2.055   6.699   7.776 -1.9035  0.6902  0.9877
  172SOPE   H8Y19509   2.060   6.856   7.687 -0.2303  0.7777  0.6479
  172SOPE   C3919510   2.169   6.876   7.862 -0.1714 -0.2535 -0.1039
  172SOPE   H9X19511   2.246   6.945   7.821  0.5782  0.0424  1.7125
  172SOPE   H9Y19512   2.214   6.819   7.947  1.6012 -0.6200 -1.2302
  172SOPE  C31019513   2.057   6.967   7.928 -0.0037 -0.0685  0.7522
  172SOPE  H10X19514   1.998   6.891   7.984 -0.2710 -0.0232  0.5352
  172SOPE  H10Y19515   1.996   7.016   7.849 -1.5112 -0.5287  1.5897
  172SOPE  C31119516   2.103   7.081   8.017  0.1484  0.4708 -0.3089
  172SOPE  H11X19517   2.171   7.151   7.963  1.6422  1.6968  2.9227
  172SOPE  H11Y19518   2.169   7.033   8.092 -0.7846  1.3638  1.1156
  172SOPE  C31219519   1.975   7.151   8.072 -0.4671  0.8025  0.3882
  172SOPE  H12X19520   1.895   7.150   7.996  0.4498  0.2007 -0.5929
  172SOPE  H12Y19521   2.007   7.253   8.102  1.9261  0.7337 -1.5838
  172SOPE  C31319522   1.934   7.092   8.204 -0.2653  0.2203  0.1603
  172SOPE  H13X19523   2.026   7.100   8.266 -0.7775  0.7960  0.8632
  172SOPE  H13Y19524   1.902   6.986   8.188  2.4097 -0.3666 -2.2003
  172SOPE  C31419525   1.832   7.168   8.289  0.3983  0.6549 -0.1904
  172SOPE  H14X19526   1.734   7.148   8.241  1.1938 -0.3923 -1.4748
  172SOPE  H14Y19527   1.852   7.277   8.286  1.4073  0.4720 -2.1332
  172SOPE  C31519528   1.820   7.115   8.429 -0.2863  0.3497 -0.2575
  172SOPE  H15X19529   1.748   7.177   8.485 -0.2324  0.9859 -0.8761
  172SOPE  H15Y19530   1.924   7.113   8.467 -0.5744  0.3511  0.5517
  172SOPE  C31619531   1.766   6.969   8.439 -0.9673 -0.0675  0.3530
  172SOPE  H16X19532   1.856   6.904   8.436 -2.0349 -1.5460 -1.3408
  172SOPE  H16Y19533   1.695   6.948   8.356  0.3412 -0.3419 -0.7373
  172SOPE  C31719534   1.701   6.939   8.574  0.3742 -0.1388 -0.2345
  172SOPE  H17X19535   1.602   6.893   8.560  0.5928 -0.3681 -1.1349
  172SOPE  H17Y19536   1.703   7.031   8.637  0.6258 -0.5682  0.3936
  172SOPE  C31819537   1.773   6.833   8.652 -0.0056  0.0734  0.2490
  172SOPE  H18X19538   1.710   6.786   8.730  0.5459 -0.4256  0.3943
  172SOPE  H18Y19539   1.862   6.873   8.705  0.8066  1.5103 -2.0257
  172SOPE  H18Z19540   1.803   6.751   8.583 -1.7808  1.0439 -1.7762
  173SAPI   C1219541   5.390   0.146  10.887 -0.0890 -0.0947 -0.1942
  173SAPI    H219542   5.382   0.151  10.777  1.8800  0.8784 -0.3466
  173SAPI    O219543   5.301   0.041  10.936  0.1862  0.1604  0.2523
  173SAPI   HO219544   5.220   0.038  10.885  0.2411 -0.2305  0.1813
  173SAPI   C1319545   5.534   0.098  10.895  0.0604 -0.2282  0.3159
  173SAPI    H319546   5.602   0.180  10.863  0.1701 -0.5155 -0.2129
  173SAPI    O319547   5.564  -0.008  10.806  0.1888  0.3096 -0.3099
  173SAPI   HO319548   5.516  -0.089  10.825  1.6464  0.1274  3.6182
  173SAPI   C1419549   5.571   0.078  11.042  0.1124  0.3862 -0.6911
  173SAPI    H419550   5.508  -0.001  11.089 -0.0517  1.1266  0.3559
  173SAPI    O419551   5.700   0.026  11.060 -0.0159  0.1685 -0.0688
  173SAPI   HO419552   5.758   0.100  11.037 -0.2968  0.1168 -0.9927
  173SAPI   C1519553   5.551   0.207  11.125 -0.4660  0.2904  0.5231
  173SAPI    H519554   5.628   0.275  11.083  0.3129 -2.3194 -2.5895
  173SAPI    O519555   5.584   0.187  11.265 -0.4644 -0.1154 -0.3113
  173SAPI   HO519556   5.671   0.225  11.275  0.2018 -1.5584 -0.5033
  173SAPI   C1619557   5.410   0.259  11.109 -0.1663  0.4725 -0.0850
  173SAPI    H619558   5.358   0.176  11.161  2.9064 -0.8024  1.1593
  173SAPI    O619559   5.392   0.374  11.186  1.0189  0.2975 -0.3794
  173SAPI   HO619560   5.298   0.387  11.191  1.0358  0.1179  0.6423
  173SAPI   C1119561   5.375   0.279  10.961  0.1095 -0.3576 -0.9936
  173SAPI    H119562   5.449   0.358  10.935  1.7597 -1.2286  0.8152
  173SAPI     P19563   5.203   0.468  10.888 -0.3466 -0.0505 -0.3778
  173SAPI   O1319564   5.304   0.565  10.931 -0.5728 -0.0144 -0.4777
  173SAPI   O1419565   5.061   0.506  10.918 -0.2243  0.0235 -0.0163
  173SAPI   O1219566   5.239   0.319  10.948  0.4500  0.3974  0.1572
  173SAPI   O1119567   5.214   0.457  10.733  0.0488  0.3856  0.7542
  173SAPI    C119568   5.152   0.350  10.663 -0.4197  0.5765 -0.3118
  173SAPI    HA19569   5.139   0.255  10.720  1.7277 -0.9426 -2.1645
  173SAPI    HB19570   5.055   0.395  10.633 -0.0017  2.6871  1.2582
  173SAPI    C219571   5.246   0.301  10.553 -0.2247 -0.0345  0.5521
  173SAPI    HS19572   5.350   0.301  10.593 -0.1711  3.0742  0.6464
  173SAPI   O2119573   5.230   0.389  10.444 -0.0650  0.1597 -0.1668
  173SAPI   C2119574   5.339   0.433  10.379  0.5439  0.6639  0.0286
  173SAPI   O2219575   5.455   0.402  10.395 -0.0447 -0.3555  0.1599
  173SAPI   C2219576   5.291   0.546  10.286 -0.0903  0.5636  0.2631
  173SAPI   H2R19577   5.256   0.623  10.358 -0.4795 -0.5154  1.2841
  173SAPI   H2S19578   5.376   0.585  10.226 -1.4605  2.9685 -0.2125
  173SAPI    C319579   5.208   0.158  10.496 -0.5724 -0.1307 -0.6762
  173SAPI    HX19580   5.104   0.159  10.456 -1.1359 -2.5082  0.5474
  173SAPI    HY19581   5.195   0.099  10.589  0.0435 -0.5381 -0.8451
  173SAPI   O3119582   5.314   0.097  10.411 -0.1662 -0.0559 -0.3518
  173SAPI   C3119583   5.280   0.077  10.283 -0.1249 -0.6031 -0.1451
  173SAPI   O3219584   5.167   0.100  10.237 -0.4312 -0.1115  0.3565
  173SAPI   C3219585   5.390   0.024  10.203 -1.0753  0.1209 -0.3573
  173SAPI   H2X19586   5.475   0.096  10.213 -0.2420 -0.9815  0.8530
  173SAPI   H2Y19587   5.349   0.019  10.100 -1.4600 -1.2725 -0.1607
  173SAPI   C2319588   5.185   0.497  10.184  0.3365  0.1701 -0.3519
  173SAPI   H3R19589   5.135   0.594  10.163  1.1025  0.9596  1.2210
  173SAPI   H3S19590   5.104   0.435  10.226 -0.4634  3.0704  2.8534
  173SAPI   C2419591   5.242   0.417  10.071  0.8690 -0.0034 -0.1148
  173SAPI   H4R19592   5.154   0.397  10.005  0.5011  2.5529 -0.5043
  173SAPI   H4S19593   5.290   0.324  10.108  2.0556  0.2211 -1.0186
  173SAPI   C2519594   5.341   0.485   9.980  1.3735 -0.6276 -0.0415
  173SAPI   H5R19595   5.309   0.584   9.944 -0.3807 -0.2320  2.4065
  173SAPI   C2619596   5.469   0.447   9.953  0.5401 -0.2023  0.0184
  173SAPI   H6R19597   5.531   0.519   9.898  0.0744 -1.3444 -2.1507
  173SAPI   C2719598   5.533   0.315   9.998 -0.1936 -0.2545 -0.7420
  173SAPI   H7R19599   5.463   0.230   9.986  0.0970 -0.7656  0.9022
  173SAPI   H7S19600   5.544   0.326  10.108  1.6078 -1.8349 -0.6929
  173SAPI   C2819601   5.673   0.290   9.945 -0.0078  0.3116 -1.0874
  173SAPI   H8R19602   5.752   0.314  10.018 -0.5928  0.2265 -0.4172
  173SAPI   C2919603   5.701   0.233   9.821  0.1873 -0.6139 -0.2544
  173SAPI   H9R19604   5.806   0.225   9.788 -0.1013 -1.4983 -0.9687
  173SAPI  C21019605   5.601   0.192   9.719  0.3066 -1.1524  0.3909
  173SAPI  H10R19606   5.510   0.251   9.746  1.0171  1.3294 -2.1406
  173SAPI  H10S19607   5.584   0.083   9.724 -3.2443 -0.6706  1.4803
  173SAPI  C21119608   5.647   0.226   9.576 -0.0590  0.3734 -0.1325
  173SAPI  H11R19609   5.676   0.332   9.566 -0.6541  0.4557 -1.0916
  173SAPI  C21219610   5.669   0.145   9.470  0.8352 -1.2338 -0.1642
  173SAPI  H12R19611   5.699   0.192   9.376 -0.4114 -1.1240 -0.5254
  173SAPI  C21319612   5.642  -0.006   9.453 -0.0448 -0.2748  0.6381
  173SAPI  H13R19613   5.645  -0.046   9.556 -0.0197  1.0550  1.1693
  173SAPI  H13S19614   5.719  -0.060   9.394 -0.2996 -3.0034  2.6300
  173SAPI  C21419615   5.507  -0.051   9.400  0.2070 -0.2638 -0.2254
  173SAPI  H14R19616   5.429  -0.086   9.470  0.2878  0.3176  0.1679
  173SAPI  C21519617   5.468  -0.064   9.270 -0.4053 -0.1573 -0.7619
  173SAPI  H15R19618   5.372  -0.110   9.241  0.6669 -3.1412  0.0505
  173SAPI  C21619619   5.554  -0.030   9.156 -0.1344  0.1052 -0.0180
  173SAPI  H16R19620   5.542  -0.091   9.064 -0.4007  1.6116 -1.0180
  173SAPI  H16S19621   5.663  -0.033   9.177 -0.0596  0.2685 -0.3806
  173SAPI  C21719622   5.534   0.119   9.112 -0.1959  0.5070 -0.1119
  173SAPI  H17R19623   5.565   0.186   9.195 -2.7042  0.7780  0.7021
  173SAPI  H17S19624   5.425   0.133   9.094 -0.1818  1.8283  0.7009
  173SAPI  C21819625   5.619   0.151   8.995 -0.1975 -0.3914  0.7383
  173SAPI  H18R19626   5.618   0.058   8.933 -0.0418  0.9561 -1.3920
  173SAPI  H18S19627   5.727   0.165   9.018  0.5521  0.3094 -2.6331
  173SAPI  C21919628   5.564   0.249   8.903 -0.1375  0.1818  0.2246
  173SAPI  H19R19629   5.538   0.337   8.965 -0.5425 -0.8104  1.5175
  173SAPI  H19S19630   5.468   0.208   8.862  0.5588 -4.0450  2.3125
  173SAPI  C22019631   5.655   0.276   8.785  0.5970 -0.4158 -0.1184
  173SAPI  H20R19632   5.595   0.312   8.699 -0.7141  0.0291  0.9532
  173SAPI  H20S19633   5.680   0.172   8.753 -0.5486 -0.2492 -1.6496
  173SAPI  H20T19634   5.741   0.345   8.799  1.6289 -2.0418  2.1955
  173SAPI   C3319635   5.445  -0.117  10.224  0.5468 -0.0487 -0.6060
  173SAPI   H3X19636   5.354  -0.174  10.252  0.5136 -0.1352 -0.8834
  173SAPI   H3Y19637   5.517  -0.122  10.308  2.3200  0.0856 -2.0518
  173SAPI   C3419638   5.508  -0.178  10.091 -0.3374  0.0953  0.5724
  173SAPI   H4X19639   5.576  -0.262  10.116 -1.2539 -0.3093  1.8341
  173SAPI   H4Y19640   5.566  -0.103  10.033 -0.5982  1.3591  1.8712
  173SAPI   C3519641   5.398  -0.230   9.998 -0.1908 -0.1280 -0.1085
  173SAPI   H5X19642   5.359  -0.140   9.946 -2.1176 -2.1607 -2.4520
  173SAPI   H5Y19643   5.303  -0.272  10.037 -0.4925 -0.9726 -1.6868
  173SAPI   C3619644   5.460  -0.312   9.882 -0.1915 -0.5398 -0.1015
  173SAPI   H6X19645   5.524  -0.393   9.923 -2.6535 -1.9530  1.1696
  173SAPI   H6Y19646   5.527  -0.249   9.818 -0.6883  0.4750  0.3462
  173SAPI   C3719647   5.350  -0.365   9.785 -0.2185  0.4079  0.5416
  173SAPI   H7X19648   5.257  -0.306   9.801 -0.7407 -0.5514  1.1040
  173SAPI   H7Y19649   5.330  -0.472   9.805 -3.5585  0.3097 -2.2857
  173SAPI   C3819650   5.397  -0.358   9.642  0.2398 -0.0467  0.1973
  173SAPI   H8X19651   5.483  -0.428   9.630  0.3335  0.1169 -0.1183
  173SAPI   H8Y19652   5.427  -0.257   9.606  0.4733 -0.5098 -0.9734
  173SAPI   C3919653   5.292  -0.414   9.551 -0.2162  0.1915 -0.1760
  173SAPI   H9X19654   5.203  -0.348   9.556 -1.5600 -1.1968 -3.0922
  173SAPI   H9Y19655   5.253  -0.506   9.600 -0.0843  0.0502 -0.3348
  173SAPI  C31019656   5.342  -0.419   9.410 -0.8815  0.4409  0.7012
  173SAPI  H10X19657   5.407  -0.509   9.408 -1.0791  0.2995  0.7380
  173SAPI  H10Y19658   5.400  -0.328   9.383 -0.7909 -0.0386 -0.8351
  173SAPI  C31119659   5.229  -0.450   9.312  0.0717  0.4155 -0.0582
  173SAPI  H11X19660   5.151  -0.375   9.338  0.1764 -0.2291  2.3345
  173SAPI  H11Y19661   5.190  -0.553   9.325  1.3965 -0.0139  0.7028
  173SAPI  C31219662   5.267  -0.435   9.168  0.4700 -1.1177  0.1738
  173SAPI  H12X19663   5.339  -0.511   9.133  3.0095  0.7107  1.1037
  173SAPI  H12Y19664   5.322  -0.340   9.147 -2.7415  0.6481 -1.0389
  173SAPI  C31319665   5.145  -0.433   9.071  0.6216  0.1962 -0.1083
  173SAPI  H13X19666   5.085  -0.526   9.073 -0.5602  0.8367 -2.5333
  173SAPI  H13Y19667   5.192  -0.429   8.970  0.4865  0.8437 -0.1537
  173SAPI  C31419668   5.046  -0.314   9.095  0.2900  0.3345 -0.3611
  173SAPI  H14X19669   5.108  -0.223   9.109 -0.5397  0.5898  2.2803
  173SAPI  H14Y19670   4.986  -0.321   9.188  1.4662 -0.7613  0.3363
  173SAPI  C31519671   4.948  -0.304   8.973 -0.3081  0.1225  0.1519
  173SAPI  H15X19672   4.870  -0.230   9.000 -1.0379 -0.4892 -0.2385
  173SAPI  H15Y19673   4.905  -0.405   8.954  0.9838 -0.6703  1.2615
  173SAPI  C31619674   5.006  -0.237   8.839  0.1417  0.1292 -0.4066
  173SAPI  H16X19675   5.100  -0.286   8.806 -1.4837 -0.3427 -5.0867
  173SAPI  H16Y19676   5.037  -0.131   8.853 -0.7187  0.3251  0.0760
  173SAPI  C31719677   4.902  -0.240   8.731 -0.0858 -0.2379 -0.1601
  173SAPI  H17X19678   4.812  -0.199   8.782  1.4202  1.0230  1.6273
  173SAPI  H17Y19679   4.888  -0.347   8.704  0.7144  0.1534 -2.3051
  173SAPI  C31819680   4.955  -0.145   8.620  0.5665 -0.5319  0.5603
  173SAPI  H18X19681   5.041  -0.186   8.563  1.4560  0.9880  0.7705
  173SAPI  H18Y19682   4.987  -0.054   8.675 -0.2412 -0.7022  1.3455
  173SAPI  H18Z19683   4.871  -0.124   8.550  2.1274  0.2019 -1.1747
  174SAPI   C1219684   2.318   1.437  11.066 -0.0486 -0.2005  0.2038
  174SAPI    H219685   2.311   1.477  10.962  0.4242 -0.2073  0.1700
  174SAPI    O219686   2.433   1.354  11.078  0.7824 -0.4771  0.0076
  174SAPI   HO219687   2.406   1.262  11.076 -1.3796  0.1089 -0.4665
  174SAPI   C1319688   2.329   1.559  11.159  0.4968  0.4820 -0.0749
  174SAPI    H319689   2.235   1.616  11.145 -0.8689 -1.3910  1.0797
  174SAPI    O319690   2.445   1.627  11.127  0.1486 -0.3061  0.3570
  174SAPI   HO319691   2.413   1.704  11.079  1.1200  1.0314  1.7662
  174SAPI   C1419692   2.329   1.515  11.308  0.0948 -0.2843 -0.1703
  174SAPI    H419693   2.419   1.450  11.315 -0.1651 -0.6060  0.2469
  174SAPI    O419694   2.345   1.618  11.401  0.0630  0.4060  0.2868
  174SAPI   HO419695   2.318   1.700  11.358  1.0852  0.1401 -0.9418
  174SAPI   C1519696   2.211   1.432  11.341  0.9163  0.3476  0.0833
  174SAPI    H519697   2.111   1.478  11.327  0.3164 -0.1213  2.3206
  174SAPI    O519698   2.200   1.399  11.475 -0.3130  0.2750 -0.3689
  174SAPI   HO519699   2.265   1.330  11.491 -0.5597  0.5963  2.5959
  174SAPI   C1619700   2.200   1.306  11.245 -0.2876 -0.0128  0.3069
  174SAPI    H619701   2.290   1.246  11.271  1.1816  1.3979 -1.3413
  174SAPI    O619702   2.083   1.237  11.283  0.8691  0.0994  0.6787
  174SAPI   HO619703   2.077   1.148  11.248 -0.1375  0.0036  1.0541
  174SAPI   C1119704   2.190   1.354  11.100  0.7234 -0.2128 -0.2935
  174SAPI    H119705   2.099   1.417  11.089  0.8385  0.1660  0.7948
  174SAPI     P19706   2.030   1.223  10.911 -0.0530 -0.2742 -0.1652
  174SAPI   O1319707   1.939   1.342  10.896 -0.0503 -0.4397  0.6074
  174SAPI   O1419708   1.963   1.094  10.949 -0.3474  0.2516 -0.6443
  174SAPI   O1219709   2.175   1.247  11.004 -0.6373  0.0847 -0.0385
  174SAPI   O1119710   2.085   1.197  10.764 -0.1099  0.0417 -0.6102
  174SAPI    C119711   2.213   1.137  10.738  0.7125 -0.0980 -0.1026
  174SAPI    HA19712   2.294   1.211  10.719  0.6455 -0.4281 -1.8731
  174SAPI    HB19713   2.244   1.076  10.825  0.5738 -0.9549 -0.6387
  174SAPI    C219714   2.196   1.038  10.615  0.3400 -0.2246 -0.3824
  174SAPI    HS19715   2.294   0.991  10.592  2.0183  3.0532 -0.5357
  174SAPI   O2119716   2.149   1.108  10.501 -0.4454  0.0286 -0.7363
  174SAPI   C2119717   2.245   1.185  10.439 -0.3525  0.5308  0.1902
  174SAPI   O2219718   2.363   1.181  10.461  0.2495 -0.4750  0.6496
  174SAPI   C2219719   2.182   1.281  10.334 -0.6755 -0.3128  0.0567
  174SAPI   H2R19720   2.112   1.339  10.398 -1.7554 -0.6424 -0.8084
  174SAPI   H2S19721   2.259   1.354  10.301 -1.9044  0.0514 -2.2002
  174SAPI    C319722   2.093   0.924  10.655  0.1600 -0.6876  0.2746
  174SAPI    HX19723   1.993   0.968  10.673  0.3446 -0.0942 -0.1217
  174SAPI    HY19724   2.129   0.880  10.750  1.0683 -2.5738 -0.8823
  174SAPI   O3119725   2.094   0.817  10.561  0.4843 -0.6197 -0.0516
  174SAPI   C3119726   2.009   0.830  10.458  0.1071 -0.3207  1.0029
  174SAPI   O3219727   1.931   0.920  10.436  0.0669  0.2477  0.1545
  174SAPI   C3219728   2.019   0.705  10.372 -0.6369 -0.1121  0.1671
  174SAPI   H2X19729   1.941   0.630  10.399  0.9465 -1.2556  1.8333
  174SAPI   H2Y19730   2.117   0.653  10.377 -0.5739 -0.2596 -1.7811
  174SAPI   C2319731   2.117   1.211  10.209  0.4688  0.6694  0.2317
  174SAPI   H3R19732   2.037   1.273  10.164 -1.2174  0.4575  2.7672
  174SAPI   H3S19733   2.063   1.124  10.252  1.1555 -1.0592 -2.1668
  174SAPI   C2419734   2.225   1.155  10.113  0.2643  0.0606  0.1012
  174SAPI   H4R19735   2.181   1.097  10.029 -2.8222 -0.4038  1.8657
  174SAPI   H4S19736   2.281   1.083  10.176  1.4122  1.3083  0.5438
  174SAPI   C2519737   2.322   1.268  10.053  0.3373  0.3616 -0.8252
  174SAPI   H5R19738   2.269   1.342   9.991  0.3185 -0.9947 -2.5170
  174SAPI   C2619739   2.459   1.268  10.063  1.2351 -0.6900 -0.6254
  174SAPI   H6R19740   2.500   1.362  10.022 -2.3525  0.6824 -1.4443
  174SAPI   C2719741   2.542   1.170  10.130  0.4843  0.1529 -0.8973
  174SAPI   H7R19742   2.542   1.084  10.060 -1.9125  0.3552 -1.2506
  174SAPI   H7S19743   2.506   1.145  10.232  2.4679  0.9529  0.0502
  174SAPI   C2819744   2.688   1.209  10.143  0.3558 -0.0713  0.0359
  174SAPI   H8R19745   2.724   1.220  10.246  1.8755  0.8811 -0.5488
  174SAPI   C2919746   2.781   1.225  10.041  0.8438  0.9870  0.0319
  174SAPI   H9R19747   2.882   1.234  10.084  0.4082  2.7074  0.7635
  174SAPI  C21019748   2.773   1.204   9.892  0.4317 -0.1745 -0.7791
  174SAPI  H10R19749   2.672   1.240   9.862 -0.0239 -0.6135  0.1868
  174SAPI  H10S19750   2.764   1.095   9.870 -3.0694  0.0584 -1.1662
  174SAPI  C21119751   2.889   1.265   9.822 -0.1725 -0.1787 -0.0703
  174SAPI  H11R19752   2.971   1.296   9.888 -0.5622  2.1731 -0.6023
  174SAPI  C21219753   2.909   1.273   9.690 -0.4332 -0.5013  0.9152
  174SAPI  H12R19754   3.005   1.306   9.646 -1.4053  0.5756 -0.4823
  174SAPI  C21319755   2.820   1.221   9.582 -0.0309 -0.7463 -0.2748
  174SAPI  H13R19756   2.716   1.217   9.620  0.7226  0.2926  2.0615
  174SAPI  H13S19757   2.848   1.118   9.549 -1.7896 -1.4301  0.2537
  174SAPI  C21419758   2.825   1.321   9.457 -0.0887 -0.2355  0.6134
  174SAPI  H14R19759   2.864   1.421   9.481 -1.3454  0.1554  1.0716
  174SAPI  C21519760   2.828   1.294   9.324 -0.3713 -0.2188 -0.4721
  174SAPI  H15R19761   2.859   1.377   9.259  2.2600 -0.8829 -0.1783
  174SAPI  C21619762   2.817   1.163   9.243  0.2377  0.3484 -0.7122
  174SAPI  H16R19763   2.787   1.084   9.315  2.6051  1.3672  1.5757
  174SAPI  H16S19764   2.920   1.141   9.209  0.5288  2.0337 -1.0011
  174SAPI  C21719765   2.712   1.182   9.131  0.3471  0.4526  0.2723
  174SAPI  H17R19766   2.730   1.279   9.079 -3.3633  1.6502  0.8565
  174SAPI  H17S19767   2.609   1.191   9.173  0.5477  0.3571  0.7883
  174SAPI  C21819768   2.716   1.068   9.023  0.0401  0.0946 -0.2441
  174SAPI  H18R19769   2.691   0.984   9.091  1.4429 -1.1909 -1.2500
  174SAPI  H18S19770   2.811   1.060   8.966 -1.1767 -0.6354 -2.3244
  174SAPI  C21919771   2.605   1.088   8.919 -0.1975  0.1661  0.6442
  174SAPI  H19R19772   2.520   1.123   8.981  0.0529 -0.6890  1.4762
  174SAPI  H19S19773   2.582   0.991   8.871 -1.2745  0.2778  0.8944
  174SAPI  C22019774   2.651   1.201   8.821 -0.6073 -0.6162  0.1008
  174SAPI  H20R19775   2.759   1.187   8.799 -0.8255 -1.4472 -0.5164
  174SAPI  H20S19776   2.623   1.302   8.857  2.2322  0.5157 -0.6468
  174SAPI  H20T19777   2.589   1.190   8.730 -1.5572 -1.5830  0.8297
  174SAPI   C3319778   1.992   0.742  10.218 -0.3865 -0.6723  0.6589
  174SAPI   H3X19779   1.937   0.838  10.211  0.3896 -0.3067 -1.0815
  174SAPI   H3Y19780   1.930   0.662  10.171 -0.2809 -0.8532  0.8303
  174SAPI   C3419781   2.121   0.743  10.139  0.7172 -0.8036  0.4619
  174SAPI   H4X19782   2.154   0.638  10.127 -1.4254 -1.2671 -2.2612
  174SAPI   H4Y19783   2.201   0.802  10.188 -0.4377  1.4984 -0.3051
  174SAPI   C3519784   2.115   0.803  10.000 -0.2748 -0.2829  0.2597
  174SAPI   H5X19785   2.071   0.904  10.012 -0.0608 -0.3232  1.5028
  174SAPI   H5Y19786   2.062   0.730   9.935 -0.4425 -0.6816  0.8311
  174SAPI   C3619787   2.262   0.817   9.938 -0.1542 -0.8936  0.2765
  174SAPI   H6X19788   2.316   0.722   9.959  0.5912 -0.9550 -1.7355
  174SAPI   H6Y19789   2.308   0.899   9.998 -0.4474  0.7207 -1.6286
  174SAPI   C3719790   2.265   0.852   9.782 -0.0395 -0.7147 -0.4219
  174SAPI   H7X19791   2.193   0.930   9.750  0.7433 -0.1677 -0.8872
  174SAPI   H7Y19792   2.235   0.758   9.732 -0.9420  0.1710 -1.5858
  174SAPI   C3819793   2.404   0.899   9.742  0.2084 -0.2468  0.4625
  174SAPI   H8X19794   2.469   0.814   9.772  1.1503 -0.0750 -1.0010
  174SAPI   H8Y19795   2.439   0.992   9.792  0.4041 -0.1260  0.1034
  174SAPI   C3919796   2.421   0.911   9.592  0.2670  0.2589  1.1871
  174SAPI   H9X19797   2.513   0.964   9.558 -0.1494 -0.3716 -1.1372
  174SAPI   H9Y19798   2.339   0.964   9.539  2.0279 -2.1256 -4.7029
  174SAPI  C31019799   2.422   0.780   9.503 -0.7136  0.1322 -0.4816
  174SAPI  H10X19800   2.350   0.703   9.539 -1.0070  0.3489 -0.6040
  174SAPI  H10Y19801   2.515   0.721   9.516 -0.6256  0.2689 -0.4867
  174SAPI  C31119802   2.394   0.804   9.353  0.3969  0.4034  0.2237
  174SAPI  H11X19803   2.429   0.714   9.298  0.1981 -0.7427  1.8780
  174SAPI  H11Y19804   2.455   0.893   9.329  1.9197 -0.8719 -0.8249
  174SAPI  C31219805   2.244   0.835   9.315 -0.1164  0.9587 -0.0847
  174SAPI  H12X19806   2.199   0.889   9.401 -3.1352 -2.5020  0.7605
  174SAPI  H12Y19807   2.182   0.743   9.320  1.2345  0.0398  0.5253
  174SAPI  C31319808   2.229   0.889   9.177 -0.0589 -0.3953  0.6780
  174SAPI  H13X19809   2.124   0.868   9.149  0.0321 -1.8477  1.3437
  174SAPI  H13Y19810   2.296   0.832   9.109  0.9740  0.5182  0.8921
  174SAPI  C31419811   2.266   1.035   9.168  0.0228 -0.6913  0.8861
  174SAPI  H14X19812   2.318   1.065   9.074 -0.1601  0.6038  1.1828
  174SAPI  H14Y19813   2.352   1.048   9.237 -0.2396 -0.8284  1.2391
  174SAPI  C31519814   2.151   1.137   9.198 -0.3045 -0.5658  0.3764
  174SAPI  H15X19815   2.072   1.077   9.247 -0.0614 -1.2819 -0.0895
  174SAPI  H15Y19816   2.123   1.170   9.096  1.8982  0.5096  0.0573
  174SAPI  C31619817   2.186   1.258   9.279 -0.4728 -0.6455  0.2416
  174SAPI  H16X19818   2.109   1.337   9.268 -0.6146 -0.2662  3.2472
  174SAPI  H16Y19819   2.274   1.303   9.228 -1.0848 -2.3796 -2.6033
  174SAPI  C31719820   2.234   1.220   9.419 -0.5728 -0.1486 -0.4560
  174SAPI  H17X19821   2.319   1.155   9.392 -0.8901  0.0499 -1.9875
  174SAPI  H17Y19822   2.153   1.153   9.456 -0.8133  0.8694  0.9523
  174SAPI  C31819823   2.273   1.336   9.509  0.1346 -0.4830 -0.2586
  174SAPI  H18X19824   2.183   1.400   9.522  0.0341 -0.7568  0.4433
  174SAPI  H18Y19825   2.340   1.415   9.469 -1.9772  0.7668 -1.5442
  174SAPI  H18Z19826   2.298   1.302   9.611  0.9054  1.3894  0.2141
  175SAPI   C1219827   3.375   3.083   6.351 -0.2072 -0.6835  0.3762
  175SAPI    H219828   3.434   3.130   6.270 -0.8616 -0.8937 -0.2305
  175SAPI    O219829   3.266   3.006   6.285  0.2600 -0.1252 -0.0100
  175SAPI   HO219830   3.190   3.064   6.292  1.7016  1.7423  1.1906
  175SAPI   C1319831   3.464   2.992   6.431 -0.5879 -0.3924 -0.0497
  175SAPI    H319832   3.543   3.055   6.478 -1.0607  0.4726 -0.3793
  175SAPI    O319833   3.531   2.896   6.349  0.4460  0.0811 -0.6903
  175SAPI   HO319834   3.580   2.837   6.407 -0.5791 -0.3278 -0.1985
  175SAPI   C1419835   3.377   2.928   6.545 -0.6677  0.2436  0.0726
  175SAPI    H419836   3.287   2.882   6.500 -0.0305  1.8733 -3.2135
  175SAPI    O419837   3.451   2.821   6.603 -0.1290  0.8655  0.3064
  175SAPI   HO419838   3.388   2.764   6.649  0.0680 -0.3550 -0.8692
  175SAPI   C1519839   3.321   3.023   6.645 -0.4843  0.1191 -0.3548
  175SAPI    H519840   3.406   3.077   6.693  2.2204 -3.9744  0.0260
  175SAPI    O519841   3.254   2.958   6.756  0.7600 -0.7520 -0.1659
  175SAPI   HO519842   3.172   2.915   6.729 -1.0602  0.5426  2.8481
  175SAPI   C1619843   3.232   3.123   6.567 -0.0918  0.2422  0.4235
  175SAPI    H619844   3.150   3.069   6.514  0.5984 -1.4559  1.0131
  175SAPI    O619845   3.164   3.221   6.646  0.3494  0.2563  0.5817
  175SAPI   HO619846   3.122   3.290   6.593 -1.8223  0.3107  2.2423
  175SAPI   C1119847   3.316   3.191   6.448  0.4072  0.0333 -0.5099
  175SAPI    H119848   3.399   3.240   6.504  0.8543 -1.4514  0.1907
  175SAPI     P19849   3.219   3.436   6.378 -0.5061 -0.4280 -0.3166
  175SAPI   O1319850   3.161   3.483   6.248  0.3247 -0.1112 -0.0756
  175SAPI   O1419851   3.355   3.492   6.412  0.0320  0.1699 -0.0814
  175SAPI   O1219852   3.236   3.274   6.368  0.8727  0.2113 -0.6104
  175SAPI   O1119853   3.123   3.462   6.496 -1.1882 -0.1688 -0.1172
  175SAPI    C119854   3.103   3.573   6.578 -0.4510  0.2461 -0.2100
  175SAPI    HA19855   3.070   3.659   6.515 -2.8418 -1.3862 -1.3235
  175SAPI    HB19856   3.025   3.551   6.654  0.5423  1.8731  1.3863
  175SAPI    C219857   3.226   3.603   6.665 -0.7142 -0.8006  0.0928
  175SAPI    HS19858   3.310   3.616   6.595 -1.7166 -1.1615 -1.2247
  175SAPI   O2119859   3.247   3.506   6.766 -0.1074  0.1034 -0.2359
  175SAPI   C2119860   3.368   3.456   6.776  0.4842  0.1244 -0.3618
  175SAPI   O2219861   3.466   3.493   6.711  0.2767 -0.1908  0.3304
  175SAPI   C2219862   3.363   3.361   6.894 -0.4050  0.0109  0.4843
  175SAPI   H2R19863   3.338   3.409   6.991  0.9334  1.0599  0.3428
  175SAPI   H2S19864   3.298   3.273   6.874  0.5616 -0.7037  0.4305
  175SAPI    C319865   3.221   3.738   6.746 -0.2278  0.0221  0.3872
  175SAPI    HX19866   3.164   3.724   6.840  0.1976  0.9941  0.8060
  175SAPI    HY19867   3.165   3.815   6.688  0.2793  0.5881  0.6419
  175SAPI   O3119868   3.352   3.790   6.778  0.6319 -0.1184  0.1979
  175SAPI   C3119869   3.403   3.768   6.894  0.1369  0.4138 -0.2509
  175SAPI   O3219870   3.350   3.701   6.984 -0.1544 -0.5440  0.0535
  175SAPI   C3219871   3.547   3.821   6.891  0.4752 -0.2610  0.8559
  175SAPI   H2X19872   3.560   3.877   6.795  2.3587  0.0696  1.2741
  175SAPI   H2Y19873   3.600   3.724   6.887  3.9177  1.3990  2.2462
  175SAPI   C2319874   3.507   3.305   6.920  0.9329  0.3255 -1.0335
  175SAPI   H3R19875   3.587   3.382   6.918 -0.1701  1.5487 -0.6317
  175SAPI   H3S19876   3.526   3.239   6.834  1.9419 -0.5973 -0.1328
  175SAPI   C2419877   3.510   3.233   7.052  0.3192  0.6379 -0.4679
  175SAPI   H4R19878   3.434   3.154   7.069  1.5539 -0.2087  1.5414
  175SAPI   H4S19879   3.503   3.311   7.131 -1.8011 -0.4433  0.4774
  175SAPI   C2519880   3.628   3.153   7.086 -0.3748  0.2906  0.3223
  175SAPI   H5R19881   3.674   3.089   7.009 -2.0323 -1.8621  1.0062
  175SAPI   C2619882   3.690   3.154   7.205  1.1498 -0.0845 -0.1778
  175SAPI   H6R19883   3.780   3.091   7.213  1.2699  0.3312  3.1261
  175SAPI   C2719884   3.658   3.231   7.333 -0.7277  0.3274  0.3532
  175SAPI   H7R19885   3.685   3.162   7.415  1.0226 -0.9791 -1.2503
  175SAPI   H7S19886   3.552   3.264   7.338 -0.6797  0.6896 -0.7493
  175SAPI   C2819887   3.741   3.358   7.349 -0.5399  0.6932  0.0057
  175SAPI   H8R19888   3.761   3.417   7.259  1.2126  1.5449  0.9216
  175SAPI   C2919889   3.798   3.400   7.468  0.3253 -0.0814  0.0624
  175SAPI   H9R19890   3.862   3.489   7.460  1.1677 -0.5954  0.8648
  175SAPI  C21019891   3.783   3.336   7.600  0.1873 -0.1770  0.3013
  175SAPI  H10R19892   3.709   3.253   7.593 -2.2838  1.9524 -0.1849
  175SAPI  H10S19893   3.743   3.413   7.669  0.0579  0.3779 -0.3808
  175SAPI  C21119894   3.924   3.292   7.632 -0.3955  0.1437 -0.3633
  175SAPI  H11R19895   3.957   3.202   7.577 -1.4828 -0.3650 -0.2280
  175SAPI  C21219896   4.014   3.355   7.713 -0.3563 -0.0715 -0.2075
  175SAPI  H12R19897   4.119   3.321   7.718 -0.8637 -1.6154  3.8353
  175SAPI  C21319898   3.997   3.480   7.795  0.2089  0.3031 -0.6019
  175SAPI  H13R19899   4.009   3.437   7.897 -2.8603 -2.4177 -1.2315
  175SAPI  H13S19900   3.892   3.511   7.778  0.1425  0.3924 -0.0403
  175SAPI  C21419901   4.078   3.597   7.774  0.1691 -1.1298  0.1088
  175SAPI  H14R19902   4.098   3.618   7.668 -0.2594 -1.5916 -0.0706
  175SAPI  C21519903   4.133   3.674   7.876  0.2417 -0.0440  0.2334
  175SAPI  H15R19904   4.183   3.767   7.846 -1.0860  0.4367 -0.5418
  175SAPI  C21619905   4.117   3.656   8.032 -0.7715 -0.3729  0.7621
  175SAPI  H16R19906   4.215   3.642   8.082 -1.4307 -1.2531  1.8437
  175SAPI  H16S19907   4.053   3.568   8.054 -0.5107 -0.8883 -0.4208
  175SAPI  C21719908   4.043   3.767   8.099  0.0425 -0.1692  0.3070
  175SAPI  H17R19909   3.937   3.766   8.067 -0.0717  3.2831  0.1949
  175SAPI  H17S19910   4.081   3.870   8.079  1.7628 -0.5712  1.3273
  175SAPI  C21819911   4.040   3.756   8.251  0.3360  0.1938  0.4911
  175SAPI  H18R19912   4.141   3.760   8.298  1.0069 -0.8940 -0.7745
  175SAPI  H18S19913   4.014   3.649   8.270 -1.3870  1.0519  3.7238
  175SAPI  C21919914   3.931   3.854   8.309 -0.3885 -0.1591 -0.1209
  175SAPI  H19R19915   3.837   3.832   8.255 -1.7548 -1.3278  2.5195
  175SAPI  H19S19916   3.956   3.957   8.276  0.0739  0.4358  1.9121
  175SAPI  C22019917   3.927   3.847   8.461 -0.3108 -0.3361  0.5208
  175SAPI  H20R19918   3.903   3.744   8.496 -1.5495 -0.3915 -0.4374
  175SAPI  H20S19919   3.858   3.920   8.507 -0.2542  0.8764 -1.2205
  175SAPI  H20T19920   4.032   3.869   8.490  0.3149  0.4454 -2.0476
  175SAPI   C3319921   3.597   3.905   7.004  0.0115  0.6686 -0.5359
  175SAPI   H3X19922   3.708   3.914   7.003 -0.0647  2.4410  0.8490
  175SAPI   H3Y19923   3.591   3.858   7.105  2.4617 -0.7706 -0.9789
  175SAPI   C3419924   3.540   4.051   7.010 -0.4169 -0.1281  0.1987
  175SAPI   H4X19925   3.430   4.041   7.023 -0.7524  0.2145 -2.0138
  175SAPI   H4Y19926   3.569   4.087   6.909  0.9091 -1.0671  0.2252
  175SAPI   C3519927   3.594   4.147   7.114 -0.2356 -0.3961  0.4318
  175SAPI   H5X19928   3.580   4.252   7.081 -0.9245  0.0793  2.1275
  175SAPI   H5Y19929   3.703   4.129   7.121 -0.0226 -0.0048 -1.3454
  175SAPI   C3619930   3.527   4.120   7.249  0.6812 -0.1410  0.3565
  175SAPI   H6X19931   3.548   4.013   7.269  2.7589 -0.6162 -3.4632
  175SAPI   H6Y19932   3.417   4.135   7.243  0.9528  1.9205 -0.2694
  175SAPI   C3719933   3.601   4.192   7.368 -0.5325  0.2593 -0.1155
  175SAPI   H7X19934   3.700   4.144   7.386  0.4883  1.2381 -2.6225
  175SAPI   H7Y19935   3.535   4.176   7.456 -0.6662 -1.5986 -0.5069
  175SAPI   C3819936   3.619   4.339   7.344  0.6665  0.9056  0.1131
  175SAPI   H8X19937   3.523   4.394   7.340  1.1983  1.8873 -3.7122
  175SAPI   H8Y19938   3.676   4.353   7.249 -1.4012  0.9589 -1.1754
  175SAPI   C3919939   3.705   4.404   7.460 -0.0383  0.1142 -0.0075
  175SAPI   H9X19940   3.761   4.487   7.412  0.5165 -0.3389 -0.1487
  175SAPI   H9Y19941   3.767   4.324   7.504 -0.2724  1.2174  2.5209
  175SAPI  C31019942   3.616   4.456   7.574  0.8793 -0.3446 -0.6454
  175SAPI  H10X19943   3.553   4.367   7.598 -1.2449  0.6144 -2.3544
  175SAPI  H10Y19944   3.556   4.543   7.541  1.5577  0.3097 -0.1623
  175SAPI  C31119945   3.700   4.503   7.697  0.4215 -0.1404  0.7241
  175SAPI  H11X19946   3.754   4.584   7.644 -1.2915  0.2452 -0.5037
  175SAPI  H11Y19947   3.759   4.415   7.730 -1.7951 -1.2206  2.0734
  175SAPI  C31219948   3.618   4.558   7.817  0.4013  0.2164 -0.8793
  175SAPI  H12X19949   3.566   4.466   7.853  0.5227  0.1213 -0.9512
  175SAPI  H12Y19950   3.541   4.633   7.786 -1.2653 -0.8637  0.4138
  175SAPI  C31319951   3.698   4.621   7.932 -0.6243  0.2810  0.6398
  175SAPI  H13X19952   3.725   4.721   7.893  2.5624 -0.3737  0.8720
  175SAPI  H13Y19953   3.793   4.563   7.935 -1.0379 -0.4018  0.9745
  175SAPI  C31419954   3.636   4.621   8.066 -0.0089  0.7005  0.4584
  175SAPI  H14X19955   3.613   4.516   8.094 -0.7847  1.1061  1.3879
  175SAPI  H14Y19956   3.537   4.671   8.066 -1.7616 -2.5080 -0.7303
  175SAPI  C31519957   3.707   4.691   8.181 -0.0724 -0.2897 -0.2060
  175SAPI  H15X19958   3.735   4.793   8.146 -0.9685 -0.5416 -1.7609
  175SAPI  H15Y19959   3.805   4.640   8.193  0.8522  1.7295  1.4671
  175SAPI  C31619960   3.626   4.707   8.314 -0.0273 -0.3712 -0.1748
  175SAPI  H16X19961   3.690   4.757   8.389  0.1414 -2.2473  0.9996
  175SAPI  H16Y19962   3.597   4.610   8.360  0.0641 -1.0649 -1.5485
  175SAPI  C31719963   3.497   4.789   8.309  0.6266 -0.1546 -1.0656
  175SAPI  H17X19964   3.426   4.731   8.247  1.6809 -3.3509  0.5011
  175SAPI  H17Y19965   3.529   4.880   8.253  1.9428  0.4631  0.6075
  175SAPI  C31819966   3.432   4.808   8.445 -0.2061  0.4580 -0.1083
  175SAPI  H18X19967   3.490   4.874   8.513 -0.2690  2.5926 -2.0091
  175SAPI  H18Y19968   3.433   4.707   8.491  4.0782  0.1170 -0.5075
  175SAPI  H18Z19969   3.337   4.865   8.436 -1.3378 -0.9007  2.2357
  176SAPI   C1219970   4.354   1.546   6.379  0.7911 -0.0883  0.7567
  176SAPI    H219971   4.421   1.457   6.380 -1.1542 -1.7359 -1.9794
  176SAPI    O219972   4.429   1.656   6.326 -0.1119 -0.1195  0.2352
  176SAPI   HO219973   4.518   1.622   6.313  0.0578 -0.0067  1.0198
  176SAPI   C1319974   4.234   1.506   6.297  0.8114 -0.2448 -0.0213
  176SAPI    H319975   4.187   1.418   6.347  1.4667 -0.9891 -0.6884
  176SAPI    O319976   4.273   1.469   6.161  0.3233  0.6099  0.5819
  176SAPI   HO319977   4.298   1.550   6.116  1.8124 -0.2974 -0.3122
  176SAPI   C1419978   4.133   1.619   6.299 -0.8920 -0.7017  0.4384
  176SAPI    H419979   4.182   1.711   6.262 -2.4156  0.3119  0.8551
  176SAPI    O419980   4.035   1.600   6.207 -0.2923  0.2531 -0.0817
  176SAPI   HO419981   3.960   1.555   6.246  0.7732 -1.3521  0.2120
  176SAPI   C1519982   4.087   1.639   6.442  0.5536 -0.0208  0.2794
  176SAPI    H519983   4.053   1.540   6.479  0.2133  0.1622  0.4612
  176SAPI    O519984   3.968   1.725   6.443  0.6627 -0.2288  0.4291
  176SAPI   HO519985   3.958   1.765   6.530 -4.7439  1.2658 -0.5474
  176SAPI   C1619986   4.199   1.677   6.529  0.2149 -0.6630  0.1722
  176SAPI    H619987   4.239   1.774   6.491 -3.0921  1.3530  1.3156
  176SAPI    O619988   4.154   1.698   6.662  1.0397 -0.3780  0.4458
  176SAPI   HO619989   4.185   1.780   6.700  0.3159 -0.1544  0.5578
  176SAPI   C1119990   4.306   1.571   6.519 -0.4162  0.0852 -0.3777
  176SAPI    H119991   4.257   1.474   6.545 -0.3349  0.2442  0.3789
  176SAPI     P19992   4.502   1.477   6.672  0.4163  0.2061  0.2967
  176SAPI   O1319993   4.641   1.517   6.707  0.2579 -0.7706 -0.1866
  176SAPI   O1419994   4.484   1.354   6.586 -0.4322 -0.6758 -0.3473
  176SAPI   O1219995   4.420   1.599   6.609  0.0779 -0.0715  0.3553
  176SAPI   O1119996   4.434   1.453   6.812  0.0750 -0.1324  0.5115
  176SAPI    C119997   4.337   1.527   6.884  0.1162 -1.0506  0.2313
  176SAPI    HA19998   4.325   1.630   6.843  1.2677 -1.2365 -0.6120
  176SAPI    HB19999   4.234   1.485   6.884 -0.1198 -0.6660 -2.6982
  176SAPI    C220000   4.386   1.551   7.031 -0.1556  0.0290 -0.1718
  176SAPI    HS20001   4.321   1.484   7.091  0.7889 -1.2612 -0.5395
  176SAPI   O2120002   4.357   1.683   7.081  0.0415 -0.1237 -0.0456
  176SAPI   C2120003   4.233   1.720   7.083  0.2455  0.3669 -0.1306
  176SAPI   O2220004   4.142   1.644   7.060  0.0593  0.8853  0.1061
  176SAPI   C2220005   4.223   1.869   7.120  0.3423 -0.4599 -0.9473
  176SAPI   H2R20006   4.294   1.891   7.202  0.7061 -2.5793 -0.6315
  176SAPI   H2S20007   4.237   1.929   7.028 -2.1575  2.2959  0.3355
  176SAPI    C320008   4.530   1.504   7.045 -0.2724  0.2565  0.3366
  176SAPI    HX20009   4.596   1.568   6.983  0.9098 -1.5280 -0.3191
  176SAPI    HY20010   4.536   1.402   7.003 -0.2449  0.1380  0.6280
  176SAPI   O3120011   4.567   1.494   7.186  0.0784 -0.2420  0.3291
  176SAPI   C3120012   4.684   1.448   7.220  0.1742  0.3785  0.1386
  176SAPI   O3220013   4.774   1.409   7.150 -0.7201  0.1503  0.3980
  176SAPI   C3220014   4.693   1.455   7.376  0.4594 -0.4836 -0.2246
  176SAPI   H2X20015   4.631   1.374   7.419 -0.5762  0.2937 -0.2171
  176SAPI   H2Y20016   4.662   1.557   7.407 -1.6578 -0.9481 -0.6896
  176SAPI   C2320017   4.078   1.901   7.171 -0.1203 -0.0376 -0.0764
  176SAPI   H3R20018   4.000   1.874   7.097  0.0765  0.4540 -0.4662
  176SAPI   H3S20019   4.059   2.010   7.180 -2.2101 -0.2843 -0.8844
  176SAPI   C2420020   4.044   1.845   7.308 -0.6019 -0.5477 -0.0824
  176SAPI   H4R20021   4.063   1.736   7.299  2.7205 -0.2950  2.0859
  176SAPI   H4S20022   3.934   1.863   7.313 -0.4398  0.2129  3.7064
  176SAPI   C2520023   4.115   1.910   7.426  0.2151 -0.0574 -0.4260
  176SAPI   H5R20024   4.224   1.903   7.417  0.2415  0.9359 -1.1179
  176SAPI   C2620025   4.064   1.987   7.530 -0.4350 -1.0250  0.2312
  176SAPI   H6R20026   4.137   2.005   7.611  0.7081 -1.8357 -0.5857
  176SAPI   C2720027   3.923   2.020   7.567  0.2042 -0.3636  0.5078
  176SAPI   H7R20028   3.879   1.942   7.634  1.8515 -1.4144  0.4392
  176SAPI   H7S20029   3.857   2.026   7.478  1.2499  2.4902 -0.1775
  176SAPI   C2820030   3.924   2.162   7.622  0.8357 -0.3403  0.0726
  176SAPI   H8R20031   4.015   2.222   7.608 -0.1816  2.1619  2.9809
  176SAPI   C2920032   3.827   2.220   7.694  0.0882  0.6942 -0.0798
  176SAPI   H9R20033   3.838   2.321   7.736  0.9087  1.0897 -1.1882
  176SAPI  C21020034   3.695   2.156   7.734  0.4273 -0.2420 -0.9376
  176SAPI  H10R20035   3.709   2.063   7.793 -2.1690 -1.3478 -1.9016
  176SAPI  H10S20036   3.647   2.126   7.638 -0.5737  2.4494 -1.3527
  176SAPI  C21120037   3.604   2.254   7.809 -0.5083 -0.2886  0.1083
  176SAPI  H11R20038   3.557   2.326   7.741  1.0563 -1.0721 -1.8885
  176SAPI  C21220039   3.596   2.260   7.947 -0.2201 -0.1488 -0.1240
  176SAPI  H12R20040   3.531   2.340   7.986  0.2298  0.3437 -0.3658
  176SAPI  C21320041   3.654   2.165   8.051 -0.6152 -0.0038 -0.5061
  176SAPI  H13R20042   3.744   2.116   8.009 -0.8464 -0.8438 -0.0338
  176SAPI  H13S20043   3.581   2.083   8.072 -0.9063  0.7007  1.4961
  176SAPI  C21420044   3.688   2.212   8.188  0.2538 -0.2265  0.0571
  176SAPI  H14R20045   3.745   2.306   8.185  0.7176 -0.4618  1.1477
  176SAPI  C21520046   3.675   2.147   8.309 -0.4041 -0.1793 -0.4344
  176SAPI  H15R20047   3.703   2.201   8.400  1.2011 -0.0669 -0.9513
  176SAPI  C21620048   3.628   2.012   8.333 -0.0996  0.9285  0.2178
  176SAPI  H16R20049   3.696   1.960   8.402 -0.6324 -0.0267  0.0432
  176SAPI  H16S20050   3.628   1.952   8.239  0.1057  0.3852  0.5594
  176SAPI  C21720051   3.495   2.008   8.408 -1.4573 -0.0841 -0.2447
  176SAPI  H17R20052   3.420   2.059   8.344 -1.5118  2.2176  1.5261
  176SAPI  H17S20053   3.496   2.059   8.507 -1.5030 -0.9935  0.2315
  176SAPI  C21820054   3.442   1.860   8.428  0.0588  0.7236 -0.1705
  176SAPI  H18R20055   3.508   1.801   8.495 -0.1368  0.5007 -0.1734
  176SAPI  H18S20056   3.451   1.797   8.337  0.9431  1.6661 -0.7628
  176SAPI  C21920057   3.293   1.854   8.491 -0.0063  0.7416  0.6046
  176SAPI  H19R20058   3.281   1.924   8.576 -0.5787 -0.8834  1.8931
  176SAPI  H19S20059   3.280   1.752   8.533  0.2109 -0.2033 -1.4731
  176SAPI  C22020060   3.185   1.880   8.387 -0.1529  0.6229 -0.5887
  176SAPI  H20R20061   3.231   1.933   8.301 -1.7159  0.8518 -1.3159
  176SAPI  H20S20062   3.109   1.948   8.430 -1.4293 -1.7355  1.0999
  176SAPI  H20T20063   3.134   1.794   8.339  0.2523 -0.7676  1.3689
  176SAPI   C3320064   4.834   1.447   7.429  0.2721  0.5800  0.8159
  176SAPI   H3X20065   4.893   1.531   7.386  1.3729 -0.6858 -0.2265
  176SAPI   H3Y20066   4.880   1.358   7.381 -2.5285  0.2320 -1.4825
  176SAPI   C3420067   4.850   1.439   7.578  0.0755  0.5459  0.0675
  176SAPI   H4X20068   4.953   1.401   7.597  0.9776  2.6888 -0.2609
  176SAPI   H4Y20069   4.781   1.362   7.619 -0.3356  0.2383 -1.1309
  176SAPI   C3520070   4.839   1.578   7.650 -0.1629  0.5060 -0.8888
  176SAPI   H5X20071   4.733   1.613   7.652 -0.1749  0.4345  0.0361
  176SAPI   H5Y20072   4.905   1.646   7.593 -1.0583  2.7043  0.5894
  176SAPI   C3620073   4.880   1.573   7.799 -0.5154 -0.0692 -0.1616
  176SAPI   H6X20074   4.986   1.554   7.825 -0.4295 -1.2034 -1.2481
  176SAPI   H6Y20075   4.818   1.490   7.838 -1.3995 -0.9954 -3.2856
  176SAPI   C3720076   4.836   1.701   7.880 -0.2323 -0.6541  1.1884
  176SAPI   H7X20077   4.735   1.724   7.840 -0.4458 -2.6918  0.4219
  176SAPI   H7Y20078   4.918   1.775   7.870  1.5628 -2.3087  2.6959
  176SAPI   C3820079   4.820   1.682   8.031  0.4906  0.2092  0.1175
  176SAPI   H8X20080   4.748   1.600   8.050  0.2307  0.6747  1.2372
  176SAPI   H8Y20081   4.790   1.773   8.087  1.3039 -0.3948  1.5926
  176SAPI   C3920082   4.947   1.632   8.099  0.1879  0.9365 -0.5747
  176SAPI   H9X20083   5.022   1.714   8.093  2.9776 -1.4198 -0.2338
  176SAPI   H9Y20084   5.000   1.546   8.053  1.0161  0.6654  0.8282
  176SAPI  C31020085   4.938   1.593   8.252  0.6901 -0.0369 -0.0670
  176SAPI  H10X20086   5.039   1.563   8.288 -0.2263 -1.6686  1.2666
  176SAPI  H10Y20087   4.876   1.501   8.260  0.3645 -0.1356 -2.7592
  176SAPI  C31120088   4.891   1.699   8.351  0.2174 -0.9609  0.7640
  176SAPI  H11X20089   4.785   1.670   8.370  0.2031  0.3240  3.0129
  176SAPI  H11Y20090   4.881   1.800   8.306 -0.5215 -1.0523  0.7008
  176SAPI  C31220091   4.967   1.711   8.488 -0.2507  0.4592  0.4104
  176SAPI  H12X20092   4.920   1.779   8.563 -1.1787 -1.3152  1.5006
  176SAPI  H12Y20093   5.060   1.763   8.454 -1.1362  2.2956  0.6660
  176SAPI  C31320094   5.013   1.578   8.553  0.2596 -0.2288  0.3870
  176SAPI  H13X20095   5.117   1.585   8.592  1.1339 -0.8030 -1.7073
  176SAPI  H13Y20096   5.001   1.488   8.488 -0.8914  0.7861 -0.8532
  176SAPI  C31420097   4.931   1.529   8.673  0.1309 -0.1637 -0.1080
  176SAPI  H14X20098   4.830   1.486   8.660 -0.7057  0.6064  2.9661
  176SAPI  H14Y20099   4.908   1.605   8.752 -2.0201 -1.4098  0.5360
  176SAPI  C31520100   4.998   1.426   8.758  0.5281  0.8712 -0.4021
  176SAPI  H15X20101   5.022   1.346   8.686 -0.4922 -0.1734  0.3620
  176SAPI  H15Y20102   4.917   1.382   8.821 -0.8200  0.9796 -1.9760
  176SAPI  C31620103   5.117   1.484   8.842  0.3915 -0.4880  0.4413
  176SAPI  H16X20104   5.101   1.579   8.898  0.0211 -1.5493  2.2330
  176SAPI  H16Y20105   5.205   1.503   8.778  1.7604 -1.3597  1.9814
  176SAPI  C31720106   5.170   1.383   8.946 -0.3795 -0.0853  0.1954
  176SAPI  H17X20107   5.208   1.293   8.893  0.4589  0.6789 -0.5373
  176SAPI  H17Y20108   5.084   1.338   9.000  0.9895  0.1250  2.6938
  176SAPI  C31820109   5.264   1.436   9.050 -0.2812  0.1670  0.1739
  176SAPI  H18X20110   5.352   1.475   8.995  0.5350 -0.5195  0.9484
  176SAPI  H18Y20111   5.288   1.347   9.112 -0.1326  0.6756  0.8643
  176SAPI  H18Z20112   5.216   1.516   9.110  2.1115  0.8074  1.3811
  177SLPC     N20113   3.472   0.812  10.818  0.0182  0.4326  0.2589
  177SLPC   C1320114   3.370   0.764  10.711 -0.5724 -0.1745 -0.1592
  177SLPC  H13A20115   3.352   0.660  10.731  0.2387 -0.7300 -2.0654
  177SLPC  H13B20116   3.280   0.820  10.733 -0.8177 -0.9310  0.8441
  177SLPC  H13C20117   3.402   0.784  10.610  1.9601  1.0828  0.8033
  177SLPC   C1420118   3.409   0.809  10.953 -0.0170  0.1085 -0.6744
  177SLPC  H14A20119   3.382   0.707  10.977 -1.1689  0.5248 -0.1435
  177SLPC  H14B20120   3.482   0.840  11.027  0.7053 -0.3128 -1.1935
  177SLPC  H14C20121   3.325   0.877  10.957  0.4448  0.6412  0.8092
  177SLPC   C1520122   3.503   0.957  10.784  0.3076 -0.3173 -0.0545
  177SLPC  H15A20123   3.588   0.965  10.717  1.0421  1.7723  1.0259
  177SLPC  H15B20124   3.414   0.998  10.739 -0.9334 -1.2954  1.3896
  177SLPC  H15C20125   3.523   1.014  10.874  0.2604 -1.5614  0.7651
  177SLPC   C1220126   3.604   0.746  10.814  0.3278  0.2881  0.1324
  177SLPC  H12A20127   3.658   0.791  10.732  0.2543 -1.2856 -0.8209
  177SLPC  H12B20128   3.594   0.641  10.791 -0.3456 -0.2124  2.4091
  177SLPC   C1120129   3.700   0.764  10.930  0.3516 -0.3889  0.1961
  177SLPC  H11A20130   3.669   0.867  10.960 -1.7049 -0.9885  0.2749
  177SLPC  H11B20131   3.810   0.763  10.912  0.6607  1.6190  1.6059
  177SLPC     P20132   3.719   0.518  11.002 -0.1793  0.2639  0.3584
  177SLPC   O1320133   3.863   0.507  10.974  0.4017 -0.4144 -0.7505
  177SLPC   O1420134   3.674   0.440  11.114  0.7231  0.1290 -0.1938
  177SLPC   O1220135   3.672   0.675  11.035 -0.1190 -0.0232  0.8083
  177SLPC   O1120136   3.632   0.467  10.883 -0.2206 -0.3248 -0.5365
  177SLPC    C120137   3.624   0.328  10.858  0.0068 -0.1564  0.1979
  177SLPC    HA20138   3.724   0.283  10.842  0.9515  1.7812  0.4432
  177SLPC    HB20139   3.570   0.272  10.938 -0.7156  1.1133  0.6336
  177SLPC    C220140   3.549   0.316  10.731  0.6817 -0.2562  0.5182
  177SLPC    HS20141   3.539   0.211  10.695  1.9880 -0.0368 -0.5444
  177SLPC   O2120142   3.607   0.403  10.630 -0.3863 -0.1546 -0.2491
  177SLPC   C2120143   3.711   0.360  10.571 -1.3481  0.0471 -0.3291
  177SLPC   O2220144   3.768   0.252  10.578  0.1391  0.1881  0.1380
  177SLPC   C2220145   3.739   0.465  10.457 -0.6599  0.5175 -0.7694
  177SLPC   H2R20146   3.763   0.563  10.503  2.0083 -1.3048  2.1433
  177SLPC   H2S20147   3.837   0.436  10.414  0.6833  1.5027  1.4742
  177SLPC    C320148   3.390   0.344  10.755 -0.0763 -0.3988  0.4421
  177SLPC    HX20149   3.375   0.443  10.804 -0.9411 -0.3532  0.1128
  177SLPC    HY20150   3.353   0.271  10.830 -2.7266 -1.2765 -1.5720
  177SLPC   O3120151   3.318   0.325  10.638 -0.4453  0.3603  0.2992
  177SLPC   C3120152   3.215   0.412  10.614 -0.1765  0.0306  0.1533
  177SLPC   O3220153   3.176   0.492  10.696 -0.4507 -0.4133  1.2943
  177SLPC   C3220154   3.152   0.391  10.477  0.1943  0.1614 -0.4302
  177SLPC   H2X20155   3.117   0.285  10.474 -1.9765  0.7478  1.2830
  177SLPC   H2Y20156   3.223   0.410  10.394  0.5209  0.1695 -0.1499
  177SLPC   C2320157   3.627   0.475  10.354 -0.3485  0.1539  0.1319
  177SLPC   H3R20158   3.634   0.569  10.295 -0.0680 -1.3227 -2.3160
  177SLPC   H3S20159   3.526   0.467  10.399  0.5449 -0.3579  2.1642
  177SLPC   C2420160   3.655   0.372  10.247 -0.1762 -0.0158  0.6443
  177SLPC   H4R20161   3.629   0.270  10.282  1.2000 -1.1561 -1.4311
  177SLPC   H4S20162   3.758   0.386  10.206 -0.7775  0.0113 -0.9205
  177SLPC   C2520163   3.557   0.390  10.128  0.1770  0.3758  0.2802
  177SLPC   H5R20164   3.576   0.481  10.067  2.2714 -0.2318 -0.0713
  177SLPC   H5S20165   3.453   0.395  10.166 -0.0289 -2.8536  0.4234
  177SLPC   C2620166   3.584   0.263  10.040 -0.2180 -0.2972 -0.3672
  177SLPC   H6R20167   3.585   0.170  10.100 -0.0082 -0.2605 -0.3128
  177SLPC   H6S20168   3.689   0.277  10.007 -0.4240  1.7467 -0.2823
  177SLPC   C2720169   3.487   0.246   9.924  0.4768 -0.0252 -0.5606
  177SLPC   H7R20170   3.384   0.241   9.965  1.2767  1.1116  1.7994
  177SLPC   H7S20171   3.502   0.140   9.895 -0.8493 -0.8419  1.5110
  177SLPC   C2820172   3.510   0.344   9.806  0.2737 -0.5923 -0.3226
  177SLPC   H8R20173   3.621   0.348   9.796  0.2261 -1.2473 -1.2620
  177SLPC   H8S20174   3.471   0.443   9.838 -0.7669 -0.6177 -1.4197
  177SLPC   C2920175   3.458   0.310   9.673  0.1674  0.4608 -0.1275
  177SLPC   H9R20176   3.354   0.338   9.652 -0.5861 -1.0888  1.2465
  177SLPC  C21020177   3.516   0.234   9.572  0.0080  0.0014  0.2336
  177SLPC  H10R20178   3.480   0.241   9.468  0.2674  1.6453  0.2304
  177SLPC  C21120179   3.659   0.186   9.586 -0.6087  0.2762  0.0217
  177SLPC  H11R20180   3.735   0.260   9.554 -0.9362 -0.1339 -1.8295
  177SLPC  H11S20181   3.686   0.172   9.693  0.5685  1.5335 -0.0940
  177SLPC  C21220182   3.688   0.053   9.509 -0.6175 -0.5091  0.0571
  177SLPC  H12R20183   3.715  -0.039   9.563 -0.6277 -2.0161 -2.3649
  177SLPC  C21320184   3.698   0.061   9.378 -0.3673 -0.4852  0.1981
  177SLPC  H13R20185   3.729  -0.029   9.324  2.7266  0.4950  0.1226
  177SLPC  C21420186   3.680   0.184   9.286 -0.1605  0.1478 -0.8038
  177SLPC  H14R20187   3.740   0.269   9.324  0.1472 -0.3071 -0.2575
  177SLPC  H14S20188   3.573   0.212   9.291  0.2512  1.5581  0.6688
  177SLPC  C21520189   3.721   0.159   9.146  0.1100 -0.6487  0.6489
  177SLPC  H15R20190   3.808   0.091   9.143  1.4326  1.0193 -0.1227
  177SLPC  H15S20191   3.753   0.258   9.106 -0.8545 -0.6544 -0.1910
  177SLPC  C21620192   3.597   0.098   9.080 -0.3492 -0.4641  0.2202
  177SLPC  H16R20193   3.501   0.147   9.107 -0.2282  0.2442 -0.5691
  177SLPC  H16S20194   3.589  -0.003   9.125  0.9562  0.3600  2.4320
  177SLPC  C21720195   3.595   0.084   8.928  0.2486  0.8716 -0.3084
  177SLPC  H17R20196   3.590   0.185   8.882  0.0958  0.9902 -0.0287
  177SLPC  H17S20197   3.506   0.022   8.904 -1.2005  1.9615  1.9387
  177SLPC  C21820198   3.712   0.006   8.860  0.0438 -0.3561  0.5696
  177SLPC  H18R20199   3.726  -0.096   8.902  0.2719 -1.5878 -2.2495
  177SLPC  H18S20200   3.806   0.064   8.877  1.2856 -1.5505 -1.7244
  177SLPC  H18T20201   3.704  -0.009   8.750 -0.1978  1.3554  0.3295
  177SLPC   C3320202   3.021   0.477  10.464  0.3620  0.8540  0.3708
  177SLPC   H3X20203   3.059   0.581  10.465 -1.2461  1.4839 -0.3105
  177SLPC   H3Y20204   2.951   0.470  10.550  0.1096 -0.8292  0.0544
  177SLPC   C3420205   2.923   0.459  10.346  0.2246 -0.3533 -0.0509
  177SLPC   H4X20206   2.852   0.545  10.344  0.1692 -0.3374 -3.7148
  177SLPC   H4Y20207   2.857   0.372  10.369 -1.1139  0.4830 -0.6344
  177SLPC   C3520208   2.984   0.448  10.204  0.2795  0.3013 -0.6156
  177SLPC   H5X20209   3.072   0.380  10.206  0.0184 -0.0271  0.6259
  177SLPC   H5Y20210   3.018   0.551  10.179 -0.9202  0.0759 -3.5057
  177SLPC   C3620211   2.892   0.420  10.090 -0.0581 -0.7367 -0.2002
  177SLPC   H6X20212   2.811   0.496  10.085  0.7171  0.2595  1.5153
  177SLPC   H6Y20213   2.838   0.324  10.104 -0.5568 -0.3912  0.2632
  177SLPC   C3720214   2.975   0.414   9.960  0.3814 -0.2751 -0.0886
  177SLPC   H7X20215   3.074   0.373   9.987  0.8731  1.6915  1.3285
  177SLPC   H7Y20216   2.989   0.517   9.921  0.6810 -0.7523 -1.3045
  177SLPC   C3820217   2.912   0.337   9.851 -0.3203 -0.4476 -0.3923
  177SLPC   H8X20218   2.811   0.375   9.823  0.6820  0.9615 -2.3184
  177SLPC   H8Y20219   2.908   0.232   9.887 -1.1361  0.4912  2.4903
  177SLPC   C3920220   3.002   0.354   9.728  0.2522 -0.3787 -0.2414
  177SLPC   H9X20221   3.097   0.301   9.748  0.1292 -0.4038  0.2831
  177SLPC   H9Y20222   3.026   0.462   9.714  0.6690 -0.3626  0.5621
  177SLPC  C31020223   2.935   0.298   9.598  0.4156 -0.3859  0.1406
  177SLPC  H10X20224   2.829   0.329   9.594  0.3474 -0.6603 -0.2656
  177SLPC  H10Y20225   2.939   0.187   9.606  1.7194 -0.5525 -1.8798
  177SLPC  C31120226   3.014   0.335   9.476 -0.2195  0.5886  1.1158
  177SLPC  H11X20227   3.120   0.305   9.480 -0.5418 -0.8535 -0.3079
  177SLPC  H11Y20228   3.021   0.443   9.447  0.6084  0.4880  0.9077
  177SLPC  C31220229   2.950   0.284   9.342 -0.0464  0.7093 -0.5954
  177SLPC  H12X20230   2.842   0.311   9.341 -0.1435  0.5744  1.4719
  177SLPC  H12Y20231   2.958   0.174   9.356  1.7279  0.5602 -2.3797
  177SLPC  C31320232   3.012   0.330   9.216 -0.2199  1.0447  0.1501
  177SLPC  H13X20233   3.120   0.308   9.223 -0.4893  0.1285  1.9505
  177SLPC  H13Y20234   3.011   0.441   9.216  0.5310  1.0661  1.3912
  177SLPC  C31420235   2.953   0.274   9.083  0.5652  0.2243 -0.4342
  177SLPC  H14X20236   2.852   0.317   9.065 -0.4949 -2.0618 -0.4133
  177SLPC  H14Y20237   2.938   0.164   9.083 -2.3343  0.5179 -1.4638
  177SLPC  C31520238   3.042   0.316   8.967  0.0729 -0.2542  0.3567
  177SLPC  H15X20239   3.145   0.280   8.986 -0.1498 -0.9403  0.3012
  177SLPC  H15Y20240   3.043   0.426   8.981 -1.4856 -0.3551  1.5589
  177SLPC  C31620241   3.003   0.272   8.820  0.5393 -0.1881 -0.5280
  177SLPC  H16X20242   2.926   0.347   8.793  0.5926  0.3947  0.8491
  177SLPC  H16Y20243   2.971   0.166   8.818 -3.1893  0.7862  0.3349
  177SLPC  C31720244   3.107   0.323   8.713 -0.0520  0.6703 -0.5404
  177SLPC  H17X20245   3.199   0.261   8.717 -1.0417 -1.0306 -2.4496
  177SLPC  H17Y20246   3.131   0.428   8.743  0.5063  0.1512  0.9346
  177SLPC  C31820247   3.048   0.317   8.573  0.3853 -0.2305  0.2212
  177SLPC  H18X20248   2.949   0.367   8.567 -0.1038 -1.1375  0.6840
  177SLPC  H18Y20249   3.040   0.213   8.535  3.8242 -0.4703 -0.1924
  177SLPC  H18Z20250   3.106   0.365   8.491 -2.5738  2.9850 -0.2460
  178SLPC     N20251   5.144   3.274  11.135  0.0828  0.0064 -0.2999
  178SLPC   C1320252   5.167   3.145  11.207  0.0210  0.7499  0.2459
  178SLPC  H13A20253   5.121   3.136  11.305 -1.7575 -0.4938 -0.6493
  178SLPC  H13B20254   5.117   3.067  11.153 -0.2141  0.7440  0.4679
  178SLPC  H13C20255   5.273   3.126  11.210 -0.1563 -0.9464 -1.9862
  178SLPC   C1420256   5.185   3.248  10.994 -0.7250 -0.1606 -0.4476
  178SLPC  H14A20257   5.141   3.157  10.956 -1.2640 -0.6209  1.1842
  178SLPC  H14B20258   5.154   3.337  10.941  1.6905  0.8786 -0.2383
  178SLPC  H14C20259   5.292   3.238  10.986 -0.7186  0.1227 -0.7237
  178SLPC   C1520260   5.216   3.385  11.194  0.3664 -0.7752  0.0175
  178SLPC  H15A20261   5.197   3.402  11.299 -0.7782 -1.1469 -0.1147
  178SLPC  H15B20262   5.322   3.363  11.195  0.2391 -1.3942  0.2788
  178SLPC  H15C20263   5.200   3.470  11.128  0.9119 -0.6952 -0.0140
  178SLPC   C1220264   4.992   3.300  11.137  0.1306  0.1217  0.1900
  178SLPC  H12A20265   4.967   3.373  11.062  0.5992  0.6575  0.5483
  178SLPC  H12B20266   4.968   3.344  11.233  0.5574  1.2250 -0.2016
  178SLPC   C1120267   4.887   3.182  11.116  0.6246 -0.1051  0.4453
  178SLPC  H11A20268   4.789   3.225  11.146  1.1097  1.4112 -0.0278
  178SLPC  H11B20269   4.906   3.102  11.191 -0.4784  0.2937  1.1710
  178SLPC     P20270   4.835   3.208  10.861  0.5500  0.3791 -0.2438
  178SLPC   O1320271   4.857   3.352  10.874  0.0207  0.1880 -0.3310
  178SLPC   O1420272   4.885   3.144  10.738  0.3000  0.3146  0.3169
  178SLPC   O1220273   4.885   3.130  10.986  0.0809 -0.1736  0.8389
  178SLPC   O1120274   4.674   3.181  10.870 -0.3366  0.4218 -0.3894
  178SLPC    C120275   4.616   3.062  10.816 -0.0183 -0.2123  0.0840
  178SLPC    HA20276   4.693   2.982  10.815  0.5779 -0.0051  4.9085
  178SLPC    HB20277   4.527   3.026  10.872 -0.1404  1.2652  0.8988
  178SLPC    C220278   4.570   3.089  10.670 -0.4726 -0.6695 -0.0001
  178SLPC    HS20279   4.663   3.115  10.614  0.2116 -0.5322  1.1797
  178SLPC   O2120280   4.471   3.191  10.664  0.6325  0.8745  0.2861
  178SLPC   C2120281   4.481   3.271  10.566 -0.0289 -0.6333 -0.0674
  178SLPC   O2220282   4.573   3.274  10.484 -0.2645 -0.0937  0.2280
  178SLPC   C2220283   4.369   3.371  10.569  0.1070 -0.3936  0.2163
  178SLPC   H2R20284   4.365   3.411  10.673  2.4104 -1.6791  0.8609
  178SLPC   H2S20285   4.396   3.464  10.515  1.5696 -0.9327 -0.0125
  178SLPC    C320286   4.510   2.966  10.600 -0.0722  0.0628 -0.0261
  178SLPC    HX20287   4.410   2.950  10.645 -0.5327  0.4882 -0.8694
  178SLPC    HY20288   4.566   2.872  10.620 -1.7981 -0.9306  0.3560
  178SLPC   O3120289   4.501   2.978  10.454 -0.4398  0.0063 -0.1828
  178SLPC   C3120290   4.613   2.973  10.382  0.0277 -0.3411  0.0892
  178SLPC   O3220291   4.726   2.945  10.422  0.0172 -0.0209 -0.1882
  178SLPC   C3220292   4.576   2.996  10.237 -0.2926 -0.9521 -0.0853
  178SLPC   H2X20293   4.593   3.105  10.220 -0.6084 -0.6820  1.1867
  178SLPC   H2Y20294   4.467   2.983  10.218 -1.0113  1.4774  1.7700
  178SLPC   C2320295   4.234   3.319  10.509 -0.5507  0.0620  0.6978
  178SLPC   H3R20296   4.155   3.389  10.545 -0.4022  0.4893  0.1911
  178SLPC   H3S20297   4.204   3.228  10.566 -1.8004 -0.6253 -0.9841
  178SLPC   C2420298   4.209   3.303  10.361 -0.1332 -0.0001 -0.3136
  178SLPC   H4R20299   4.202   3.398  10.303  0.8136 -1.0351 -2.2168
  178SLPC   H4S20300   4.111   3.252  10.343 -0.9700  1.2893  0.4562
  178SLPC   C2520301   4.306   3.208  10.284 -0.0921  0.1815 -0.4401
  178SLPC   H5R20302   4.295   3.108  10.330  0.0586  0.1956 -0.3733
  178SLPC   H5S20303   4.408   3.251  10.294  0.5904 -0.9024 -2.3758
  178SLPC   C2620304   4.272   3.198  10.141 -0.1984  0.0285  0.0113
  178SLPC   H6R20305   4.162   3.212  10.133 -0.6380 -1.9303  1.6955
  178SLPC   H6S20306   4.301   3.099  10.100  1.3889  0.0474  1.0310
  178SLPC   C2720307   4.343   3.303  10.050 -0.0892  0.3732  0.3351
  178SLPC   H7R20308   4.450   3.277  10.036 -0.2542 -0.5128  0.6039
  178SLPC   H7S20309   4.344   3.397  10.108 -3.1325  2.5336 -2.7161
  178SLPC   C2820310   4.283   3.342   9.913 -0.4629 -0.1758  0.5451
  178SLPC   H8R20311   4.342   3.420   9.860 -2.0535  0.5499 -0.2520
  178SLPC   H8S20312   4.189   3.402   9.925 -1.7796 -0.8456 -4.3735
  178SLPC   C2920313   4.249   3.224   9.824  0.2926 -0.4104 -0.1523
  178SLPC   H9R20314   4.182   3.146   9.864 -0.2278 -0.2285 -0.6433
  178SLPC  C21020315   4.289   3.205   9.696  0.1153 -0.4756 -0.5782
  178SLPC  H10R20316   4.247   3.123   9.636 -0.8293 -0.0747 -0.4748
  178SLPC  C21120317   4.389   3.287   9.623  0.3028  0.2312 -0.1772
  178SLPC  H11R20318   4.460   3.213   9.580  1.2496 -0.3109  2.1580
  178SLPC  H11S20319   4.447   3.355   9.689  0.4782 -0.9439  0.9136
  178SLPC  C21220320   4.328   3.363   9.508 -0.5212 -0.4739 -0.5959
  178SLPC  H12R20321   4.306   3.471   9.516  1.6097 -0.0239 -0.1658
  178SLPC  C21320322   4.311   3.324   9.383  0.3541  0.0883 -0.1674
  178SLPC  H13R20323   4.274   3.391   9.304 -1.4917 -1.0605 -0.3460
  178SLPC  C21420324   4.348   3.189   9.321 -0.0388  0.4164  0.0904
  178SLPC  H14R20325   4.269   3.140   9.260  1.1414 -0.7339 -0.5801
  178SLPC  H14S20326   4.391   3.120   9.398 -1.4284 -1.3571 -0.6334
  178SLPC  C21520327   4.472   3.206   9.229  0.0842  0.4811 -0.2816
  178SLPC  H15R20328   4.484   3.100   9.197  0.0699  0.8498 -1.5851
  178SLPC  H15S20329   4.563   3.235   9.285 -0.0783  0.2490  0.1049
  178SLPC  C21620330   4.436   3.287   9.104  0.0578  0.0442  0.2618
  178SLPC  H16R20331   4.408   3.392   9.129  2.3032  1.2510 -1.8547
  178SLPC  H16S20332   4.349   3.237   9.057 -0.1575  0.6030  0.0577
  178SLPC  C21720333   4.552   3.276   9.010 -0.6324 -0.1967  0.0776
  178SLPC  H17R20334   4.600   3.177   9.017  1.7175  0.9266  0.9117
  178SLPC  H17S20335   4.630   3.348   9.044  1.3163 -1.7875 -0.8587
  178SLPC  C21820336   4.513   3.307   8.866  0.4506 -0.3756 -0.0687
  178SLPC  H18R20337   4.468   3.212   8.829 -0.4737 -0.1132  0.3843
  178SLPC  H18S20338   4.605   3.331   8.807  0.0779  2.9526  0.5197
  178SLPC  H18T20339   4.433   3.383   8.857  0.7974  0.0219  0.1531
  178SLPC   C3320340   4.669   2.927  10.136  0.2002 -0.3450  0.9764
  178SLPC   H3X20341   4.677   2.823  10.172  1.8131  0.2163  2.3502
  178SLPC   H3Y20342   4.771   2.968  10.148  0.5963 -1.0290  0.0415
  178SLPC   C3420343   4.603   2.942   9.994  0.0866 -0.2963 -0.0819
  178SLPC   H4X20344   4.606   3.051   9.971  2.3753 -0.5819 -1.4249
  178SLPC   H4Y20345   4.505   2.890   9.997  0.6521 -1.5856 -2.0370
  178SLPC   C3520346   4.693   2.871   9.886  0.1379  0.0430 -0.0342
  178SLPC   H5X20347   4.716   2.765   9.909  0.6786  0.3095  0.6766
  178SLPC   H5Y20348   4.789   2.924   9.903  0.3954 -0.2297 -0.5861
  178SLPC   C3620349   4.655   2.901   9.740 -0.5282 -0.3067 -0.0983
  178SLPC   H6X20350   4.659   3.011   9.727 -3.1355 -0.1398  0.1013
  178SLPC   H6Y20351   4.548   2.876   9.722 -0.4282 -1.3021  0.6674
  178SLPC   C3720352   4.730   2.828   9.631  0.5590 -0.2023  0.6423
  178SLPC   H7X20353   4.712   2.719   9.645  2.2451 -0.5024  0.7071
  178SLPC   H7Y20354   4.839   2.837   9.647  0.2674  1.3009  2.0842
  178SLPC   C3820355   4.701   2.884   9.488 -0.1259  0.3936  0.6156
  178SLPC   H8X20356   4.756   2.981   9.484  1.0580 -0.2950 -1.9197
  178SLPC   H8Y20357   4.595   2.917   9.484  0.3428  1.9350  0.0816
  178SLPC   C3920358   4.745   2.797   9.368 -0.4165 -0.0748 -0.0134
  178SLPC   H9X20359   4.668   2.716   9.366 -0.6513  0.0086  2.5664
  178SLPC   H9Y20360   4.848   2.761   9.386  0.1195  0.8207 -1.1802
  178SLPC  C31020361   4.734   2.865   9.229  0.2431  0.6791  0.1861
  178SLPC  H10X20362   4.815   2.941   9.232  1.7923 -0.9157  3.3923
  178SLPC  H10Y20363   4.639   2.922   9.222 -0.5212 -0.7241 -2.3456
  178SLPC  C31120364   4.751   2.760   9.120 -0.0193  0.1528 -0.5586
  178SLPC  H11X20365   4.672   2.685   9.140 -0.7619  1.7030  3.0706
  178SLPC  H11Y20366   4.854   2.719   9.136 -0.1720  0.7863  2.7068
  178SLPC  C31220367   4.734   2.809   8.980  0.8096  0.3713 -0.0062
  178SLPC  H12X20368   4.806   2.892   8.962 -0.1920  1.3286  0.2889
  178SLPC  H12Y20369   4.629   2.844   8.987  0.2013 -1.3192 -0.1920
  178SLPC  C31320370   4.735   2.699   8.881  0.1873  0.9628  1.0336
  178SLPC  H13X20371   4.654   2.626   8.902  1.5528 -1.2646 -0.9127
  178SLPC  H13Y20372   4.832   2.644   8.880 -0.1347  0.3814  1.4809
  178SLPC  C31420373   4.716   2.749   8.744  1.0238 -0.1613 -0.4228
  178SLPC  H14X20374   4.793   2.829   8.739 -0.6641  1.7136  1.4063
  178SLPC  H14Y20375   4.623   2.810   8.746  1.2938  0.2338  1.0173
  178SLPC  C31520376   4.715   2.646   8.637 -0.2470 -0.0294  0.4148
  178SLPC  H15X20377   4.711   2.681   8.532 -1.5961 -0.3005  0.3593
  178SLPC  H15Y20378   4.798   2.573   8.649  0.5305  0.9835  1.4378
  178SLPC  C31620379   4.590   2.560   8.647  0.1825  0.0866  0.1208
  178SLPC  H16X20380   4.502   2.626   8.659 -0.0487 -0.1710 -0.1410
  178SLPC  H16Y20381   4.608   2.499   8.739  1.3440  0.5090  0.1985
  178SLPC  C31720382   4.561   2.461   8.533  0.0728  1.1959  0.4703
  178SLPC  H17X20383   4.643   2.386   8.532  0.0482  1.1693 -0.2340
  178SLPC  H17Y20384   4.562   2.502   8.430 -0.3222 -1.1088 -0.5120
  178SLPC  C31820385   4.432   2.378   8.554  0.1228 -0.3104  0.3400
  178SLPC  H18X20386   4.411   2.317   8.463  0.6331 -0.3538  0.2435
  178SLPC  H18Y20387   4.347   2.449   8.552 -0.6590 -1.0220  3.6431
  178SLPC  H18Z20388   4.428   2.319   8.648 -0.5444 -0.4780  0.2080
  179SLPC     N20389   0.722   1.419  10.478 -0.2243 -0.3229  0.1821
  179SLPC   C1320390   0.820   1.328  10.426  0.0660  0.5172 -0.0705
  179SLPC  H13A20391   0.794   1.301  10.325 -0.1837  2.0020 -0.4120
  179SLPC  H13B20392   0.918   1.373  10.421 -0.1350  1.1197  1.0027
  179SLPC  H13C20393   0.838   1.242  10.490  0.0364  0.7459  0.2486
  179SLPC   C1420394   0.733   1.549  10.395 -0.0532 -0.7353 -0.2361
  179SLPC  H14A20395   0.642   1.602  10.419  0.3763  0.3282 -0.8743
  179SLPC  H14B20396   0.812   1.614  10.429 -1.8274  1.8901 -0.8295
  179SLPC  H14C20397   0.749   1.537  10.289 -1.1706 -1.1941 -0.3667
  179SLPC   C1520398   0.742   1.445  10.616 -0.0052  0.6803 -0.0987
  179SLPC  H15A20399   0.671   1.514  10.660  0.5699  0.8346  0.6315
  179SLPC  H15B20400   0.732   1.353  10.672 -0.7517  0.3182 -0.8129
  179SLPC  H15C20401   0.841   1.484  10.638  0.8119 -0.5816 -1.3921
  179SLPC   C1220402   0.581   1.358  10.459 -0.7461 -0.5441  0.1277
  179SLPC  H12A20403   0.499   1.418  10.497 -1.0667 -0.8409 -0.0787
  179SLPC  H12B20404   0.577   1.271  10.523 -1.3162 -0.2283  0.5346
  179SLPC   C1120405   0.540   1.292  10.316  0.7501 -0.2804 -0.2884
  179SLPC  H11A20406   0.564   1.364  10.235  0.7695 -1.6020 -1.4935
  179SLPC  H11B20407   0.430   1.275  10.312  0.6792 -0.6725  2.0217
  179SLPC     P20408   0.608   1.035  10.323 -0.3184  0.0485 -0.0474
  179SLPC   O1320409   0.716   0.953  10.262  1.1698 -0.2044 -0.2416
  179SLPC   O1420410   0.598   1.044  10.470 -0.8117  0.8853 -0.0332
  179SLPC   O1220411   0.621   1.181  10.269 -0.5678  0.2857 -0.0322
  179SLPC   O1120412   0.471   0.985  10.261 -0.2291  0.1156  0.3308
  179SLPC    C120413   0.452   0.990  10.114  0.0691  0.4055 -0.5626
  179SLPC    HA20414   0.357   1.042  10.090 -0.9767 -1.6367 -1.1056
  179SLPC    HB20415   0.538   1.039  10.063  1.3027 -0.2502  0.8092
  179SLPC    C220416   0.439   0.846  10.078 -0.1802 -0.2001 -0.1191
  179SLPC    HS20417   0.524   0.800  10.133 -0.3612  0.5350  0.7940
  179SLPC   O2120418   0.449   0.834   9.938 -0.7705  0.1355 -0.1480
  179SLPC   C2120419   0.483   0.707   9.902  0.1747 -0.1475  0.1140
  179SLPC   O2220420   0.496   0.612   9.978 -0.6942  0.0820 -0.3930
  179SLPC   C2220421   0.482   0.707   9.747  0.4704 -0.2507  0.3418
  179SLPC   H2R20422   0.379   0.731   9.714  0.2990 -3.9212 -2.4520
  179SLPC   H2S20423   0.556   0.779   9.707  0.5365 -1.6423 -2.2786
  179SLPC    C320424   0.299   0.795  10.131 -0.6404 -0.5905  0.2004
  179SLPC    HX20425   0.301   0.789  10.241  0.6244 -1.6636  0.1408
  179SLPC    HY20426   0.287   0.689  10.101 -0.9373 -0.3060 -0.7237
  179SLPC   O3120427   0.183   0.872  10.082 -0.2527  0.0711 -0.0094
  179SLPC   C3120428   0.127   0.828   9.968  0.3542  0.9446  0.1365
  179SLPC   O3220429   0.165   0.724   9.914  0.3652  0.2883 -0.0787
  179SLPC   C3220430   0.031   0.934   9.917  0.0283 -0.1056 -0.0139
  179SLPC   H2X20431   0.041   1.024   9.980 -0.4997  1.4641 -2.0693
  179SLPC   H2Y20432  -0.073   0.898   9.904  0.0405 -0.2116  0.1724
  179SLPC   C2320433   0.511   0.573   9.679  0.3374  0.1400  0.2611
  179SLPC   H3R20434   0.458   0.493   9.734 -3.2578  0.9103 -1.7973
  179SLPC   H3S20435   0.619   0.559   9.657  0.3700  1.4157 -0.4746
  179SLPC   C2420436   0.440   0.564   9.543 -0.0194  0.2650 -0.4338
  179SLPC   H4R20437   0.330   0.574   9.557 -0.1338  0.8076 -1.6661
  179SLPC   H4S20438   0.454   0.462   9.500 -0.8243  0.0539 -0.2235
  179SLPC   C2520439   0.480   0.682   9.451  0.1826  0.8202  0.5042
  179SLPC   H5R20440   0.584   0.672   9.415 -1.0527  1.4476 -3.8455
  179SLPC   H5S20441   0.473   0.786   9.492  0.4464  1.1533 -0.2830
  179SLPC   C2620442   0.400   0.673   9.320  0.1252 -0.0126 -0.1672
  179SLPC   H6R20443   0.296   0.692   9.354  1.1527  3.5092  1.4843
  179SLPC   H6S20444   0.411   0.567   9.288 -1.8970 -0.3341  0.0898
  179SLPC   C2720445   0.437   0.786   9.219 -0.2205  0.1628 -0.8764
  179SLPC   H7R20446   0.404   0.886   9.255 -2.1807 -1.3069  1.7711
  179SLPC   H7S20447   0.381   0.777   9.124 -1.2471  0.5091 -0.3163
  179SLPC   C2820448   0.587   0.806   9.179  0.4365 -0.4928 -0.0470
  179SLPC   H8R20449   0.654   0.850   9.256 -2.3913  1.2108  1.6235
  179SLPC   H8S20450   0.577   0.885   9.101 -3.4202 -0.8951 -0.1510
  179SLPC   C2920451   0.656   0.692   9.118 -0.2357 -0.6478  0.2283
  179SLPC   H9R20452   0.629   0.595   9.162 -0.9079 -1.2695 -1.4824
  179SLPC  C21020453   0.753   0.689   9.027  0.6507 -0.4548  0.2151
  179SLPC  H10R20454   0.797   0.591   9.002  1.9522 -0.3929  2.0580
  179SLPC  C21120455   0.815   0.807   8.952 -0.6100  0.1263  0.1799
  179SLPC  H11R20456   0.791   0.903   9.003 -1.1894  0.8399 -1.3907
  179SLPC  H11S20457   0.752   0.814   8.861 -0.7261 -0.8325  0.1730
  179SLPC  C21220458   0.961   0.806   8.918  0.1929  0.6503 -0.1026
  179SLPC  H12R20459   1.022   0.883   8.967 -0.3901 -0.3962  2.4090
  179SLPC  C21320460   1.011   0.735   8.815  0.7884  0.1303 -0.2955
  179SLPC  H13R20461   1.120   0.726   8.801  0.6357 -2.6307 -0.1782
  179SLPC  C21420462   0.944   0.643   8.716 -0.0845 -0.3744  0.2096
  179SLPC  H14R20463   0.938   0.680   8.611  0.0004 -1.8965 -0.3659
  179SLPC  H14S20464   0.835   0.641   8.739  0.5036 -0.3134  3.3715
  179SLPC  C21520465   0.997   0.501   8.694 -0.5788 -0.0523 -0.9721
  179SLPC  H15R20466   0.933   0.438   8.629 -0.2717 -0.0786 -1.2548
  179SLPC  H15S20467   0.998   0.459   8.797  2.8746 -0.6869 -1.1395
  179SLPC  C21620468   1.136   0.498   8.629  0.4249 -0.6201  0.1260
  179SLPC  H16R20469   1.194   0.562   8.698 -0.5938  0.0779  0.3636
  179SLPC  H16S20470   1.131   0.546   8.529 -0.5326  0.4596  0.6703
  179SLPC  C21720471   1.200   0.359   8.634  0.9529 -0.4892 -0.0744
  179SLPC  H17R20472   1.216   0.314   8.735 -0.7896 -1.2782 -0.1093
  179SLPC  H17S20473   1.306   0.376   8.604  1.5873 -0.3589  2.0269
  179SLPC  C21820474   1.125   0.246   8.563  0.1114 -0.3797  0.8287
  179SLPC  H18R20475   1.186   0.153   8.563  2.4960  1.0977  0.9702
  179SLPC  H18S20476   1.115   0.263   8.454  1.4677 -1.5838  0.4820
  179SLPC  H18T20477   1.023   0.226   8.602 -0.7413  0.4192 -0.9075
  179SLPC   C3320478   0.084   0.996   9.785 -0.1440 -0.3466 -0.1511
  179SLPC   H3X20479   0.195   1.001   9.789 -0.2209  0.3821  2.4335
  179SLPC   H3Y20480   0.053   1.102   9.793 -1.7079 -0.8059  0.2352
  179SLPC   C3420481   0.015   0.955   9.656 -0.3213 -0.5153 -0.6085
  179SLPC   H4X20482  -0.089   0.991   9.641  0.3995  0.7821 -2.9269
  179SLPC   H4Y20483   0.009   0.844   9.657 -2.2243 -0.5438  3.2641
  179SLPC   C3520484   0.101   0.995   9.529  0.0482  0.2780 -0.2496
  179SLPC   H5X20485   0.055   0.932   9.450 -1.7455  1.3663 -0.1059
  179SLPC   H5Y20486   0.195   0.942   9.559  2.0598  1.3810 -3.9510
  179SLPC   C3620487   0.138   1.133   9.482 -0.2323  0.0769 -0.4480
  179SLPC   H6X20488   0.204   1.170   9.564  1.4401 -1.2221 -1.1407
  179SLPC   H6Y20489   0.051   1.202   9.475  0.5213  1.3359  1.5444
  179SLPC   C3720490   0.231   1.139   9.367  0.1136  0.3368 -0.4362
  179SLPC   H7X20491   0.165   1.121   9.279  1.1393 -0.5015 -1.0650
  179SLPC   H7Y20492   0.318   1.070   9.365  1.2523  1.7061 -0.1804
  179SLPC   C3820493   0.289   1.286   9.358 -0.0790 -0.1630  0.6088
  179SLPC   H8X20494   0.365   1.295   9.438 -0.4902  1.0742  0.8831
  179SLPC   H8Y20495   0.200   1.353   9.362  1.1926  1.7727 -1.0337
  179SLPC   C3920496   0.362   1.310   9.223 -0.2098 -0.0722 -0.3152
  179SLPC   H9X20497   0.291   1.319   9.139 -1.2944  0.9425  0.6650
  179SLPC   H9Y20498   0.428   1.221   9.216 -0.7690 -0.6934  1.7120
  179SLPC  C31020499   0.463   1.427   9.223  0.3718 -0.1970  0.3749
  179SLPC  H10X20500   0.526   1.433   9.315 -3.3930  0.1644  3.1651
  179SLPC  H10Y20501   0.404   1.521   9.222 -0.0798 -0.3875 -3.3879
  179SLPC  C31120502   0.560   1.419   9.096  0.3438  0.4336 -0.3625
  179SLPC  H11X20503   0.483   1.429   9.017 -0.5985 -0.3782  0.4255
  179SLPC  H11Y20504   0.604   1.317   9.104  1.7335  1.0262 -0.1793
  179SLPC  C31220505   0.674   1.522   9.107 -0.6589 -0.1485 -0.7196
  179SLPC  H12X20506   0.745   1.474   9.178 -1.0287 -2.4403 -1.7965
  179SLPC  H12Y20507   0.631   1.618   9.142  1.5496  0.1573  1.3801
  179SLPC  C31320508   0.774   1.534   8.982 -0.3644  0.3011  1.0364
  179SLPC  H13X20509   0.717   1.537   8.886 -0.0256 -2.4025  0.6763
  179SLPC  H13Y20510   0.842   1.446   8.982 -1.9082 -0.9719 -0.6465
  179SLPC  C31420511   0.862   1.655   9.005  0.6000 -0.5492  0.0905
  179SLPC  H14X20512   0.899   1.655   9.110  0.1210 -0.9613  0.2655
  179SLPC  H14Y20513   0.793   1.741   9.007  0.4385 -0.6924  0.6047
  179SLPC  C31520514   0.975   1.676   8.895  0.1164  0.2798 -0.5375
  179SLPC  H15X20515   0.922   1.631   8.808 -2.6666 -0.4804  1.4152
  179SLPC  H15Y20516   1.062   1.608   8.907 -0.1962  0.0343  0.4154
  179SLPC  C31620517   1.014   1.821   8.871 -0.2256 -0.3764 -0.4409
  179SLPC  H16X20518   0.921   1.881   8.863  1.4107  2.2704 -0.7892
  179SLPC  H16Y20519   1.068   1.840   8.776  0.2140 -3.1530 -0.8141
  179SLPC  C31720520   1.096   1.896   8.979 -0.4554  0.3064  0.5083
  179SLPC  H17X20521   1.037   1.923   9.069 -1.3438  1.6422 -0.4383
  179SLPC  H17Y20522   1.123   1.994   8.935  1.4192 -0.2603  0.3062
  179SLPC  C31820523   1.219   1.822   9.030 -0.0891  0.5948  0.3248
  179SLPC  H18X20524   1.257   1.888   9.110 -0.7643 -0.2572  1.3675
  179SLPC  H18Y20525   1.301   1.810   8.956  0.6920 -0.8115  1.3697
  179SLPC  H18Z20526   1.185   1.725   9.072  0.2577  0.2763 -0.1189
  180SLPC     N20527   0.975   4.032  10.786  0.3050 -0.4256  0.5059
  180SLPC   C1320528   0.976   4.180  10.793 -0.4992 -0.4950 -0.1435
  180SLPC  H13A20529   1.006   4.227  10.700  0.8311  0.3809  0.7017
  180SLPC  H13B20530   0.882   4.228  10.812  0.5322  0.9001  1.7497
  180SLPC  H13C20531   1.040   4.216  10.872  0.4893  0.2797 -1.2534
  180SLPC   C1420532   1.108   3.981  10.791  0.5161  0.3458 -0.1836
  180SLPC  H14A20533   1.153   4.027  10.878 -0.2516 -0.2502  0.5489
  180SLPC  H14B20534   1.104   3.874  10.809  2.5945  0.3152  0.3905
  180SLPC  H14C20535   1.162   3.994  10.698  0.9652 -0.1764 -0.0071
  180SLPC   C1520536   0.914   3.989  10.656  0.2861 -0.4091 -1.1330
  180SLPC  H15A20537   0.810   4.016  10.641 -0.3071 -1.5403  0.6640
  180SLPC  H15B20538   0.978   4.025  10.577  2.2341  0.4548  0.7550
  180SLPC  H15C20539   0.902   3.882  10.654 -0.0470 -0.3968 -0.2504
  180SLPC   C1220540   0.904   3.971  10.911 -0.0940  0.0177  0.1464
  180SLPC  H12A20541   0.798   3.990  10.895 -0.6078 -2.6151 -0.0112
  180SLPC  H12B20542   0.937   4.018  11.002  0.2019 -1.2852  0.7172
  180SLPC   C1120543   0.902   3.817  10.939  0.4850 -0.1387 -0.1607
  180SLPC  H11A20544   0.855   3.806  11.039  0.3149  0.2431 -0.1987
  180SLPC  H11B20545   1.004   3.776  10.955 -0.1110 -1.6036  0.1181
  180SLPC     P20546   0.876   3.646  10.737  0.1493  0.3593 -0.0613
  180SLPC   O1320547   0.859   3.512  10.799  0.1316 -0.3929  0.0117
  180SLPC   O1420548   0.810   3.660  10.607  0.3604 -0.3907 -0.3492
  180SLPC   O1220549   0.819   3.755  10.839 -0.0654  0.4045 -0.3497
  180SLPC   O1120550   1.025   3.678  10.726  0.4550  0.1220  0.8480
  180SLPC    C120551   1.133   3.589  10.748  0.3853 -0.5074 -0.3693
  180SLPC    HA20552   1.140   3.563  10.855  0.1917 -1.2935 -0.5378
  180SLPC    HB20553   1.110   3.498  10.688 -0.5586  0.5750 -1.7282
  180SLPC    C220554   1.270   3.655  10.702  0.0699  0.2443 -0.1343
  180SLPC    HS20555   1.305   3.741  10.763  2.8021 -0.5152 -0.4859
  180SLPC   O2120556   1.262   3.703  10.565  0.6206  0.1648  0.4455
  180SLPC   C2120557   1.354   3.780  10.523  0.2735 -0.0811  0.6863
  180SLPC   O2220558   1.437   3.837  10.592 -0.5434  0.2262  0.3577
  180SLPC   C2220559   1.349   3.771  10.369 -0.5843 -0.0675 -0.9763
  180SLPC   H2R20560   1.363   3.666  10.336  0.1884 -0.0287 -0.7845
  180SLPC   H2S20561   1.249   3.808  10.337 -1.5545  0.9462  2.7261
  180SLPC    C320562   1.375   3.546  10.700  0.1905  0.3658 -0.2244
  180SLPC    HX20563   1.405   3.500  10.797 -0.0178  3.5015  1.4373
  180SLPC    HY20564   1.476   3.578  10.664 -0.0631  0.2903 -1.0229
  180SLPC   O3120565   1.324   3.427  10.623 -0.7872 -0.2775 -1.3462
  180SLPC   C3120566   1.384   3.406  10.501 -0.5021 -0.7891 -0.3300
  180SLPC   O3220567   1.469   3.478  10.457 -0.2000  0.2599 -0.1971
  180SLPC   C3220568   1.337   3.274  10.434 -0.2688  0.0825  0.3667
  180SLPC   H2X20569   1.227   3.278  10.418 -0.5415  1.4158  2.2687
  180SLPC   H2Y20570   1.369   3.193  10.504 -1.3943  0.1842  1.0215
  180SLPC   C2320571   1.457   3.843  10.290 -0.2342  0.0982 -0.1184
  180SLPC   H3R20572   1.553   3.800  10.325 -1.2971 -2.5444 -0.2466
  180SLPC   H3S20573   1.448   3.953  10.300  0.8873  0.5204 -2.8010
  180SLPC   C2420574   1.444   3.810  10.141  0.0476 -0.0929  0.4955
  180SLPC   H4R20575   1.354   3.859  10.097 -0.8854 -0.3581  2.0389
  180SLPC   H4S20576   1.422   3.702  10.128 -0.5034 -0.2594  2.5388
  180SLPC   C2520577   1.571   3.841  10.054 -0.0828 -0.4213  0.3328
  180SLPC   H5R20578   1.670   3.814  10.097  0.4701  1.8856  0.6076
  180SLPC   H5S20579   1.580   3.951  10.044  0.6188 -0.6694 -2.7698
  180SLPC   C2620580   1.563   3.780   9.912 -0.1870 -0.7587  0.8724
  180SLPC   H6R20581   1.468   3.813   9.865  0.0629 -1.0629  0.1378
  180SLPC   H6S20582   1.563   3.669   9.917  1.6261 -0.7970  0.5031
  180SLPC   C2720583   1.672   3.842   9.820 -0.2514 -0.7598 -0.6635
  180SLPC   H7R20584   1.772   3.831   9.867 -1.3053  1.3935  2.3882
  180SLPC   H7S20585   1.652   3.948   9.797 -0.8833 -0.7218  0.0159
  180SLPC   C2820586   1.664   3.778   9.679 -0.6698 -0.2706 -0.0801
  180SLPC   H8R20587   1.561   3.788   9.637 -0.9035 -1.1473  0.2741
  180SLPC   H8S20588   1.669   3.669   9.700 -1.0512  0.1325  2.4615
  180SLPC   C2920589   1.770   3.799   9.573 -0.8406  0.1038  0.2936
  180SLPC   H9R20590   1.866   3.842   9.603  0.0769  2.0223 -4.5214
  180SLPC  C21020591   1.765   3.754   9.448 -0.7526 -0.0714 -0.0824
  180SLPC  H10R20592   1.844   3.790   9.381  0.3146 -0.8143  0.7577
  180SLPC  C21120593   1.659   3.675   9.381  0.4943 -0.1588 -0.7085
  180SLPC  H11R20594   1.606   3.745   9.313  0.5797  0.6254  0.0018
  180SLPC  H11S20595   1.587   3.633   9.455  0.4244  1.8592  0.4425
  180SLPC  C21220596   1.712   3.563   9.306 -0.2351 -0.4261 -0.2399
  180SLPC  H12R20597   1.690   3.466   9.351 -0.1760 -1.4436 -2.2577
  180SLPC  C21320598   1.783   3.562   9.195  0.1193  0.3008  0.2175
  180SLPC  H13R20599   1.823   3.469   9.152  0.8861  0.8761 -0.3385
  180SLPC  C21420600   1.838   3.670   9.107  0.1104  0.7476  0.4657
  180SLPC  H14R20601   1.949   3.664   9.111  0.0845  0.1176  0.4477
  180SLPC  H14S20602   1.811   3.772   9.140  1.0698  1.5069 -0.9840
  180SLPC  C21520603   1.796   3.663   8.955 -0.1181  0.0955  0.4352
  180SLPC  H15R20604   1.819   3.558   8.927  0.3711  0.3664 -0.2039
  180SLPC  H15S20605   1.871   3.720   8.896  0.2332 -1.8562 -1.1396
  180SLPC  C21620606   1.655   3.697   8.919  0.5630 -0.1196 -0.6457
  180SLPC  H16R20607   1.631   3.793   8.969 -3.5545 -0.9263 -0.7551
  180SLPC  H16S20608   1.588   3.631   8.978 -0.5181 -0.1798 -1.8822
  180SLPC  C21720609   1.606   3.686   8.775 -0.1508 -0.4048  0.0674
  180SLPC  H17R20610   1.495   3.676   8.774 -0.4829  1.6493  2.9050
  180SLPC  H17S20611   1.646   3.595   8.725 -1.2804 -1.4018  0.9090
  180SLPC  C21820612   1.646   3.811   8.695 -0.3360  0.2479  0.0463
  180SLPC  H18R20613   1.753   3.813   8.666  0.2389  1.9040  1.9610
  180SLPC  H18S20614   1.645   3.902   8.760  0.0520 -0.1582  0.6364
  180SLPC  H18T20615   1.593   3.824   8.598  1.9564 -2.6678 -1.7509
  180SLPC   C3320616   1.396   3.256  10.294 -0.2389 -0.1698  0.1132
  180SLPC   H3X20617   1.503   3.230  10.310 -0.1222 -0.1446 -0.5871
  180SLPC   H3Y20618   1.394   3.353  10.240  0.5043 -0.9515 -1.3779
  180SLPC   C3420619   1.337   3.136  10.227 -0.1685 -0.0241 -0.6167
  180SLPC   H4X20620   1.234   3.122  10.266  0.0763  1.1523  0.5101
  180SLPC   H4Y20621   1.392   3.040  10.237 -0.4710 -0.2801 -1.3227
  180SLPC   C3520622   1.327   3.136  10.063 -0.1515 -0.5556 -0.1052
  180SLPC   H5X20623   1.253   3.216  10.042 -0.7961 -0.4871  2.2071
  180SLPC   H5Y20624   1.294   3.035  10.031 -3.6402 -0.9545  3.9291
  180SLPC   C3620625   1.458   3.174   9.987 -0.0210 -0.2248  0.3693
  180SLPC   H6X20626   1.538   3.124  10.047 -1.8092 -0.2027  2.9315
  180SLPC   H6Y20627   1.479   3.283   9.989  1.2164 -0.4512  1.1206
  180SLPC   C3720628   1.455   3.130   9.839  0.0231  0.1159  0.0085
  180SLPC   H7X20629   1.383   3.181   9.770  1.4562  1.3334 -0.6327
  180SLPC   H7Y20630   1.435   3.022   9.823 -1.8923  0.8775 -4.1558
  180SLPC   C3820631   1.589   3.154   9.774 -0.0998 -0.2262 -0.4560
  180SLPC   H8X20632   1.657   3.091   9.835  0.0360  1.7339  1.5487
  180SLPC   H8Y20633   1.632   3.257   9.785 -1.1840  0.4162 -1.9142
  180SLPC   C3920634   1.614   3.105   9.635 -0.9783 -0.5755  0.7947
  180SLPC   H9X20635   1.585   2.998   9.625  1.4082 -1.1500 -1.0336
  180SLPC   H9Y20636   1.723   3.106   9.613 -1.0856  0.0858  0.2657
  180SLPC  C31020637   1.545   3.196   9.527 -0.1631  0.4552  0.2038
  180SLPC  H10X20638   1.579   3.301   9.536 -1.6650  1.0532 -0.7822
  180SLPC  H10Y20639   1.435   3.209   9.539  0.2161  2.2316  2.3344
  180SLPC  C31120640   1.577   3.148   9.386  0.2530  0.0411 -0.1517
  180SLPC  H11X20641   1.551   3.040   9.382  0.2410  0.0730 -1.1484
  180SLPC  H11Y20642   1.686   3.164   9.371  0.9075 -1.5385  2.3432
  180SLPC  C31220643   1.512   3.231   9.279  0.2023 -0.1664  0.2396
  180SLPC  H12X20644   1.535   3.339   9.287 -1.6580  0.3433 -0.6863
  180SLPC  H12Y20645   1.401   3.229   9.288  0.0440 -1.3011 -1.5983
  180SLPC  C31320646   1.542   3.181   9.134  0.1665  0.0073 -0.4796
  180SLPC  H13X20647   1.472   3.100   9.105 -0.2189  0.4668 -0.8533
  180SLPC  H13Y20648   1.644   3.140   9.122  1.0947  1.9633  0.3162
  180SLPC  C31420649   1.535   3.293   9.038  0.0234 -0.7068  0.1806
  180SLPC  H14X20650   1.590   3.383   9.072  0.0444 -0.1730 -1.2067
  180SLPC  H14Y20651   1.427   3.320   9.031 -0.3703 -1.3548  2.6566
  180SLPC  C31520652   1.599   3.264   8.907  0.1315 -0.0216  0.6451
  180SLPC  H15X20653   1.698   3.218   8.925  1.1438  0.6513 -2.6183
  180SLPC  H15Y20654   1.628   3.355   8.851 -2.2990 -0.2410 -1.1155
  180SLPC  C31620655   1.508   3.182   8.812 -0.4886  0.7419  0.3706
  180SLPC  H16X20656   1.403   3.216   8.827 -0.1709  0.9185  2.3927
  180SLPC  H16Y20657   1.505   3.078   8.852  1.1530  0.5963  0.1711
  180SLPC  C31720658   1.549   3.184   8.670 -0.0510  0.7591  0.2919
  180SLPC  H17X20659   1.556   3.287   8.629 -2.4591  1.1823  0.7972
  180SLPC  H17Y20660   1.481   3.121   8.609 -0.9004  1.5951  0.3535
  180SLPC  C31820661   1.676   3.103   8.635  0.1609 -0.4316  0.4470
  180SLPC  H18X20662   1.721   3.133   8.538 -1.2624  3.2060  0.7370
  180SLPC  H18Y20663   1.649   2.995   8.634  0.5356 -0.5443  1.3263
  180SLPC  H18Z20664   1.756   3.137   8.704  1.8221  2.0685 -2.4575
  181SLPC     N20665   4.178   0.723  11.171 -0.3904  0.7686  0.0899
  181SLPC   C1320666   4.093   0.617  11.097  0.0496 -0.4747  0.1939
  181SLPC  H13A20667   4.037   0.665  11.018  0.9309  0.7612  0.2879
  181SLPC  H13B20668   4.154   0.535  11.060 -1.0033 -2.1243  1.9223
  181SLPC  H13C20669   4.015   0.576  11.160 -0.7651  2.6260  1.3924
  181SLPC   C1420670   4.235   0.647  11.286  0.3074 -0.3107  0.0761
  181SLPC  H14A20671   4.281   0.556  11.251 -3.6427 -2.1025 -0.9621
  181SLPC  H14B20672   4.317   0.702  11.329  0.9504 -2.0402  1.2006
  181SLPC  H14C20673   4.158   0.614  11.355  0.7233 -0.6088  0.4049
  181SLPC   C1520674   4.093   0.833  11.226  0.8617  0.2829 -0.9677
  181SLPC  H15A20675   4.065   0.898  11.145 -0.6483 -0.5271 -1.1454
  181SLPC  H15B20676   4.007   0.786  11.272  0.8223  1.1780 -0.0961
  181SLPC  H15C20677   4.145   0.896  11.296  0.8793 -0.0453 -0.6822
  181SLPC   C1220678   4.289   0.772  11.074 -0.2049 -0.5819  0.7196
  181SLPC  H12A20679   4.336   0.680  11.041  0.8994 -0.2282  1.2401
  181SLPC  H12B20680   4.363   0.834  11.123 -1.3578  0.8254  0.7210
  181SLPC   C1120681   4.235   0.853  10.951 -0.5350  0.0387 -0.4320
  181SLPC  H11A20682   4.154   0.790  10.907  0.2117 -0.9598 -0.4171
  181SLPC  H11B20683   4.315   0.865  10.875 -0.0711 -0.2258  0.0115
  181SLPC     P20684   4.290   1.102  11.039  0.2282  0.4608 -0.3362
  181SLPC   O1320685   4.221   1.186  11.136 -0.0930 -0.2273  0.0243
  181SLPC   O1420686   4.416   1.034  11.089  0.1057 -0.3920  0.4632
  181SLPC   O1220687   4.191   0.983  10.995  0.6115  0.3762 -0.6378
  181SLPC   O1120688   4.315   1.186  10.908  0.8920 -0.1232  0.9087
  181SLPC    C120689   4.399   1.133  10.805  0.1483 -0.2150 -0.6622
  181SLPC    HA20690   4.491   1.194  10.793  0.6448 -1.0191 -0.9795
  181SLPC    HB20691   4.435   1.030  10.822 -0.4205 -0.1974  0.8064
  181SLPC    C220692   4.334   1.155  10.666 -0.1682 -0.1323  0.2456
  181SLPC    HS20693   4.407   1.123  10.589  0.1776  1.9163 -0.3289
  181SLPC   O2120694   4.299   1.297  10.641  0.3470 -0.0505 -0.8839
  181SLPC   C2120695   4.392   1.372  10.584  0.5093  0.4847 -0.2757
  181SLPC   O2220696   4.503   1.333  10.554  0.3749 -0.6631 -0.2305
  181SLPC   C2220697   4.327   1.505  10.540  0.5774 -0.1379  0.1950
  181SLPC   H2R20698   4.262   1.531  10.626 -0.3149  2.7028 -1.2217
  181SLPC   H2S20699   4.408   1.578  10.521 -0.7502  1.0638 -1.1062
  181SLPC    C320700   4.195   1.080  10.659 -0.7041 -0.2093 -0.2569
  181SLPC    HX20701   4.132   1.123  10.739  0.3199  1.6652 -0.4106
  181SLPC    HY20702   4.216   0.974  10.684  2.0539  0.4948  0.7869
  181SLPC   O3120703   4.147   1.096  10.524 -0.6875  0.0069 -1.0244
  181SLPC   C3120704   4.015   1.068  10.514 -0.3545  0.0987 -0.8305
  181SLPC   O3220705   3.939   1.029  10.601  0.4079  0.3310  0.1070
  181SLPC   C3220706   3.983   1.072  10.366  0.1717  0.4436 -0.3315
  181SLPC   H2X20707   4.052   1.013  10.301  2.6222  3.7198 -0.9639
  181SLPC   H2Y20708   3.997   1.179  10.338 -1.8981  0.8227 -0.0643
  181SLPC   C2320709   4.228   1.483  10.426  0.4593 -0.3670  0.4263
  181SLPC   H3R20710   4.158   1.569  10.428 -0.7133 -1.2150 -1.4544
  181SLPC   H3S20711   4.166   1.392  10.437 -0.2359  0.0995  0.3929
  181SLPC   C2420712   4.299   1.507  10.296  0.4258  0.0561 -0.3334
  181SLPC   H4R20713   4.379   1.435  10.270 -0.7581 -0.3351 -3.2481
  181SLPC   H4S20714   4.335   1.609  10.317  1.8682 -0.5608  0.3167
  181SLPC   C2520715   4.208   1.522  10.176  0.0336 -0.6011  0.3832
  181SLPC   H5R20716   4.138   1.607  10.194  1.3271  0.3812  0.8950
  181SLPC   H5S20717   4.148   1.429  10.160 -0.3860 -0.1432 -0.7829
  181SLPC   C2620718   4.300   1.560  10.065  0.0214  0.5884  0.0138
  181SLPC   H6R20719   4.374   1.479  10.049  0.6779  1.2212 -0.1999
  181SLPC   H6S20720   4.346   1.657  10.093 -1.2281  0.8400  1.3578
  181SLPC   C2720721   4.224   1.580   9.932  0.1704 -1.0109 -0.2398
  181SLPC   H7R20722   4.134   1.642   9.951 -0.1266 -1.5823  0.2457
  181SLPC   H7S20723   4.181   1.482   9.902 -3.4881 -0.0467  1.2531
  181SLPC   C2820724   4.315   1.635   9.834 -0.4626 -0.3259  0.4125
  181SLPC   H8R20725   4.402   1.565   9.842 -1.3012 -1.3564  0.6873
  181SLPC   H8S20726   4.331   1.740   9.865  0.2327 -0.3565  0.1819
  181SLPC   C2920727   4.251   1.637   9.698  0.0564 -0.2736  0.6114
  181SLPC   H9R20728   4.230   1.540   9.650 -2.2490 -0.3115  1.5832
  181SLPC  C21020729   4.239   1.749   9.618 -0.4414  0.2574  0.1268
  181SLPC  H10R20730   4.199   1.734   9.517  1.3131 -0.3118 -0.5271
  181SLPC  C21120731   4.271   1.890   9.655  0.6680  0.4053 -0.1279
  181SLPC  H11R20732   4.226   1.914   9.754 -0.6382  0.7403 -0.7795
  181SLPC  H11S20733   4.201   1.959   9.603 -3.5698 -0.2660  4.0185
  181SLPC  C21220734   4.417   1.923   9.647 -0.7260  0.3486  0.6390
  181SLPC  H12R20735   4.479   1.899   9.735 -1.2969  1.5674  1.3833
  181SLPC  C21320736   4.471   1.996   9.548 -0.1265  0.4225  0.0001
  181SLPC  H13R20737   4.579   2.014   9.560 -0.2847  2.2496 -1.0461
  181SLPC  C21420738   4.406   2.057   9.427  0.6439  0.8891 -0.8056
  181SLPC  H14R20739   4.407   2.168   9.430 -0.0927  0.9036 -0.8495
  181SLPC  H14S20740   4.301   2.021   9.416  1.0407 -0.1008 -1.5004
  181SLPC  C21520741   4.481   2.036   9.296  0.3407 -0.2145 -0.1119
  181SLPC  H15R20742   4.499   1.927   9.293 -2.4407 -0.7557  0.8523
  181SLPC  H15S20743   4.581   2.086   9.293 -1.3078  3.3615 -2.5725
  181SLPC  C21620744   4.397   2.075   9.177  0.5006  1.2032  0.1411
  181SLPC  H16R20745   4.361   2.179   9.191 -1.0714  0.6758  0.2564
  181SLPC  H16S20746   4.311   2.005   9.171  2.2179 -1.0935  0.6335
  181SLPC  C21720747   4.486   2.064   9.056 -0.0482  0.1228  0.0840
  181SLPC  H17R20748   4.518   1.960   9.039 -2.8269 -0.5921 -1.3951
  181SLPC  H17S20749   4.580   2.118   9.079  0.4031 -0.5066 -0.2660
  181SLPC  C21820750   4.414   2.130   8.940  0.2047 -0.8905  0.6254
  181SLPC  H18R20751   4.377   2.232   8.964 -1.1819 -1.3744  0.6472
  181SLPC  H18S20752   4.321   2.073   8.918 -0.3805 -0.7599  2.5908
  181SLPC  H18T20753   4.470   2.127   8.844 -2.4018 -0.3902 -1.0416
  181SLPC   C3320754   3.831   1.036  10.340 -0.1171  0.4475 -0.5645
  181SLPC   H3X20755   3.771   1.101  10.407 -0.2635  1.3516 -1.5545
  181SLPC   H3Y20756   3.809   0.930  10.364 -1.1238  0.5332 -1.0692
  181SLPC   C3420757   3.783   1.057  10.192  0.1245 -0.1292 -0.4871
  181SLPC   H4X20758   3.687   1.001  10.193  0.7411 -1.4184 -3.1101
  181SLPC   H4Y20759   3.864   1.006  10.135  0.5933  1.5304 -1.3556
  181SLPC   C3520760   3.772   1.205  10.173 -0.2475  0.1369  0.1603
  181SLPC   H5X20761   3.866   1.257  10.201 -0.9555  2.2965 -1.1985
  181SLPC   H5Y20762   3.691   1.236  10.244 -0.3236 -0.5653  0.3925
  181SLPC   C3620763   3.724   1.250  10.028 -0.3679  0.1217 -0.3305
  181SLPC   H6X20764   3.716   1.359  10.007  0.5271 -0.4293 -4.2189
  181SLPC   H6Y20765   3.620   1.213  10.019 -0.6398  0.0730  2.2831
  181SLPC   C3720766   3.813   1.188   9.914  0.4209 -0.8354  0.3181
  181SLPC   H7X20767   3.787   1.080   9.913 -0.4611 -0.6702  2.1099
  181SLPC   H7Y20768   3.916   1.215   9.945  0.1564 -0.3576  0.8037
  181SLPC   C3820769   3.786   1.272   9.780 -0.4939  0.6149 -0.8413
  181SLPC   H8X20770   3.683   1.276   9.739 -1.1224 -1.1070  0.4326
  181SLPC   H8Y20771   3.838   1.229   9.691  0.0257  1.4022 -0.9239
  181SLPC   C3920772   3.830   1.425   9.788 -0.3206  0.8353 -0.3097
  181SLPC   H9X20773   3.929   1.434   9.837 -0.3663  0.1250 -0.0751
  181SLPC   H9Y20774   3.760   1.474   9.860  0.2011 -0.5914  1.2267
  181SLPC  C31020775   3.836   1.503   9.659  0.5042  0.4074 -0.4112
  181SLPC  H10X20776   3.853   1.612   9.674 -3.3642  1.3456 -1.6265
  181SLPC  H10Y20777   3.735   1.488   9.617 -0.4190 -1.5412  2.2369
  181SLPC  C31120778   3.946   1.455   9.559 -0.5204  0.1201  0.3629
  181SLPC  H11X20779   3.932   1.347   9.537 -0.2843  0.2374 -0.3767
  181SLPC  H11Y20780   4.043   1.470   9.611 -1.0689  0.6778  1.2600
  181SLPC  C31220781   3.951   1.546   9.431  0.4468 -0.4738  0.0199
  181SLPC  H12X20782   3.941   1.654   9.455  1.5655  0.4937 -3.3333
  181SLPC  H12Y20783   3.881   1.504   9.356  0.9972 -1.3558 -0.0177
  181SLPC  C31320784   4.091   1.541   9.363  0.0762  0.1200  0.0809
  181SLPC  H13X20785   4.092   1.438   9.321 -2.5880 -2.3546  5.1710
  181SLPC  H13Y20786   4.169   1.547   9.443  0.2347 -1.5013  0.0726
  181SLPC  C31420787   4.102   1.649   9.261 -0.2823 -0.9707  0.1937
  181SLPC  H14X20788   4.041   1.736   9.295 -1.6967 -2.5695  1.9293
  181SLPC  H14Y20789   4.053   1.608   9.170  1.1609  0.4778 -1.3047
  181SLPC  C31520790   4.255   1.684   9.235 -0.3711 -0.1133  0.4707
  181SLPC  H15X20791   4.313   1.591   9.225 -2.0805 -1.1782  0.0085
  181SLPC  H15Y20792   4.295   1.746   9.318 -4.5457  1.3125  1.7120
  181SLPC  C31620793   4.280   1.747   9.095  0.8122 -0.1644  0.4036
  181SLPC  H16X20794   4.367   1.815   9.111 -0.4130  0.9513  3.0056
  181SLPC  H16Y20795   4.190   1.805   9.065  0.8340  1.0411  2.4650
  181SLPC  C31720796   4.312   1.640   8.985  0.4363 -0.3004  0.0885
  181SLPC  H17X20797   4.222   1.576   8.974  0.8142 -0.7353 -0.5139
  181SLPC  H17Y20798   4.402   1.578   9.007  3.0159  3.2571  0.4573
  181SLPC  C31820799   4.345   1.715   8.854 -0.2521  0.7080  0.4547
  181SLPC  H18X20800   4.260   1.786   8.844 -0.6571  0.9672  4.2858
  181SLPC  H18Y20801   4.337   1.658   8.759 -1.0981  0.0729  0.9048
  181SLPC  H18Z20802   4.448   1.757   8.865  1.4248 -3.0290  0.5593
  182SLPC     N20803   2.540   2.924  11.164 -0.3580  0.6810  0.2590
  182SLPC   C1320804   2.624   2.891  11.281 -0.0527  0.0553 -1.0177
  182SLPC  H13A20805   2.615   2.785  11.296 -1.6216  0.0928 -1.4676
  182SLPC  H13B20806   2.728   2.904  11.256  0.4028 -1.0166  0.2682
  182SLPC  H13C20807   2.601   2.953  11.366  2.2953  1.6368 -1.4337
  182SLPC   C1420808   2.551   3.071  11.137 -0.2603 -0.0414 -0.1731
  182SLPC  H14A20809   2.515   3.117  11.228  0.7063 -1.4653  0.9722
  182SLPC  H14B20810   2.653   3.106  11.127 -0.0233  0.4457  2.8486
  182SLPC  H14C20811   2.491   3.098  11.051 -0.4890 -0.3751 -0.1186
  182SLPC   C1520812   2.397   2.903  11.210  0.0020  0.1997  0.4544
  182SLPC  H15A20813   2.328   2.915  11.128 -0.9135 -1.4025  0.9527
  182SLPC  H15B20814   2.387   2.797  11.227 -1.1254  0.2837  0.4077
  182SLPC  H15C20815   2.382   2.956  11.303  0.8268 -0.8353  1.1958
  182SLPC   C1220816   2.567   2.847  11.038  0.5106  0.7605 -0.2239
  182SLPC  H12A20817   2.522   2.751  11.060 -0.7634  1.4625  0.3682
  182SLPC  H12B20818   2.674   2.833  11.027  0.4164 -0.2842  0.1043
  182SLPC   C1120819   2.512   2.899  10.902  0.2543  0.4616  0.0501
  182SLPC  H11A20820   2.558   2.838  10.821 -0.8884 -1.4972  0.7965
  182SLPC  H11B20821   2.545   3.005  10.891  1.0674  0.3322  1.0798
  182SLPC     P20822   2.277   2.819  10.809 -0.0169  0.1381 -0.5747
  182SLPC   O1320823   2.297   2.672  10.823 -0.1844  0.3676  0.7017
  182SLPC   O1420824   2.144   2.879  10.831 -0.3730  0.2652  0.5157
  182SLPC   O1220825   2.369   2.896  10.905 -0.5308  0.1679  0.5360
  182SLPC   O1120826   2.328   2.861  10.663  0.2815 -0.3105  0.0097
  182SLPC    C120827   2.347   2.994  10.626  0.2327  0.9146 -0.0356
  182SLPC    HA20828   2.389   3.057  10.708 -1.3629  2.0225 -0.0167
  182SLPC    HB20829   2.414   3.003  10.538  0.9302  2.5292  0.6100
  182SLPC    C220830   2.216   3.059  10.569  0.1033  0.2550  0.6259
  182SLPC    HS20831   2.127   3.021  10.623 -1.5211  0.3314 -1.8421
  182SLPC   O2120832   2.202   3.033  10.428 -0.0362 -0.5988 -0.0910
  182SLPC   C2120833   2.094   3.070  10.368  0.0468 -0.3032  0.4472
  182SLPC   O2220834   2.001   3.133  10.417  0.0257 -0.8767 -0.1888
  182SLPC   C2220835   2.119   3.027  10.222 -0.2428 -0.2482 -0.4761
  182SLPC   H2R20836   2.222   3.063  10.204  1.1181 -3.1998  0.6517
  182SLPC   H2S20837   2.108   2.916  10.222 -0.4931 -0.2341 -1.9179
  182SLPC    C320838   2.213   3.214  10.604 -0.2985 -0.0793  0.3235
  182SLPC    HX20839   2.238   3.234  10.710  0.2809 -0.5438  0.2805
  182SLPC    HY20840   2.106   3.244  10.606 -0.0385  0.8607  2.2336
  182SLPC   O3120841   2.286   3.297  10.515 -0.1331 -0.3411  0.6884
  182SLPC   C3120842   2.261   3.427  10.528  1.1095 -0.1276  0.3515
  182SLPC   O3220843   2.170   3.471  10.599  0.0916 -1.1513 -0.1810
  182SLPC   C3220844   2.367   3.508  10.449  0.1754  0.4178 -0.0741
  182SLPC   H2X20845   2.452   3.438  10.434 -0.8555 -1.0191  0.5522
  182SLPC   H2Y20846   2.390   3.599  10.509  0.5286 -0.0925  0.5813
  182SLPC   C2320847   2.014   3.076  10.125 -0.3133  0.3953 -0.5669
  182SLPC   H3R20848   2.008   3.186  10.143 -3.7872  0.1158  0.5510
  182SLPC   H3S20849   1.914   3.040  10.157 -0.3903  2.9871  2.6280
  182SLPC   C2420850   2.043   3.050   9.980 -0.2164  0.0643 -0.3328
  182SLPC   H4R20851   2.152   3.071   9.968 -0.4493  1.3545 -0.3861
  182SLPC   H4S20852   1.990   3.128   9.922 -0.0535 -0.7152 -1.5467
  182SLPC   C2520853   2.003   2.903   9.931 -0.1808  0.1088  0.3312
  182SLPC   H5R20854   1.896   2.901   9.959  0.0990  1.8902  1.7595
  182SLPC   H5S20855   2.055   2.825   9.991  1.3822  1.9189  1.4748
  182SLPC   C2620856   2.015   2.870   9.776  0.1524  0.1242  0.1317
  182SLPC   H6R20857   1.928   2.922   9.730  1.4681  0.6066 -1.9615
  182SLPC   H6S20858   1.993   2.763   9.753  0.0922  0.3208 -0.7637
  182SLPC   C2720859   2.149   2.912   9.729  0.6620  0.6255 -0.1911
  182SLPC   H7R20860   2.227   2.883   9.803 -0.6135  1.0115  1.3514
  182SLPC   H7S20861   2.167   3.021   9.721 -0.2073  0.8733  1.0359
  182SLPC   C2820862   2.176   2.832   9.602 -0.1957 -0.2804  0.3906
  182SLPC   H8R20863   2.253   2.897   9.556 -2.3008  1.2841 -1.1283
  182SLPC   H8S20864   2.087   2.832   9.535 -0.6374 -0.1304  0.9715
  182SLPC   C2920865   2.231   2.691   9.625  0.1029  0.0944  1.0440
  182SLPC   H9R20866   2.245   2.658   9.729 -1.9278 -0.5975  1.1438
  182SLPC  C21020867   2.276   2.612   9.523  0.7998 -0.1559 -0.8658
  182SLPC  H10R20868   2.312   2.510   9.540  0.5478  0.0178  0.9436
  182SLPC  C21120869   2.272   2.648   9.377 -0.6491  0.3375  0.2693
  182SLPC  H11R20870   2.251   2.756   9.363 -4.0780 -0.3623 -1.0149
  182SLPC  H11S20871   2.186   2.601   9.324 -1.4368  1.4827  0.5057
  182SLPC  C21220872   2.402   2.601   9.312 -0.1638 -0.4674  0.1174
  182SLPC  H12R20873   2.468   2.533   9.368  1.4673  1.5509  0.7583
  182SLPC  C21320874   2.443   2.650   9.190  0.4548  0.3719 -0.2385
  182SLPC  H13R20875   2.532   2.611   9.139  2.2718  1.4412  1.9238
  182SLPC  C21420876   2.359   2.745   9.107  0.5238 -0.2301 -0.0452
  182SLPC  H14R20877   2.419   2.839   9.105  0.8653 -0.4553 -0.7874
  182SLPC  H14S20878   2.256   2.767   9.142  0.7924  0.3286  0.3983
  182SLPC  C21520879   2.342   2.692   8.965 -0.9887  0.0977 -0.3567
  182SLPC  H15R20880   2.298   2.590   8.963 -1.1539  0.1224  0.9380
  182SLPC  H15S20881   2.445   2.680   8.925 -0.9720  0.3385 -0.3854
  182SLPC  C21620882   2.260   2.784   8.873  0.6624 -0.3090  0.3978
  182SLPC  H16R20883   2.312   2.881   8.892  0.7124 -0.3131  0.2812
  182SLPC  H16S20884   2.154   2.792   8.906 -0.2131  0.4338 -2.3373
  182SLPC  C21720885   2.269   2.727   8.728  0.2877  0.0082 -0.6570
  182SLPC  H17R20886   2.245   2.619   8.727  0.4420 -0.0472  0.6236
  182SLPC  H17S20887   2.376   2.731   8.701  0.5730 -4.4038 -0.8101
  182SLPC  C21820888   2.178   2.808   8.633 -0.2549  0.5058 -0.0389
  182SLPC  H18R20889   2.076   2.767   8.643  0.4466 -1.5575 -0.8008
  182SLPC  H18S20890   2.206   2.808   8.525 -2.4652  1.2835 -0.6618
  182SLPC  H18T20891   2.166   2.911   8.673 -0.0651  0.3319  0.4693
  182SLPC   C3320892   2.300   3.543  10.314 -0.0604  0.5188  0.1485
  182SLPC   H3X20893   2.357   3.631  10.278 -2.0701  1.4845 -0.8615
  182SLPC   H3Y20894   2.194   3.572  10.331  0.2198  1.6676 -0.0141
  182SLPC   C3420895   2.301   3.435  10.206  0.6219 -0.1201 -0.0027
  182SLPC   H4X20896   2.253   3.478  10.116 -0.1243  0.9022  0.8581
  182SLPC   H4Y20897   2.224   3.359  10.229 -0.4949  0.7814 -0.6770
  182SLPC   C3520898   2.433   3.369  10.177  0.6296 -0.6700 -1.0127
  182SLPC   H5X20899   2.451   3.281  10.244 -1.0753 -2.8980 -3.2905
  182SLPC   H5Y20900   2.512   3.447  10.175  0.5317 -0.5690 -3.7343
  182SLPC   C3620901   2.436   3.309  10.034 -0.4818  0.5103  0.3015
  182SLPC   H6X20902   2.421   3.389   9.958 -0.7832  1.6777  1.5339
  182SLPC   H6Y20903   2.352   3.238  10.016 -0.7067  0.9960 -0.6411
  182SLPC   C3720904   2.573   3.245   9.998  0.2294  0.5163 -0.1476
  182SLPC   H7X20905   2.611   3.177  10.077 -0.1612  0.1434 -0.2747
  182SLPC   H7Y20906   2.642   3.332   9.988  1.3983 -0.6066 -3.0375
  182SLPC   C3820907   2.567   3.184   9.852 -0.2445 -0.8248  0.1888
  182SLPC   H8X20908   2.474   3.124   9.844  0.7496 -2.5432  0.8762
  182SLPC   H8Y20909   2.651   3.115   9.828 -0.9132 -1.5437 -0.1141
  182SLPC   C3920910   2.549   3.295   9.737 -0.7275  0.3010 -0.8026
  182SLPC   H9X20911   2.614   3.383   9.752 -2.3866  1.4585 -0.1741
  182SLPC   H9Y20912   2.448   3.340   9.751 -0.1583  1.0606  1.1264
  182SLPC  C31020913   2.572   3.225   9.596  0.3823 -0.3961 -0.3460
  182SLPC  H10X20914   2.514   3.131   9.583 -0.3836  0.1306 -0.8260
  182SLPC  H10Y20915   2.677   3.190   9.583  1.4858  2.5065 -0.1122
  182SLPC  C31120916   2.529   3.321   9.487  0.3350 -0.1872 -0.2807
  182SLPC  H11X20917   2.601   3.406   9.481  1.1026 -0.7468  0.6082
  182SLPC  H11Y20918   2.427   3.359   9.509 -0.0150 -0.5927 -1.1664
  182SLPC  C31220919   2.529   3.255   9.349  0.5120 -0.0816  0.1662
  182SLPC  H12X20920   2.436   3.194   9.359  1.2286 -1.4524 -1.2491
  182SLPC  H12Y20921   2.613   3.183   9.338  0.2334 -0.2143 -1.3421
  182SLPC  C31320922   2.519   3.348   9.230  0.2289  0.3502  0.7209
  182SLPC  H13X20923   2.612   3.410   9.225  0.1653  0.5178  1.4930
  182SLPC  H13Y20924   2.434   3.413   9.260  0.0034  0.2719  0.2485
  182SLPC  C31420925   2.479   3.287   9.101  0.5837  0.2156 -0.2598
  182SLPC  H14X20926   2.390   3.224   9.123 -0.6376  2.2610  0.9697
  182SLPC  H14Y20927   2.558   3.223   9.056  0.9282  2.3478 -2.9362
  182SLPC  C31520928   2.440   3.394   9.000  0.1360  0.5584  0.3021
  182SLPC  H15X20929   2.523   3.467   8.991  1.8513 -1.0560  2.0523
  182SLPC  H15Y20930   2.347   3.446   9.033 -0.0505  0.6223 -0.3104
  182SLPC  C31620931   2.414   3.335   8.867 -0.0644  0.4850 -0.6489
  182SLPC  H16X20932   2.347   3.247   8.882  1.9657 -0.6637  2.7746
  182SLPC  H16Y20933   2.512   3.298   8.830 -1.3096 -1.7103 -1.9548
  182SLPC  C31720934   2.344   3.429   8.757 -0.2957  0.8501 -0.6192
  182SLPC  H17X20935   2.240   3.455   8.786 -0.4510 -1.1776  0.7731
  182SLPC  H17Y20936   2.326   3.366   8.667  1.2658 -0.2689 -0.1830
  182SLPC  C31820937   2.424   3.550   8.733 -0.8222 -0.5032  0.3560
  182SLPC  H18X20938   2.531   3.524   8.714 -1.2705 -2.1219 -0.0460
  182SLPC  H18Y20939   2.416   3.618   8.821 -0.0169 -0.6327  0.5398
  182SLPC  H18Z20940   2.397   3.627   8.657 -0.6775 -0.2725  0.5360
  183SLPC     N20941   3.652   4.255  11.194  0.1903  0.7782  0.5760
  183SLPC   C1320942   3.646   4.377  11.100  0.4097 -0.4556  0.0102
  183SLPC  H13A20943   3.688   4.468  11.141 -0.7553  0.1728 -0.1611
  183SLPC  H13B20944   3.688   4.361  11.002  1.0803 -3.1533  0.6679
  183SLPC  H13C20945   3.540   4.398  11.095  0.0331 -0.6978  3.9142
  183SLPC   C1420946   3.548   4.277  11.302 -0.2736 -0.2246  0.3350
  183SLPC  H14A20947   3.544   4.198  11.375 -0.6033  1.2878  2.0156
  183SLPC  H14B20948   3.561   4.370  11.356 -0.8608  1.1059 -1.6960
  183SLPC  H14C20949   3.448   4.284  11.264 -0.0743  0.7031 -0.0457
  183SLPC   C1520950   3.783   4.229  11.251 -0.1679 -0.2902  0.2479
  183SLPC  H15A20951   3.854   4.214  11.171 -0.4829  0.1741 -0.1234
  183SLPC  H15B20952   3.819   4.313  11.308 -2.1332  0.0327  1.0893
  183SLPC  H15C20953   3.787   4.140  11.312  1.1019 -0.0743  0.4957
  183SLPC   C1220954   3.617   4.136  11.111 -0.5295  0.3384  0.2922
  183SLPC  H12A20955   3.515   4.141  11.076 -0.1907  0.1541 -0.7584
  183SLPC  H12B20956   3.640   4.051  11.174  2.3854 -0.7008 -1.9185
  183SLPC   C1120957   3.698   4.120  10.973  0.1863 -0.3795  0.6849
  183SLPC  H11A20958   3.659   4.197  10.902  0.6150 -1.9355 -1.3300
  183SLPC  H11B20959   3.677   4.025  10.920 -0.2927 -0.4270  0.9567
  183SLPC     P20960   3.953   4.035  10.961  0.0676 -0.3011 -0.2041
  183SLPC   O1320961   4.091   4.087  10.965  0.7720 -0.0426 -0.3095
  183SLPC   O1420962   3.923   3.918  11.043  0.0171 -0.2049 -0.0386
  183SLPC   O1220963   3.849   4.147  10.989  0.4101  0.0366  0.4410
  183SLPC   O1120964   3.925   4.005  10.807  0.6092  0.3899 -0.0130
  183SLPC    C120965   3.936   3.871  10.749 -0.1104 -0.1540 -0.3054
  183SLPC    HA20966   4.042   3.838  10.751 -0.6042 -1.8888  2.6247
  183SLPC    HB20967   3.876   3.802  10.811  1.6391 -0.0701  1.5808
  183SLPC    C220968   3.881   3.865  10.602  0.1529  0.4870 -1.4608
  183SLPC    HS20969   3.893   3.759  10.572  1.5880 -0.1066  0.9415
  183SLPC   O2120970   3.955   3.952  10.514 -0.1937 -0.1583 -0.1708
  183SLPC   C2120971   4.063   3.910  10.457  0.0208  0.2289  0.0275
  183SLPC   O2220972   4.120   3.801  10.470 -0.0354 -0.6086 -1.0818
  183SLPC   C2220973   4.106   4.014  10.351  0.3194 -0.5802  0.3015
  183SLPC   H2R20974   4.193   4.077  10.380 -0.6148  1.1147 -0.4419
  183SLPC   H2S20975   4.126   3.952  10.261  2.5444  0.6642 -0.1459
  183SLPC    C320976   3.727   3.889  10.601  0.0822 -0.6819 -0.4439
  183SLPC    HX20977   3.706   3.977  10.666 -1.9711 -1.1059 -0.4867
  183SLPC    HY20978   3.672   3.817  10.664 -1.3305  2.4367  2.1942
  183SLPC   O3120979   3.673   3.900  10.462  0.1962  0.4060  0.7468
  183SLPC   C3120980   3.648   4.020  10.419  0.3801  0.3921  0.6324
  183SLPC   O3220981   3.681   4.127  10.464 -0.0333 -0.2725  0.1320
  183SLPC   C3220982   3.564   4.002  10.295 -0.2822  0.5165  0.2491
  183SLPC   H2X20983   3.513   3.903  10.296 -2.4538  1.5532 -0.5642
  183SLPC   H2Y20984   3.635   4.014  10.210 -0.7615  1.0681 -0.0779
  183SLPC   C2320985   4.010   4.123  10.298 -0.0067 -0.2078 -0.2437
  183SLPC   H3R20986   4.074   4.213  10.300 -1.2511  0.7535  2.7441
  183SLPC   H3S20987   3.935   4.153  10.374  1.5971  0.8738  0.9786
  183SLPC   C2420988   3.966   4.112  10.154  0.3318  0.4158 -0.1211
  183SLPC   H4R20989   3.895   4.027  10.162 -0.7566  1.2242 -0.7939
  183SLPC   H4S20990   4.046   4.074  10.086 -0.2668 -0.3321 -0.4153
  183SLPC   C2520991   3.898   4.240  10.109 -1.0429 -0.0484  0.3591
  183SLPC   H5R20992   3.976   4.319  10.104  1.0655 -2.0555 -0.3301
  183SLPC   H5S20993   3.830   4.282  10.185  1.7211  1.2801  2.2755
  183SLPC   C2620994   3.825   4.236   9.977 -0.3081  0.6326  0.7788
  183SLPC   H6R20995   3.795   4.339   9.950 -1.7948  1.0412  3.6373
  183SLPC   H6S20996   3.733   4.175   9.991  1.6801 -3.2295 -1.4003
  183SLPC   C2720997   3.886   4.164   9.856  0.2707 -0.4805  0.6835
  183SLPC   H7R20998   3.901   4.054   9.866  1.0659 -0.3185  1.3489
  183SLPC   H7S20999   3.990   4.203   9.847 -0.1144  0.9388  2.1535
  183SLPC   C2821000   3.804   4.203   9.730 -0.3167  0.8463 -0.7182
  183SLPC   H8R21001   3.777   4.310   9.741  0.1249  0.8693  0.2675
  183SLPC   H8S21002   3.707   4.148   9.726  1.3047 -2.6673  2.2977
  183SLPC   C2921003   3.876   4.164   9.602 -0.2707  0.0200  0.2904
  183SLPC   H9R21004   3.950   4.082   9.606 -1.2071 -0.8322  0.5585
  183SLPC  C21021005   3.868   4.232   9.489  0.0462  0.3779 -0.2828
  183SLPC  H10R21006   3.941   4.205   9.411 -0.3848 -1.5450 -0.0699
  183SLPC  C21121007   3.784   4.355   9.459 -0.0075 -0.6573 -0.5082
  183SLPC  H11R21008   3.720   4.380   9.547  1.7841 -1.7160  1.1656
  183SLPC  H11S21009   3.716   4.331   9.375 -0.6325  0.0432 -0.2217
  183SLPC  C21221010   3.868   4.473   9.429  0.2325 -0.4727  0.1703
  183SLPC  H12R21011   3.905   4.516   9.523  0.7775 -0.6090  0.0265
  183SLPC  C21321012   3.905   4.522   9.308 -0.1145  0.4452  0.2613
  183SLPC  H13R21013   3.975   4.607   9.314 -0.6697  0.8390  1.3839
  183SLPC  C21421014   3.878   4.472   9.169 -0.8059 -0.3957  0.6046
  183SLPC  H14R21015   3.839   4.553   9.103  1.2247  1.2685  1.3225
  183SLPC  H14S21016   3.795   4.399   9.158 -0.8112 -0.2415 -0.5501
  183SLPC  C21521017   4.010   4.416   9.105  0.7403 -0.2798 -0.9934
  183SLPC  H15R21018   4.072   4.353   9.172  0.3689 -1.6031 -1.8500
  183SLPC  H15S21019   4.071   4.506   9.086  1.1719  0.0123  1.4507
  183SLPC  C21621020   3.992   4.331   8.975 -0.0160  0.1387 -1.0449
  183SLPC  H16R21021   4.092   4.317   8.931  0.2229  0.0587 -0.4816
  183SLPC  H16S21022   3.933   4.391   8.902 -1.1732 -1.3628 -1.3993
  183SLPC  C21721023   3.927   4.193   9.001  0.0626 -0.0194 -0.2757
  183SLPC  H17R21024   3.836   4.212   9.062 -0.7832 -0.4657 -1.3544
  183SLPC  H17S21025   3.991   4.126   9.062  2.3662  2.2085 -0.0747
  183SLPC  C21821026   3.885   4.119   8.870 -0.0315 -0.4957 -0.6466
  183SLPC  H18R21027   3.778   4.139   8.848 -0.3295  1.1361  1.8982
  183SLPC  H18S21028   3.889   4.013   8.903  1.2184 -0.0227  0.8310
  183SLPC  H18T21029   3.948   4.131   8.780 -0.6163 -1.8169 -1.2696
  183SLPC   C3321030   3.458   4.114  10.279  0.9479  0.7912 -0.2609
  183SLPC   H3X21031   3.513   4.210  10.282 -1.0132  1.9547  0.2240
  183SLPC   H3Y21032   3.386   4.124  10.363  0.6092 -1.9196 -0.1445
  183SLPC   C3421033   3.377   4.106  10.148 -0.1137  0.1838  0.3897
  183SLPC   H4X21034   3.441   4.126  10.059  1.9770  2.2025  2.2353
  183SLPC   H4Y21035   3.308   4.193  10.140 -0.3010  0.0506  0.5308
  183SLPC   C3521036   3.304   3.971  10.136  0.4966 -0.5859 -0.1695
  183SLPC   H5X21037   3.232   3.963  10.220 -0.8786 -0.6227 -1.3058
  183SLPC   H5Y21038   3.380   3.891  10.148  2.8517  1.6034  0.1703
  183SLPC   C3621039   3.226   3.959  10.000 -0.7687  1.2554 -0.5364
  183SLPC   H6X21040   3.186   3.856  10.007  1.2646  0.5285  1.6830
  183SLPC   H6Y21041   3.297   3.990   9.920 -1.2135  1.5918 -0.8043
  183SLPC   C3721042   3.101   4.042   9.994  0.7337 -0.5615  0.9496
  183SLPC   H7X21043   3.121   4.146  10.028 -4.2728  0.5511  1.2933
  183SLPC   H7Y21044   3.025   3.996  10.061  2.7964 -2.7364  1.9255
  183SLPC   C3821045   3.041   4.063   9.855  0.3919  0.6520 -0.0185
  183SLPC   H8X21046   2.940   4.110   9.851 -0.1711 -0.4987  0.2856
  183SLPC   H8Y21047   3.032   3.965   9.803 -0.4273  2.0238 -2.6630
  183SLPC   C3921048   3.126   4.153   9.762  0.2179 -0.3299  0.7143
  183SLPC   H9X21049   3.210   4.089   9.728 -0.4173 -0.7053 -0.1920
  183SLPC   H9Y21050   3.163   4.242   9.817 -1.7509  1.0681 -0.1023
  183SLPC  C31021051   3.045   4.207   9.639 -0.3874  0.1493 -0.3110
  183SLPC  H10X21052   3.080   4.311   9.619  0.0049 -0.1861 -1.4032
  183SLPC  H10Y21053   2.945   4.218   9.685 -0.3754  3.2969 -0.8201
  183SLPC  C31121054   3.057   4.124   9.516 -0.2708 -0.3767  1.0361
  183SLPC  H11X21055   3.159   4.126   9.474 -0.0532 -1.5406  1.4535
  183SLPC  H11Y21056   2.999   4.178   9.439  0.0546 -1.3388  0.0964
  183SLPC  C31221057   3.011   3.974   9.523  0.2062 -0.3567  0.4163
  183SLPC  H12X21058   2.922   3.964   9.589  1.1999 -1.7855  1.6164
  183SLPC  H12Y21059   3.094   3.911   9.562  0.2930 -0.3001  0.3241
  183SLPC  C31321060   2.962   3.935   9.382  0.2266 -0.6189  0.0052
  183SLPC  H13X21061   2.870   3.989   9.352  0.6475 -0.2386 -0.6291
  183SLPC  H13Y21062   2.929   3.829   9.386 -0.4553 -0.5583 -2.3949
  183SLPC  C31421063   3.059   3.931   9.265  0.4814 -0.1971  0.1417
  183SLPC  H14X21064   3.098   4.031   9.234  1.5559 -0.8304 -0.6474
  183SLPC  H14Y21065   3.004   3.898   9.174 -0.1241  0.0878  0.4043
  183SLPC  C31521066   3.170   3.838   9.299  0.0301  0.3741 -0.4900
  183SLPC  H15X21067   3.134   3.735   9.317  0.6016  0.4054  1.0072
  183SLPC  H15Y21068   3.227   3.877   9.387  0.1114 -0.1740 -0.2973
  183SLPC  C31621069   3.281   3.838   9.189  0.0951 -0.1244  1.0443
  183SLPC  H16X21070   3.353   3.761   9.224  1.3204  0.1657 -0.7204
  183SLPC  H16Y21071   3.338   3.933   9.181  1.2943 -0.9615 -1.4126
  183SLPC  C31721072   3.225   3.799   9.053 -0.0494 -0.4613  0.4887
  183SLPC  H17X21073   3.198   3.900   9.018  2.6597  0.7840  1.6525
  183SLPC  H17Y21074   3.139   3.731   9.071 -0.7501  0.0747 -0.7627
  183SLPC  C31821075   3.330   3.744   8.953 -0.5214  0.7433 -0.7829
  183SLPC  H18X21076   3.287   3.726   8.852 -0.1521  1.2397 -1.0294
  183SLPC  H18Y21077   3.380   3.651   8.988  0.5976  1.7630  0.4441
  183SLPC  H18Z21078   3.411   3.815   8.926 -0.1312  0.0110 -1.5706
  184SLPC     N21079   0.098   0.193  10.772 -0.0409  0.1392 -0.1581
  184SLPC   C1321080   0.208   0.101  10.792  0.1749  0.9936 -0.9264
  184SLPC  H13A21081   0.304   0.140  10.762  0.0297  1.5374 -0.6911
  184SLPC  H13B21082   0.218   0.073  10.896 -0.4664  1.2173 -0.8010
  184SLPC  H13C21083   0.177   0.007  10.748 -0.7680 -0.1658  1.9600
  184SLPC   C1421084  -0.030   0.133  10.824 -0.4913  0.0896  0.2847
  184SLPC  H14A21085  -0.110   0.202  10.804 -0.4635 -0.2651 -1.1559
  184SLPC  H14B21086  -0.055   0.043  10.771  0.6908  0.2815 -0.6312
  184SLPC  H14C21087  -0.008   0.107  10.927  3.5401 -4.1030 -1.2835
  184SLPC   C1521088   0.083   0.208  10.622  0.3681  0.8868  0.5421
  184SLPC  H15A21089   0.010   0.284  10.599 -0.9074 -0.7645 -1.1360
  184SLPC  H15B21090   0.166   0.238  10.560 -0.4599 -0.3623 -1.2632
  184SLPC  H15C21091   0.065   0.115  10.570 -1.8250  0.1598  2.4282
  184SLPC   C1221092   0.128   0.329  10.837 -0.2473 -0.8609  0.0066
  184SLPC  H12A21093   0.209   0.383  10.791 -1.3424  1.2647  0.4301
  184SLPC  H12B21094   0.161   0.318  10.939  2.7809  1.3796 -0.5851
  184SLPC   C1121095   0.013   0.438  10.845 -0.9352 -0.0880 -0.4122
  184SLPC  H11A21096   0.057   0.527  10.896  0.6674 -1.2322  0.2577
  184SLPC  H11B21097  -0.058   0.384  10.912 -0.6511  0.1900  0.1164
  184SLPC     P21098   0.011   0.575  10.625  0.0218 -0.6046  0.1612
  184SLPC   O1321099  -0.085   0.687  10.635 -0.2938 -0.2080 -0.2243
  184SLPC   O1421100   0.152   0.606  10.662 -0.2324  0.5129 -0.2307
  184SLPC   O1221101  -0.051   0.462  10.721  0.8479 -0.4660 -0.2383
  184SLPC   O1121102  -0.002   0.501  10.489 -0.1911  0.0987  0.2067
  184SLPC    C121103  -0.130   0.452  10.437  0.0477 -0.1425  0.4035
  184SLPC    HA21104  -0.150   0.347  10.466 -2.4359  0.4983  1.3352
  184SLPC    HB21105  -0.214   0.505  10.488 -0.7083 -2.2601  1.4926
  184SLPC    C221106  -0.141   0.488  10.291  0.6510  0.1806 -0.3807
  184SLPC    HS21107  -0.237   0.442  10.262  1.1543 -1.6725  0.7309
  184SLPC   O2121108  -0.033   0.435  10.222 -0.2281  0.0395 -0.3014
  184SLPC   C2121109  -0.053   0.401  10.094  0.1403 -0.2814  0.6512
  184SLPC   O2221110  -0.163   0.401  10.038 -0.1053  0.7455 -0.0597
  184SLPC   C2221111   0.086   0.391  10.030 -0.1856  0.4363 -0.0383
  184SLPC   H2R21112   0.132   0.491  10.039  0.9404  0.0163 -0.9058
  184SLPC   H2S21113   0.153   0.322  10.087  0.9144  1.6136  0.1193
  184SLPC    C321114  -0.139   0.643  10.271 -0.2048  0.4185 -0.1417
  184SLPC    HX21115  -0.033   0.676  10.281 -0.2215  0.7799 -1.0471
  184SLPC    HY21116  -0.200   0.690  10.352  0.1596  0.9209 -0.1484
  184SLPC   O3121117  -0.182   0.679  10.137  0.1871  0.0107  0.0736
  184SLPC   C3121118  -0.310   0.690  10.115 -0.5325 -0.6419 -0.3125
  184SLPC   O3221119  -0.400   0.683  10.198 -0.8254 -0.6069 -0.4620
  184SLPC   C3221120  -0.326   0.726   9.965  0.1865 -0.3613 -0.7447
  184SLPC   H2X21121  -0.288   0.830   9.954 -0.2720 -0.0994  0.0271
  184SLPC   H2Y21122  -0.436   0.737   9.952  0.0804 -0.0840  0.3061
  184SLPC   C2321123   0.075   0.342   9.883  0.1620  0.1163 -0.4243
  184SLPC   H3R21124  -0.002   0.410   9.840 -1.3436 -1.1888  0.0809
  184SLPC   H3S21125   0.032   0.240   9.867  1.0150  0.0828 -2.8107
  184SLPC   C2421126   0.208   0.333   9.814 -0.0127  0.2227  0.5814
  184SLPC   H4R21127   0.281   0.272   9.871 -0.2528 -0.6050  0.0099
  184SLPC   H4S21128   0.258   0.432   9.820  0.5085  0.0009 -0.0441
  184SLPC   C2521129   0.204   0.275   9.667  0.7231 -0.2719 -0.0251
  184SLPC   H5R21130   0.157   0.176   9.680  1.3299 -0.8840 -2.0780
  184SLPC   H5S21131   0.308   0.275   9.626  0.4666  3.2815 -1.0347
  184SLPC   C2621132   0.114   0.354   9.568  0.2451 -0.2883  0.0264
  184SLPC   H6R21133   0.169   0.449   9.551  0.6537 -0.7974 -1.5843
  184SLPC   H6S21134   0.017   0.373   9.619  1.0091  2.1753  0.7162
  184SLPC   C2721135   0.097   0.288   9.435  0.9214 -1.2415  0.0268
  184SLPC   H7R21136   0.016   0.341   9.380 -0.2146 -0.2388  2.4914
  184SLPC   H7S21137   0.075   0.184   9.468 -0.7894 -0.1845  2.5334
  184SLPC   C2821138   0.226   0.287   9.355 -0.2931  0.5526 -0.0619
  184SLPC   H8R21139   0.294   0.219   9.411  2.3412  0.5057 -3.0473
  184SLPC   H8S21140   0.265   0.391   9.351  0.0598  0.5036  1.6151
  184SLPC   C2921141   0.210   0.221   9.220 -0.0525  0.4100 -0.8403
  184SLPC   H9R21142   0.181   0.115   9.224 -4.4268  1.4197  3.1241
  184SLPC  C21021143   0.207   0.288   9.108 -0.6597  0.0950  0.2422
  184SLPC  H10R21144   0.199   0.229   9.016 -0.4278 -2.3956  1.7205
  184SLPC  C21121145   0.241   0.431   9.092 -0.7740  0.0536 -0.1220
  184SLPC  H11R21146   0.350   0.446   9.077 -0.9094 -0.1429 -1.3923
  184SLPC  H11S21147   0.209   0.490   9.181 -0.8158 -0.8312  0.4671
  184SLPC  C21221148   0.164   0.497   8.985  0.9263  0.0662 -0.2291
  184SLPC  H12R21149   0.060   0.502   9.018  1.2448  0.8716  0.6860
  184SLPC  C21321150   0.200   0.548   8.866 -0.2327  0.5067  0.7072
  184SLPC  H13R21151   0.129   0.605   8.804 -0.1338  3.4689  3.1089
  184SLPC  C21421152   0.338   0.551   8.807  0.6122  0.8471 -0.0992
  184SLPC  H14R21153   0.353   0.470   8.732 -1.5714 -0.1291  0.4317
  184SLPC  H14S21154   0.410   0.518   8.885  0.7846 -2.2247 -1.3928
  184SLPC  C21521155   0.376   0.680   8.739 -0.2832 -0.8686  0.0290
  184SLPC  H15R21156   0.311   0.708   8.653  1.7889 -1.7539 -1.9221
  184SLPC  H15S21157   0.478   0.667   8.696 -0.2171  1.1129 -0.5354
  184SLPC  C21621158   0.380   0.796   8.846  0.2273 -0.1894 -0.1478
  184SLPC  H16R21159   0.465   0.777   8.916  0.0862 -0.3548 -0.0227
  184SLPC  H16S21160   0.279   0.803   8.891 -0.0828  2.1567 -1.0328
  184SLPC  C21721161   0.408   0.924   8.772  0.2561  0.0371  0.3784
  184SLPC  H17R21162   0.320   0.943   8.708  0.6116  0.0365 -0.1141
  184SLPC  H17S21163   0.497   0.923   8.706  0.5686  0.6229  0.7827
  184SLPC  C21821164   0.415   1.056   8.857  0.1086  0.0359  0.0493
  184SLPC  H18R21165   0.319   1.082   8.907  1.2897  0.9018  1.9746
  184SLPC  H18S21166   0.430   1.141   8.787  2.2800 -0.4620 -0.1749
  184SLPC  H18T21167   0.499   1.049   8.929 -0.1459 -1.6638  0.2213
  184SLPC   C3321168  -0.268   0.640   9.858  0.2910 -0.1974 -0.4149
  184SLPC   H3X21169  -0.324   0.545   9.860 -0.6334  0.2889 -1.9407
  184SLPC   H3Y21170  -0.160   0.620   9.876  0.3537 -0.6091 -1.1932
  184SLPC   C3421171  -0.271   0.707   9.722  0.2457 -0.2538  0.1589
  184SLPC   H4X21172  -0.232   0.810   9.734 -3.0865  1.2618 -0.6514
  184SLPC   H4Y21173  -0.378   0.721   9.694 -0.0357 -1.2397  0.6766
  184SLPC   C3521174  -0.192   0.626   9.622 -0.2684 -0.1730 -0.3223
  184SLPC   H5X21175  -0.218   0.518   9.619  1.8121 -0.7579  0.8511
  184SLPC   H5Y21176  -0.086   0.620   9.655 -0.1737  0.6759 -0.4348
  184SLPC   C3621177  -0.192   0.683   9.487 -0.0934 -0.1360 -0.0321
  184SLPC   H6X21178  -0.164   0.791   9.482  1.4508 -0.4772  0.6881
  184SLPC   H6Y21179  -0.295   0.683   9.447  0.2014 -0.4219 -0.8139
  184SLPC   C3721180  -0.114   0.599   9.380 -0.1650 -0.3274 -0.1847
  184SLPC   H7X21181  -0.148   0.495   9.403  0.9803 -0.7341 -0.2811
  184SLPC   H7Y21182  -0.008   0.601   9.411 -0.2683  1.8321  0.1170
  184SLPC   C3821183  -0.120   0.642   9.227  0.1674 -0.5213  0.9478
  184SLPC   H8X21184  -0.227   0.656   9.201  0.1656  0.2947  1.3413
  184SLPC   H8Y21185  -0.063   0.577   9.157 -1.1438  0.7616 -1.4334
  184SLPC   C3921186  -0.056   0.791   9.220 -0.0446 -0.8567 -0.4568
  184SLPC   H9X21187   0.055   0.789   9.217 -0.0016  0.7225 -1.4509
  184SLPC   H9Y21188  -0.094   0.859   9.300  0.6568  2.0439 -2.4089
  184SLPC  C31021189  -0.080   0.878   9.093 -0.4437 -1.0513 -0.1470
  184SLPC  H10X21190  -0.026   0.971   9.122  0.7649 -1.7171 -0.2057
  184SLPC  H10Y21191  -0.189   0.886   9.076 -0.3847 -1.4458 -0.7694
  184SLPC  C31121192  -0.018   0.815   8.972 -0.2152 -0.4268  0.3297
  184SLPC  H11X21193  -0.047   0.709   8.957  0.8528 -0.8273  1.0036
  184SLPC  H11Y21194   0.093   0.808   8.983  0.2209  2.4110 -1.1351
  184SLPC  C31221195  -0.036   0.895   8.844 -0.1407 -0.1840 -0.2650
  184SLPC  H12X21196  -0.146   0.906   8.827  0.1528  1.9590 -1.1103
  184SLPC  H12Y21197   0.017   0.844   8.761  1.5929  1.2647 -0.1096
  184SLPC  C31321198   0.008   1.043   8.849  0.5912 -0.6437 -0.2773
  184SLPC  H13X21199   0.116   1.035   8.872  0.4342 -0.5829  0.5214
  184SLPC  H13Y21200  -0.061   1.105   8.910  1.5677  1.5093 -1.2564
  184SLPC  C31421201  -0.006   1.105   8.713  0.0016 -0.2317 -0.0892
  184SLPC  H14X21202   0.056   1.047   8.642 -0.7691 -0.6006 -0.4786
  184SLPC  H14Y21203   0.033   1.209   8.720  0.0804 -0.3595  1.8692
  184SLPC  C31521204  -0.146   1.119   8.661 -0.1384  0.0247 -0.5635
  184SLPC  H15X21205  -0.204   1.172   8.739  0.9196 -1.4234  1.2656
  184SLPC  H15Y21206  -0.206   1.027   8.644 -0.8754  0.3911  0.0030
  184SLPC  C31621207  -0.156   1.216   8.540 -0.2146  0.2435  0.2012
  184SLPC  H16X21208  -0.094   1.171   8.459 -0.1232 -0.5668  0.7089
  184SLPC  H16Y21209  -0.116   1.317   8.562  0.6484 -0.1380  0.4140
  184SLPC  C31721210  -0.301   1.249   8.496 -0.1339  0.3903 -0.7305
  184SLPC  H17X21211  -0.345   1.304   8.582 -0.1182 -1.2032  0.3435
  184SLPC  H17Y21212  -0.363   1.159   8.483  0.6354 -0.4467  1.0422
  184SLPC  C31821213  -0.304   1.341   8.369  0.0955 -0.0605  0.0855
  184SLPC  H18X21214  -0.406   1.384   8.358  0.9557  1.8084 -0.9943
  184SLPC  H18Y21215  -0.262   1.290   8.280 -1.6822  1.9408 -2.0413
  184SLPC  H18Z21216  -0.246   1.435   8.380  1.4238 -0.6464 -1.5161
  185SLPC     N21217   3.471   1.233   6.520 -0.5645 -0.0753  0.0026
  185SLPC   C1321218   3.490   1.325   6.639 -0.0011 -0.2741 -0.6281
  185SLPC  H13A21219   3.422   1.409   6.632  0.3740 -0.1062 -3.9598
  185SLPC  H13B21220   3.470   1.265   6.727  2.2619 -0.2609 -0.0295
  185SLPC  H13C21221   3.589   1.369   6.642  0.3726 -1.0324 -1.5703
  185SLPC   C1421222   3.552   1.112   6.558  0.0743 -0.2881 -0.3051
  185SLPC  H14A21223   3.659   1.124   6.568  0.1504 -2.1345  2.5612
  185SLPC  H14B21224   3.527   1.081   6.659  0.6943 -1.0248 -0.3626
  185SLPC  H14C21225   3.533   1.033   6.486  0.1905 -0.4352 -0.1765
  185SLPC   C1521226   3.529   1.286   6.396  0.0323  0.8488 -0.2483
  185SLPC  H15A21227   3.475   1.372   6.359  0.3998  1.5077  0.6994
  185SLPC  H15B21228   3.626   1.332   6.406  0.1685  1.0096 -2.0647
  185SLPC  H15C21229   3.531   1.215   6.315  0.3870  1.1029 -0.4648
  185SLPC   C1221230   3.321   1.191   6.504  0.4523 -0.6799 -0.2552
  185SLPC  H12A21231   3.274   1.275   6.454 -1.7223 -1.0976  0.9222
  185SLPC  H12B21232   3.273   1.196   6.601 -0.5919  0.3534 -0.7954
  185SLPC   C1121233   3.281   1.061   6.439  0.4048 -0.0107 -0.0523
  185SLPC  H11A21234   3.291   1.075   6.329  0.6420  0.3716  0.0162
  185SLPC  H11B21235   3.177   1.039   6.470  0.7547 -2.4679 -0.4616
  185SLPC     P21236   3.284   0.805   6.500  0.3258 -0.3144  0.0904
  185SLPC   O1321237   3.221   0.768   6.373 -0.0178 -0.0622 -0.6331
  185SLPC   O1421238   3.389   0.719   6.550 -0.5985  0.1787 -0.5507
  185SLPC   O1221239   3.353   0.953   6.496 -0.6566  0.2402  0.1634
  185SLPC   O1121240   3.177   0.824   6.618  0.4739  0.0013  0.1824
  185SLPC    C121241   3.190   0.912   6.733  0.3668  0.0774 -0.1371
  185SLPC    HA21242   3.241   1.007   6.705  3.3375 -1.0827  0.9280
  185SLPC    HB21243   3.086   0.932   6.767 -1.1186 -2.9289 -2.4822
  185SLPC    C221244   3.285   0.849   6.839 -0.0922 -0.7835  0.5320
  185SLPC    HS21245   3.383   0.844   6.786  0.4155  1.6211  1.1315
  185SLPC   O2121246   3.238   0.720   6.883 -0.0457  0.3541  0.5224
  185SLPC   C2121247   3.333   0.627   6.904  0.0538 -0.7143 -0.3448
  185SLPC   O2221248   3.453   0.656   6.906  0.0078 -0.2725  0.0573
  185SLPC   C2221249   3.267   0.488   6.921 -0.0892 -0.5384  0.7150
  185SLPC   H2R21250   3.157   0.492   6.935 -0.6122 -0.5689 -2.5339
  185SLPC   H2S21251   3.265   0.434   6.824 -0.9829  1.8730 -0.6933
  185SLPC    C321252   3.307   0.949   6.952  0.1110 -0.4970  1.0327
  185SLPC    HX21253   3.210   0.966   7.003  0.3692 -0.5595  1.5547
  185SLPC    HY21254   3.345   1.046   6.913  1.1451 -0.7675  1.3416
  185SLPC   O3121255   3.397   0.911   7.055 -0.4495 -0.3288  0.2080
  185SLPC   C3121256   3.524   0.924   7.032 -0.1330  0.9905  0.2569
  185SLPC   O3221257   3.580   0.967   6.930  0.6714  0.2207 -0.2865
  185SLPC   C3221258   3.589   0.882   7.162  0.5750  0.3748 -0.1994
  185SLPC   H2X21259   3.574   0.772   7.161 -0.2854  0.4865 -0.4587
  185SLPC   H2Y21260   3.535   0.933   7.244  1.3133 -0.3912  0.7888
  185SLPC   C2321261   3.345   0.406   7.018 -0.0656  0.0901  0.0208
  185SLPC   H3R21262   3.450   0.414   6.984 -0.2188 -2.0153 -1.0897
  185SLPC   H3S21263   3.306   0.303   7.000 -1.1628  0.5189 -0.1364
  185SLPC   C2421264   3.325   0.436   7.162  0.0842  0.2347  0.0419
  185SLPC   H4R21265   3.383   0.361   7.221 -0.2447  0.6921  0.9622
  185SLPC   H4S21266   3.215   0.433   7.178  0.3112 -2.2966  1.6001
  185SLPC   C2521267   3.378   0.566   7.235 -0.8876  0.7222  0.1991
  185SLPC   H5R21268   3.309   0.645   7.198 -0.4921  0.2351 -1.6776
  185SLPC   H5S21269   3.477   0.594   7.196 -0.9874 -1.5136 -1.9068
  185SLPC   C2621270   3.368   0.566   7.393 -0.6286 -0.2513 -0.0305
  185SLPC   H6R21271   3.400   0.668   7.422 -0.2753  0.6984 -3.3124
  185SLPC   H6S21272   3.441   0.492   7.430 -1.3098 -1.1125 -0.3661
  185SLPC   C2721273   3.233   0.538   7.456  0.4900 -0.2557  0.1913
  185SLPC   H7R21274   3.190   0.442   7.419 -0.7417  0.3089  0.0958
  185SLPC   H7S21275   3.157   0.617   7.438  0.2807 -0.3836  0.5029
  185SLPC   C2821276   3.247   0.517   7.607 -0.7346  0.0748  0.1480
  185SLPC   H8R21277   3.324   0.437   7.618  1.6473  2.0717 -1.1289
  185SLPC   H8S21278   3.154   0.475   7.650 -1.3523 -1.5815 -2.5622
  185SLPC   C2921279   3.296   0.636   7.691  0.1673 -0.1713  0.1872
  185SLPC   H9R21280   3.252   0.733   7.664 -0.6036 -1.0099 -1.7318
  185SLPC  C21021281   3.387   0.635   7.796 -0.2309  0.1856  0.3931
  185SLPC  H10R21282   3.413   0.727   7.849  0.0052  0.6135 -0.4466
  185SLPC  C21121283   3.474   0.519   7.847  0.8316 -0.0772  0.2435
  185SLPC  H11R21284   3.569   0.574   7.865 -0.0942  1.2043  1.4546
  185SLPC  H11S21285   3.484   0.442   7.767  3.3546  2.4023 -2.1070
  185SLPC  C21221286   3.411   0.456   7.974  0.0054 -0.1016 -0.2016
  185SLPC  H12R21287   3.326   0.387   7.964 -0.1450 -0.5655  3.1143
  185SLPC  C21321288   3.454   0.465   8.105 -0.2224 -0.5071  0.6477
  185SLPC  H13R21289   3.401   0.415   8.187 -1.8885  1.5419  0.9249
  185SLPC  C21421290   3.585   0.530   8.151 -0.1765  0.2449 -0.1943
  185SLPC  H14R21291   3.570   0.629   8.199  0.5234  0.9522 -1.3856
  185SLPC  H14S21292   3.648   0.544   8.061  0.6647  2.2660  0.6280
  185SLPC  C21521293   3.671   0.439   8.247 -0.3387  0.2876  0.4186
  185SLPC  H15R21294   3.761   0.496   8.277 -1.4518  0.4396  3.8286
  185SLPC  H15S21295   3.706   0.351   8.189 -1.0575 -0.3495  0.9350
  185SLPC  C21621296   3.606   0.405   8.379  1.0683 -0.0644 -1.0424
  185SLPC  H16R21297   3.513   0.346   8.365  1.0949 -0.1618 -0.8034
  185SLPC  H16S21298   3.598   0.494   8.445  0.7419 -1.5197  0.9560
  185SLPC  C21721299   3.696   0.304   8.462  0.1931 -0.8785  0.3129
  185SLPC  H17R21300   3.798   0.347   8.473 -0.1486 -0.4824  2.2615
  185SLPC  H17S21301   3.726   0.212   8.408  3.5492  0.9028 -1.1621
  185SLPC  C21821302   3.653   0.277   8.610 -1.5370 -0.2334 -0.0658
  185SLPC  H18R21303   3.563   0.212   8.616  0.2156 -2.8887 -0.2626
  185SLPC  H18S21304   3.648   0.373   8.665 -0.4712 -0.5462  0.6152
  185SLPC  H18T21305   3.732   0.214   8.657  1.1478  1.9731 -1.3458
  185SLPC   C3321306   3.742   0.921   7.172  0.1181  0.5706  0.3149
  185SLPC   H3X21307   3.748   1.008   7.241 -1.2139 -1.0827  2.6571
  185SLPC   H3Y21308   3.781   0.949   7.072  3.1108 -0.0147  1.2011
  185SLPC   C3421309   3.817   0.804   7.233  0.3765 -0.7922  0.1214
  185SLPC   H4X21310   3.922   0.831   7.258  1.2352 -2.1815 -1.7912
  185SLPC   H4Y21311   3.818   0.724   7.157  0.0789  0.5598 -1.3419
  185SLPC   C3521312   3.764   0.744   7.370  0.0257  0.2312  0.3179
  185SLPC   H5X21313   3.848   0.673   7.389  0.9079  1.7142  2.3017
  185SLPC   H5Y21314   3.666   0.694   7.354  1.0139 -1.3449 -1.2902
  185SLPC   C3621315   3.755   0.842   7.487  0.4064 -0.8173  0.7205
  185SLPC   H6X21316   3.670   0.913   7.475 -0.2753 -1.7189  0.0207
  185SLPC   H6Y21317   3.848   0.903   7.482  1.1860 -2.0389 -0.7781
  185SLPC   C3721318   3.743   0.772   7.621  0.1217 -0.8133 -0.2063
  185SLPC   H7X21319   3.840   0.718   7.634  0.0159 -1.2438 -1.1581
  185SLPC   H7Y21320   3.653   0.710   7.637  0.3204 -1.5650 -1.8513
  185SLPC   C3821321   3.727   0.888   7.718 -0.8278 -0.5433  0.2622
  185SLPC   H8X21322   3.624   0.926   7.705 -0.8761 -1.5871 -3.3298
  185SLPC   H8Y21323   3.807   0.962   7.694 -1.1060 -0.0871  0.7200
  185SLPC   C3921324   3.742   0.839   7.863  0.5578 -0.3749 -0.9044
  185SLPC   H9X21325   3.828   0.768   7.865  1.0707  0.2448 -0.1525
  185SLPC   H9Y21326   3.647   0.788   7.889  1.8083 -1.4577  1.9849
  185SLPC  C31021327   3.778   0.945   7.973 -0.0150 -0.0060 -0.4446
  185SLPC  H10X21328   3.703   1.025   7.953  0.5253 -0.0815 -3.2559
  185SLPC  H10Y21329   3.877   0.989   7.949 -1.5050  4.4177  0.5731
  185SLPC  C31121330   3.778   0.900   8.119  0.2054  0.5981  0.0500
  185SLPC  H11X21331   3.685   0.842   8.139  0.0438  0.6272 -0.5734
  185SLPC  H11Y21332   3.789   0.989   8.185  0.9853  1.1329 -0.7743
  185SLPC  C31221333   3.895   0.802   8.163  0.2532 -0.4607 -0.5936
  185SLPC  H12X21334   3.980   0.870   8.140  0.7854 -0.8994  0.0471
  185SLPC  H12Y21335   3.885   0.709   8.102 -1.9587 -0.7073  0.0557
  185SLPC  C31321336   3.892   0.777   8.305  0.8159  0.6825 -0.2097
  185SLPC  H13X21337   3.795   0.731   8.332  1.4174 -2.0394 -2.1787
  185SLPC  H13Y21338   3.900   0.874   8.357 -1.6292  0.1908  1.2196
  185SLPC  C31421339   4.009   0.681   8.346 -0.2130  0.0418  0.1651
  185SLPC  H14X21340   4.101   0.735   8.314 -0.2492 -0.4814 -0.8508
  185SLPC  H14Y21341   4.001   0.585   8.291 -0.7582 -0.8861  1.7969
  185SLPC  C31521342   4.014   0.653   8.501  0.1408  0.0832  0.5513
  185SLPC  H15X21343   3.913   0.610   8.520 -1.3929  1.7573 -2.8741
  185SLPC  H15Y21344   4.029   0.756   8.541  2.2601 -0.4252  1.1862
  185SLPC  C31621345   4.130   0.560   8.522 -0.7541 -0.0877  0.2879
  185SLPC  H16X21346   4.231   0.608   8.519  0.1022 -1.7202  1.2813
  185SLPC  H16Y21347   4.126   0.483   8.442  1.0093  0.9977 -0.9276
  185SLPC  C31721348   4.126   0.487   8.653 -0.3213  0.0618  0.0265
  185SLPC  H17X21349   4.031   0.430   8.657 -0.6611  0.3107 -2.7832
  185SLPC  H17Y21350   4.114   0.564   8.732 -1.9860  0.8186 -0.9079
  185SLPC  C31821351   4.242   0.402   8.687  0.1396 -0.8571  0.2585
  185SLPC  H18X21352   4.255   0.311   8.625  3.1806  0.1400 -0.7534
  185SLPC  H18Y21353   4.222   0.348   8.782  2.0701  0.0258  1.2317
  185SLPC  H18Z21354   4.342   0.452   8.685 -0.4431  0.4244  1.3348
  186SLPC     N21355   4.778   4.258   6.237 -0.3139  0.3696 -0.1023
  186SLPC   C1321356   4.823   4.304   6.379 -0.0758  0.3031  0.4703
  186SLPC  H13A21357   4.930   4.294   6.395 -0.0781  0.1072  0.3541
  186SLPC  H13B21358   4.794   4.407   6.392  2.5587  1.4466 -1.5328
  186SLPC  H13C21359   4.769   4.241   6.448 -0.3372  1.3886  1.2900
  186SLPC   C1421360   4.825   4.120   6.216  0.1729 -0.0368 -0.7805
  186SLPC  H14A21361   4.795   4.075   6.123  0.1783  0.3839 -0.9903
  186SLPC  H14B21362   4.931   4.099   6.222 -0.5431 -3.9098  1.6729
  186SLPC  H14C21363   4.790   4.056   6.296  2.6645  0.4852  0.8689
  186SLPC   C1521364   4.844   4.342   6.130 -0.0505  0.2904  0.5124
  186SLPC  H15A21365   4.802   4.306   6.036  1.9279 -0.3196 -0.1901
  186SLPC  H15B21366   4.819   4.445   6.150 -0.3929  0.4735 -0.7633
  186SLPC  H15C21367   4.951   4.331   6.128 -0.0262 -0.0991  2.4825
  186SLPC   C1221368   4.628   4.278   6.227 -0.1503  0.5260  0.3711
  186SLPC  H12A21369   4.603   4.232   6.133  0.4894 -4.4881  2.3421
  186SLPC  H12B21370   4.610   4.384   6.231 -3.2491  0.1165  0.5787
  186SLPC   C1121371   4.534   4.210   6.329  0.1842  0.4841  0.4479
  186SLPC  H11A21372   4.438   4.263   6.312  0.8782  1.2895 -1.2400
  186SLPC  H11B21373   4.545   4.241   6.435 -1.6129  0.6656  0.6215
  186SLPC     P21374   4.384   4.005   6.299  0.0507  0.2064  0.4013
  186SLPC   O1321375   4.319   4.054   6.177  0.3798 -0.0497 -0.4244
  186SLPC   O1421376   4.405   3.862   6.319 -0.0136 -0.8126 -0.5300
  186SLPC   O1221377   4.528   4.065   6.328  0.4001 -0.1516  0.2269
  186SLPC   O1121378   4.303   4.054   6.428  0.0358 -0.3676 -0.2649
  186SLPC    C121379   4.348   4.025   6.563  0.8327  1.1641 -0.4327
  186SLPC    HA21380   4.451   3.984   6.558  0.4349  0.1074 -0.3225
  186SLPC    HB21381   4.354   4.121   6.618 -2.3246 -0.4486  3.2294
  186SLPC    C221382   4.242   3.940   6.643 -0.0612 -0.4613  0.5378
  186SLPC    HS21383   4.223   3.848   6.584  2.1957 -0.3831 -0.3910
  186SLPC   O2121384   4.128   4.023   6.641  0.5207 -0.2549 -0.0819
  186SLPC   C2121385   4.012   3.963   6.671 -0.3587  0.1586 -0.7947
  186SLPC   O2221386   4.002   3.840   6.683  0.4663  0.2696 -0.6560
  186SLPC   C2221387   3.897   4.058   6.698  0.0003  0.4203 -0.4761
  186SLPC   H2R21388   3.843   4.082   6.603 -2.2381 -1.5801  0.1998
  186SLPC   H2S21389   3.822   4.005   6.760  1.2242 -0.4153  0.3241
  186SLPC    C321390   4.293   3.909   6.784  0.7488 -0.1961  0.3519
  186SLPC    HX21391   4.215   3.845   6.831  0.4386 -2.3877 -2.8090
  186SLPC    HY21392   4.294   4.001   6.845 -0.4575  0.5918 -0.7522
  186SLPC   O3121393   4.414   3.832   6.778 -0.5144 -0.0408 -0.0145
  186SLPC   C3121394   4.402   3.703   6.798  0.2007 -0.5052  0.0492
  186SLPC   O3221395   4.294   3.646   6.815 -1.0395  0.4004 -0.0342
  186SLPC   C3221396   4.533   3.642   6.801 -0.1468  0.4546 -0.3005
  186SLPC   H2X21397   4.610   3.708   6.756 -0.5411  1.4768  0.4658
  186SLPC   H2Y21398   4.536   3.550   6.740  2.9284 -0.7964  1.4809
  186SLPC   C2321399   3.923   4.195   6.765 -0.3788  0.6937 -0.7779
  186SLPC   H3R21400   3.817   4.224   6.781 -0.8072 -0.5044 -1.3752
  186SLPC   H3S21401   3.948   4.280   6.698 -0.8875  2.4971  1.2064
  186SLPC   C2421402   4.007   4.202   6.896  0.8779 -0.0031  0.3512
  186SLPC   H4R21403   3.991   4.301   6.944 -1.1927 -0.2363  0.2341
  186SLPC   H4S21404   4.112   4.194   6.861  0.8258  2.4832 -0.5690
  186SLPC   C2521405   3.972   4.077   6.986 -0.3305 -0.3238 -0.6872
  186SLPC   H5R21406   4.019   3.983   6.951 -2.0686 -1.6247  0.3641
  186SLPC   H5S21407   3.864   4.052   6.992 -0.2898 -0.0583  3.7438
  186SLPC   C2621408   4.009   4.099   7.125 -0.3524  0.5696 -0.1496
  186SLPC   H6R21409   3.977   4.008   7.179 -0.1032  0.2881 -0.4749
  186SLPC   H6S21410   3.954   4.183   7.174 -0.5418 -0.3399  1.2507
  186SLPC   C2721411   4.161   4.111   7.134 -0.9173 -0.1962 -0.0924
  186SLPC   H7R21412   4.185   4.219   7.125  1.7078 -0.5470  1.6946
  186SLPC   H7S21413   4.203   4.071   7.040 -0.1202  0.6790 -0.1200
  186SLPC   C2821414   4.226   4.054   7.257 -0.0793 -0.4753 -0.3046
  186SLPC   H8R21415   4.200   3.946   7.263 -3.0485  0.2069  0.7446
  186SLPC   H8S21416   4.174   4.104   7.342 -1.2261 -0.2945 -1.0810
  186SLPC   C2921417   4.376   4.071   7.240  1.3789  0.4842  0.2185
  186SLPC   H9R21418   4.413   4.090   7.138  2.9184 -0.0922  0.6494
  186SLPC  C21021419   4.463   4.099   7.339  0.7705 -0.7172 -0.5353
  186SLPC  H10R21420   4.566   4.127   7.312  0.2308  2.1465  0.0673
  186SLPC  C21121421   4.416   4.109   7.487  0.0926 -0.4820  0.6877
  186SLPC  H11R21422   4.438   4.010   7.533  1.5782 -0.1041  0.8375
  186SLPC  H11S21423   4.312   4.147   7.495  0.3025  0.5212 -0.9623
  186SLPC  C21221424   4.495   4.211   7.565  0.0507 -0.1682  0.4987
  186SLPC  H12R21425   4.590   4.249   7.524 -1.5153  2.5741 -0.8426
  186SLPC  C21321426   4.467   4.251   7.690  0.3488  0.4992 -0.2472
  186SLPC  H13R21427   4.531   4.323   7.743  1.0228 -0.7546  0.6922
  186SLPC  C21421428   4.345   4.194   7.766  0.1051 -0.7638  0.4862
  186SLPC  H14R21429   4.272   4.147   7.697 -0.4964 -1.5594  1.6289
  186SLPC  H14S21430   4.306   4.280   7.824 -2.7089  0.1203 -2.4288
  186SLPC  C21521431   4.390   4.098   7.875  0.1671  0.1436 -0.4796
  186SLPC  H15R21432   4.428   4.009   7.821  0.0080  0.4003 -1.0221
  186SLPC  H15S21433   4.309   4.063   7.942  1.3144  1.1086  1.4900
  186SLPC  C21621434   4.507   4.139   7.963 -0.8318  0.5599 -0.2359
  186SLPC  H16R21435   4.499   4.246   7.991  0.1210  0.4305  0.5794
  186SLPC  H16S21436   4.609   4.122   7.923  0.0552  0.9814  1.7306
  186SLPC  C21721437   4.484   4.076   8.108  0.5629  0.2893  0.1271
  186SLPC  H17R21438   4.529   3.974   8.112  0.1949  0.1368  0.3887
  186SLPC  H17S21439   4.376   4.066   8.132  0.4235  1.0287 -0.1883
  186SLPC  C21821440   4.558   4.158   8.220  0.9754  0.2916 -0.1207
  186SLPC  H18R21441   4.666   4.137   8.211  0.6941 -0.6838 -1.8021
  186SLPC  H18S21442   4.524   4.127   8.321  1.2415  1.3531  0.3017
  186SLPC  H18T21443   4.525   4.264   8.211 -1.0269 -0.0094  2.6161
  186SLPC   C3321444   4.561   3.605   6.941  0.4248  0.2448  0.5735
  186SLPC   H3X21445   4.664   3.568   6.922  0.2217 -0.0344  0.0030
  186SLPC   H3Y21446   4.501   3.524   6.987 -1.5614  2.4875  2.1896
  186SLPC   C3421447   4.574   3.721   7.045  0.1541  0.2777 -0.0934
  186SLPC   H4X21448   4.473   3.753   7.079  1.0926  0.4762  2.7377
  186SLPC   H4Y21449   4.624   3.811   7.004  1.1869  0.2506  1.0505
  186SLPC   C3521450   4.657   3.680   7.161 -0.5210  0.4679  0.1230
  186SLPC   H5X21451   4.758   3.674   7.118 -0.9929  1.1504 -1.1184
  186SLPC   H5Y21452   4.631   3.578   7.197 -2.9739  1.1199  0.4213
  186SLPC   C3621453   4.665   3.792   7.270  0.1081 -0.1345  0.4708
  186SLPC   H6X21454   4.564   3.804   7.315  0.1173 -1.6875  0.9682
  186SLPC   H6Y21455   4.702   3.886   7.224 -0.0770 -1.0793 -1.7793
  186SLPC   C3721456   4.760   3.755   7.387 -0.0014  0.2302  0.2963
  186SLPC   H7X21457   4.863   3.740   7.349 -1.2621 -2.4692 -2.4655
  186SLPC   H7Y21458   4.739   3.657   7.434  0.1985  0.3995  0.7438
  186SLPC   C3821459   4.773   3.873   7.483 -0.9681 -0.4859  0.1468
  186SLPC   H8X21460   4.669   3.910   7.499 -0.9027 -0.7160  1.1892
  186SLPC   H8Y21461   4.840   3.954   7.450 -1.1573  0.6897  2.4495
  186SLPC   C3921462   4.842   3.828   7.612  0.2083  0.7992 -0.4618
  186SLPC   H9X21463   4.942   3.785   7.589  0.4959  1.7082 -0.9333
  186SLPC   H9Y21464   4.783   3.749   7.663  0.3750 -0.5213 -2.2261
  186SLPC  C31021465   4.877   3.937   7.717  0.5055  0.5397  0.6377
  186SLPC  H10X21466   4.778   3.974   7.749  0.1105  2.6893 -2.5741
  186SLPC  H10Y21467   4.936   4.013   7.662  1.1812 -0.5900 -0.2504
  186SLPC  C31121468   4.960   3.873   7.828  0.5307  0.1362  0.3127
  186SLPC  H11X21469   5.047   3.817   7.786  0.7913 -1.6962  3.0270
  186SLPC  H11Y21470   4.898   3.810   7.895 -0.4592  2.3510  1.5723
  186SLPC  C31221471   5.039   3.973   7.907  0.0993 -0.3436 -0.1499
  186SLPC  H12X21472   4.968   4.031   7.969  0.1185 -0.1818 -0.2795
  186SLPC  H12Y21473   5.104   4.038   7.844  0.2925 -1.1617 -0.8235
  186SLPC  C31321474   5.135   3.903   8.005  0.0718 -0.3767 -0.1497
  186SLPC  H13X21475   5.237   3.884   7.966  0.4889  0.4107  0.5024
  186SLPC  H13Y21476   5.084   3.811   8.040  1.1621 -0.7053  0.6347
  186SLPC  C31421477   5.173   3.991   8.134 -0.1558  0.9149  0.1920
  186SLPC  H14X21478   5.199   4.095   8.102 -2.2710  1.1629 -0.8894
  186SLPC  H14Y21479   5.264   3.942   8.174 -0.4977  1.6491  1.9802
  186SLPC  C31521480   5.060   3.973   8.233 -0.0041 -0.0452  0.8144
  186SLPC  H15X21481   5.061   3.870   8.272 -0.0979  0.0456  1.0593
  186SLPC  H15Y21482   4.968   4.005   8.177 -0.2314 -2.2755 -0.1767
  186SLPC  C31621483   5.075   4.064   8.354  0.1478  1.0066 -0.5057
  186SLPC  H16X21484   5.096   4.167   8.317 -0.8679  1.4771  0.1961
  186SLPC  H16Y21485   5.169   4.034   8.405 -1.3766 -0.6861  1.4413
  186SLPC  C31721486   4.961   4.062   8.457 -0.7633 -0.3790  0.0234
  186SLPC  H17X21487   4.875   4.024   8.398 -1.1953 -2.2245  1.7256
  186SLPC  H17Y21488   4.953   4.165   8.499  4.4310 -0.5254  2.1387
  186SLPC  C31821489   4.969   3.959   8.570  0.5399  0.9665 -0.1661
  186SLPC  H18X21490   4.991   3.860   8.524  0.2855  0.9931 -0.3431
  186SLPC  H18Y21491   4.871   3.948   8.622  1.6269 -2.5823  1.5116
  186SLPC  H18Z21492   5.043   3.983   8.650  1.3953  1.0970 -0.9711
  187SLPC     N21493   5.586   1.052   6.459  0.6267  0.4488 -0.1611
  187SLPC   C1321494   5.683   0.962   6.395 -0.0592 -0.2363  0.5008
  187SLPC  H13A21495   5.628   0.883   6.346  0.4390 -2.1581  2.8400
  187SLPC  H13B21496   5.744   1.013   6.321  0.8849 -0.2802  1.2256
  187SLPC  H13C21497   5.739   0.916   6.475 -0.6150  0.9983  1.6400
  187SLPC   C1421498   5.492   0.973   6.542  0.6132 -0.1398 -0.3096
  187SLPC  H14A21499   5.558   0.945   6.623  2.1120 -0.6355 -1.6433
  187SLPC  H14B21500   5.404   1.029   6.570  0.8736 -0.0974  0.4741
  187SLPC  H14C21501   5.465   0.881   6.494 -0.8913  0.0207  0.1736
  187SLPC   C1521502   5.507   1.118   6.349 -0.1676  0.0625  0.1641
  187SLPC  H15A21503   5.419   1.161   6.395 -0.3025  0.3804 -0.3754
  187SLPC  H15B21504   5.576   1.185   6.300 -0.0636  1.4153  2.0317
  187SLPC  H15C21505   5.464   1.039   6.289  0.1314 -0.5253  0.7182
  187SLPC   C1221506   5.651   1.158   6.542  0.0728  0.5468  0.3275
  187SLPC  H12A21507   5.573   1.226   6.574  0.0711  0.7308 -0.0600
  187SLPC  H12B21508   5.707   1.224   6.478  0.6275  0.5316  0.7931
  187SLPC   C1121509   5.759   1.111   6.649 -0.0916 -0.4893 -0.0305
  187SLPC  H11A21510   5.732   1.044   6.733  0.7828 -0.7331  0.0681
  187SLPC  H11B21511   5.790   1.205   6.699 -1.8646  1.5700 -2.5397
  187SLPC     P21512   5.965   1.133   6.489 -0.9202 -0.3859  0.4846
  187SLPC   O1321513   6.046   1.034   6.418  0.2876  0.4370  0.4730
  187SLPC   O1421514   5.897   1.236   6.406  0.4224 -0.6134  0.2337
  187SLPC   O1221515   5.880   1.059   6.594 -0.0505  0.2056 -0.3287
  187SLPC   O1121516   6.066   1.209   6.590  0.1553  0.3663  0.4125
  187SLPC    C121517   6.171   1.148   6.663  0.0906  0.1745 -0.5052
  187SLPC    HA21518   6.246   1.118   6.587 -1.2510 -1.3405 -1.2961
  187SLPC    HB21519   6.222   1.230   6.718 -3.8455  1.1491  2.1154
  187SLPC    C221520   6.129   1.034   6.757  0.4193  0.3180  0.0087
  187SLPC    HS21521   6.071   0.967   6.689 -2.0009  1.4119  0.9060
  187SLPC   O2121522   6.053   1.084   6.860 -0.1710 -0.0642 -0.2428
  187SLPC   C2121523   5.971   0.991   6.914 -0.6772 -0.7332  0.0234
  187SLPC   O2221524   5.972   0.874   6.889  0.4736  0.2874  0.2977
  187SLPC   C2221525   5.868   1.063   7.001 -0.0119 -0.0591 -0.3567
  187SLPC   H2R21526   5.876   1.174   7.000  0.9992 -0.1223 -0.3649
  187SLPC   H2S21527   5.765   1.041   6.967 -0.3502  0.7284  0.1370
  187SLPC    C321528   6.257   0.949   6.800  0.2202 -0.8262 -0.4143
  187SLPC    HX21529   6.319   0.918   6.713  0.0560 -1.3310 -0.3547
  187SLPC    HY21530   6.225   0.856   6.851 -0.7776  0.9554  2.4346
  187SLPC   O3121531   6.353   1.024   6.887  0.2657  0.1293  0.3066
  187SLPC   C3121532   6.322   1.036   7.011 -0.1460 -0.9813 -0.0898
  187SLPC   O3221533   6.220   0.986   7.062  0.1750 -0.3181 -1.0612
  187SLPC   C3221534   6.432   1.119   7.080 -0.4387  0.6449  0.3696
  187SLPC   H2X21535   6.504   1.165   7.010  0.2622 -0.4048  0.3709
  187SLPC   H2Y21536   6.500   1.050   7.135 -0.6968  0.4687  0.4713
  187SLPC   C2321537   5.890   1.021   7.148  0.2946 -0.6990 -0.3942
  187SLPC   H3R21538   5.942   0.923   7.157  0.0980 -0.7319  0.4399
  187SLPC   H3S21539   5.790   0.993   7.187 -0.1209  0.1533 -0.8068
  187SLPC   C2421540   5.954   1.126   7.244 -0.2712  0.1195  0.3209
  187SLPC   H4R21541   5.894   1.219   7.251  0.3470  0.4955  0.7819
  187SLPC   H4S21542   6.051   1.155   7.200 -0.4413  1.1888  0.6221
  187SLPC   C2521543   5.963   1.079   7.392 -0.3320  0.1424  0.0900
  187SLPC   H5R21544   5.863   1.092   7.438 -0.7707  0.5706 -0.9688
  187SLPC   H5S21545   6.039   1.147   7.435  1.4791  1.9246 -5.2199
  187SLPC   C2621546   6.008   0.934   7.426 -0.4519  0.2857  0.2614
  187SLPC   H6R21547   6.113   0.930   7.390 -0.3355 -2.3029  0.7217
  187SLPC   H6S21548   5.934   0.869   7.375 -2.7473  2.2052  0.9340
  187SLPC   C2721549   6.005   0.900   7.579 -0.1777  0.4745 -0.3916
  187SLPC   H7R21550   5.897   0.904   7.604 -0.1566  0.4803 -0.2975
  187SLPC   H7S21551   6.055   0.988   7.627 -0.2193 -0.1337  0.8151
  187SLPC   C2821552   6.064   0.766   7.615 -0.2326  0.0601  0.1833
  187SLPC   H8R21553   6.107   0.775   7.717 -1.4732  0.3728  0.6885
  187SLPC   H8S21554   6.151   0.730   7.556 -0.1280 -2.6997  1.8313
  187SLPC   C2921555   5.968   0.661   7.593 -0.4395  0.8045  0.2792
  187SLPC   H9R21556   5.912   0.662   7.498  0.4969  2.0032 -0.2863
  187SLPC  C21021557   5.948   0.554   7.670  0.1975  0.1816  0.3541
  187SLPC  H10R21558   5.866   0.491   7.633  1.3265 -0.4488 -1.2030
  187SLPC  C21121559   6.019   0.526   7.804  0.3103  0.2678  0.1832
  187SLPC  H11R21560   6.021   0.615   7.872 -2.3318 -1.1899  2.3832
  187SLPC  H11S21561   6.121   0.487   7.784  0.3876  0.5838 -0.0595
  187SLPC  C21221562   5.946   0.422   7.888 -0.4447 -0.2256  0.0560
  187SLPC  H12R21563   5.970   0.318   7.860 -1.2074  0.3829 -3.2599
  187SLPC  C21321564   5.859   0.440   7.988 -0.0195 -0.8340  0.6565
  187SLPC  H13R21565   5.834   0.363   8.063 -0.9876  0.0538  1.2809
  187SLPC  C21421566   5.827   0.580   8.031  0.2429 -1.0478 -0.5875
  187SLPC  H14R21567   5.737   0.622   7.979 -1.9634 -2.1958  2.0745
  187SLPC  H14S21568   5.910   0.654   8.030 -0.8253  0.1823 -1.0600
  187SLPC  C21521569   5.777   0.585   8.176  0.0633 -0.3679  0.3723
  187SLPC  H15R21570   5.746   0.690   8.191 -2.0752 -0.6563 -1.5097
  187SLPC  H15S21571   5.853   0.563   8.254 -0.1648 -1.9183  0.2029
  187SLPC  C21621572   5.650   0.501   8.199 -0.0259  0.1957  0.5848
  187SLPC  H16R21573   5.668   0.391   8.195 -0.7662  0.0970 -0.1843
  187SLPC  H16S21574   5.582   0.523   8.114 -0.7788 -0.7531  0.9241
  187SLPC  C21721575   5.585   0.522   8.337 -0.1751 -0.3356 -0.4479
  187SLPC  H17R21576   5.551   0.626   8.353  0.3915  0.0613 -1.7002
  187SLPC  H17S21577   5.658   0.489   8.414  0.8862  1.2348 -0.7492
  187SLPC  C21821578   5.458   0.435   8.357 -0.5099 -0.2899  0.4877
  187SLPC  H18R21579   5.379   0.463   8.283 -0.3500 -2.8731 -0.7799
  187SLPC  H18S21580   5.415   0.441   8.459 -0.4880  0.8617  0.4397
  187SLPC  H18T21581   5.494   0.332   8.340  4.0380  1.2010 -0.3846
  187SLPC   C3321582   6.376   1.220   7.183  0.5306 -0.5765 -0.0685
  187SLPC   H3X21583   6.296   1.164   7.237  0.7801 -1.0309 -0.1623
  187SLPC   H3Y21584   6.342   1.314   7.136  2.4343 -0.0525 -0.4663
  187SLPC   C3421585   6.472   1.263   7.285  0.0172  0.2279  0.5185
  187SLPC   H4X21586   6.528   1.340   7.228 -1.6716  0.0386 -1.5040
  187SLPC   H4Y21587   6.537   1.180   7.319  0.5242  0.6417  0.5768
  187SLPC   C3521588   6.413   1.320   7.414 -0.1039 -1.3995  0.1670
  187SLPC   H5X21589   6.319   1.375   7.395  1.9442  1.7078 -1.8531
  187SLPC   H5Y21590   6.495   1.383   7.454  0.7480 -3.0064  1.0704
  187SLPC   C3621591   6.387   1.208   7.519 -0.3319  0.2310  0.5849
  187SLPC   H6X21592   6.481   1.151   7.535 -1.4244 -1.7525  0.2322
  187SLPC   H6Y21593   6.313   1.130   7.490  0.2588 -0.3486  0.6028
  187SLPC   C3721594   6.342   1.255   7.662 -0.1733 -0.4419  0.4569
  187SLPC   H7X21595   6.425   1.315   7.704 -1.3626  1.9296 -0.4339
  187SLPC   H7Y21596   6.251   1.317   7.648  0.0903 -0.1118  0.2064
  187SLPC   C3821597   6.313   1.133   7.753 -0.6256 -0.5169 -0.0122
  187SLPC   H8X21598   6.412   1.091   7.780 -0.3394  1.2362  1.9284
  187SLPC   H8Y21599   6.247   1.057   7.705 -0.1898 -0.7262 -0.2791
  187SLPC   C3921600   6.256   1.176   7.892 -0.0280 -0.0290 -0.2870
  187SLPC   H9X21601   6.156   1.217   7.864  0.0560  1.6375  1.6215
  187SLPC   H9Y21602   6.317   1.263   7.926  1.2285 -0.2455 -1.8988
  187SLPC  C31021603   6.261   1.065   7.999  0.4046 -0.1096  0.1388
  187SLPC  H10X21604   6.291   1.128   8.084  0.7591 -0.0157 -0.0528
  187SLPC  H10Y21605   6.345   0.992   7.994  0.1676 -0.4142  0.5725
  187SLPC  C31121606   6.126   0.999   8.026 -0.4692 -0.1234  1.0052
  187SLPC  H11X21607   6.088   0.941   7.939 -2.8055 -0.8277  2.3853
  187SLPC  H11Y21608   6.067   1.092   8.046  2.1759  1.5849  1.3476
  187SLPC  C31221609   6.128   0.912   8.141 -0.2274  0.7284  0.4331
  187SLPC  H12X21610   6.197   0.826   8.127 -3.0265 -1.8013  1.1397
  187SLPC  H12Y21611   6.026   0.868   8.152 -0.3271  0.8901  0.1546
  187SLPC  C31321612   6.165   0.967   8.274  0.1608  0.8627 -0.1019
  187SLPC  H13X21613   6.093   1.051   8.289 -2.7492 -1.2933 -1.0038
  187SLPC  H13Y21614   6.269   1.007   8.274  1.1366 -1.4819  0.6041
  187SLPC  C31421615   6.136   0.874   8.390  0.4050  0.0063  0.7828
  187SLPC  H14X21616   6.198   0.783   8.370 -0.2891 -1.0326  3.0321
  187SLPC  H14Y21617   6.029   0.850   8.374  0.7994 -0.3581 -1.7655
  187SLPC  C31521618   6.158   0.935   8.529 -0.7886  0.6904  0.2190
  187SLPC  H15X21619   6.094   1.025   8.533  2.3937  3.2346 -1.0734
  187SLPC  H15Y21620   6.265   0.965   8.540  0.2945 -1.8948 -2.1032
  187SLPC  C31621621   6.128   0.833   8.640  0.1230 -0.1417  0.8062
  187SLPC  H16X21622   6.168   0.870   8.737  0.3541 -0.9735  1.0403
  187SLPC  H16Y21623   6.181   0.743   8.602 -1.0856 -0.8845  0.8390
  187SLPC  C31721624   5.986   0.792   8.652  0.0820  0.4414 -0.0965
  187SLPC  H17X21625   5.945   0.761   8.554  0.9465 -0.2686 -0.2426
  187SLPC  H17Y21626   5.923   0.874   8.692 -0.0340  0.4109 -0.2174
  187SLPC  C31821627   5.973   0.678   8.749 -0.0260 -0.7946 -0.5557
  187SLPC  H18X21628   6.045   0.595   8.731 -1.0316 -1.3229 -2.3731
  187SLPC  H18Y21629   5.879   0.624   8.725 -1.2616  1.6047 -1.4322
  187SLPC  H18Z21630   5.994   0.701   8.856 -0.5695 -0.6673 -0.4745
  188SLPC     N21631   5.919   1.863   6.364  0.3657 -0.2689  0.1053
  188SLPC   C1321632   5.897   2.002   6.310  0.4947  0.3723 -0.6737
  188SLPC  H13A21633   5.986   2.046   6.266  1.1624  0.0545  0.3321
  188SLPC  H13B21634   5.823   1.991   6.233  1.0473 -1.3438 -0.9948
  188SLPC  H13C21635   5.856   2.052   6.397  0.3526  0.0390 -0.5509
  188SLPC   C1421636   5.963   1.774   6.256 -0.1632  0.7328 -0.5560
  188SLPC  H14A21637   5.882   1.763   6.186 -0.2331  1.5184 -0.6022
  188SLPC  H14B21638   6.059   1.808   6.220  0.9492 -0.4423  1.1165
  188SLPC  H14C21639   5.988   1.679   6.303  2.3056  1.1096 -0.9518
  188SLPC   C1521640   5.786   1.816   6.406  1.0273 -0.1768  0.2518
  188SLPC  H15A21641   5.735   1.887   6.471  0.5260  0.2695 -0.5971
  188SLPC  H15B21642   5.715   1.806   6.325  2.1658  1.8112 -1.0841
  188SLPC  H15C21643   5.780   1.723   6.461 -1.2594 -0.9916 -1.2157
  188SLPC   C1221644   6.005   1.861   6.489 -0.4138  0.5239  0.5010
  188SLPC  H12A21645   5.969   1.928   6.565 -0.6910  1.8983 -0.7942
  188SLPC  H12B21646   6.101   1.905   6.464 -0.6321  1.2296  0.9024
  188SLPC   C1121647   6.037   1.721   6.557  0.5918 -0.5355 -0.5696
  188SLPC  H11A21648   5.943   1.665   6.537  0.1933 -0.6176  1.3478
  188SLPC  H11B21649   6.043   1.735   6.667 -2.4217  0.6624 -0.4548
  188SLPC     P21650   6.288   1.684   6.556 -0.0662  0.2257 -0.0148
  188SLPC   O1321651   6.391   1.620   6.474 -0.0571 -0.5864 -0.6087
  188SLPC   O1421652   6.294   1.832   6.572 -0.6061 -0.4452  0.1936
  188SLPC   O1221653   6.146   1.650   6.492 -0.3980 -0.8327  0.8543
  188SLPC   O1121654   6.279   1.622   6.694 -0.5511  0.1772  0.2713
  188SLPC    C121655   6.201   1.512   6.734  0.2452  0.3373  0.3386
  188SLPC    HA21656   6.145   1.465   6.650 -1.0351  1.1164  0.7408
  188SLPC    HB21657   6.280   1.446   6.777  2.0051  1.1396 -1.4933
  188SLPC    C221658   6.088   1.542   6.836  0.4074  0.1049 -0.3551
  188SLPC    HS21659   5.992   1.573   6.789 -0.4642 -1.3850  0.3753
  188SLPC   O2121660   6.147   1.619   6.946 -0.5119  0.3804  0.5505
  188SLPC   C2121661   6.052   1.698   7.004  0.0674  0.0223 -1.1056
  188SLPC   O2221662   5.933   1.695   6.979  0.5221 -0.0853 -0.8756
  188SLPC   C2221663   6.116   1.776   7.121 -0.3944  1.0864 -0.3511
  188SLPC   H2R21664   6.226   1.768   7.132 -0.3107  3.2605  0.8965
  188SLPC   H2S21665   6.092   1.883   7.107  1.3917  2.0303  2.7045
  188SLPC    C321666   6.039   1.400   6.891  0.4889  0.0070 -0.2648
  188SLPC    HX21667   6.121   1.353   6.949  2.0889  0.2282 -2.2257
  188SLPC    HY21668   6.007   1.337   6.805  1.3298 -0.1804 -0.4521
  188SLPC   O3121669   5.918   1.398   6.974 -0.6603 -0.3315 -0.1414
  188SLPC   C3121670   5.801   1.416   6.905 -0.0444  0.3368 -0.8330
  188SLPC   O3221671   5.800   1.433   6.785  0.0253 -0.6749 -0.0038
  188SLPC   C3221672   5.670   1.408   6.995 -0.0235 -0.6048  0.6743
  188SLPC   H2X21673   5.624   1.307   6.987 -0.5109 -0.3620  0.3597
  188SLPC   H2Y21674   5.595   1.478   6.952 -1.7724 -1.8313  1.6245
  188SLPC   C2321675   6.066   1.728   7.266 -0.3774  0.1920 -0.5760
  188SLPC   H3R21676   5.956   1.720   7.260 -0.3086 -1.1184 -0.3128
  188SLPC   H3S21677   6.103   1.793   7.348  1.5911 -2.7775  1.0842
  188SLPC   C2421678   6.116   1.596   7.317  0.2562  0.0451  0.5839
  188SLPC   H4R21679   6.225   1.598   7.335  0.1131  1.2123  1.4186
  188SLPC   H4S21680   6.087   1.512   7.250 -1.0824 -1.4205  2.8460
  188SLPC   C2521681   6.066   1.560   7.454  0.6024  0.0668 -0.9331
  188SLPC   H5R21682   6.055   1.449   7.458  0.1796  0.1391  0.7859
  188SLPC   H5S21683   5.962   1.597   7.448  0.5472  0.0338 -0.2879
  188SLPC   C2621684   6.143   1.613   7.574 -0.6815 -0.6153  0.2808
  188SLPC   H6R21685   6.145   1.724   7.564  0.2354 -0.1706  3.8780
  188SLPC   H6S21686   6.242   1.564   7.586 -0.5738 -0.8256 -1.2654
  188SLPC   C2721687   6.075   1.581   7.708  0.0742 -0.5091  0.5719
  188SLPC   H7R21688   6.026   1.481   7.705 -0.5312 -0.2627  1.5436
  188SLPC   H7S21689   5.999   1.658   7.734  1.3126 -0.1736  3.6791
  188SLPC   C2821690   6.174   1.569   7.831  0.7716  0.3438  0.3767
  188SLPC   H8R21691   6.226   1.666   7.845  1.8358 -0.3176  1.2013
  188SLPC   H8S21692   6.261   1.504   7.806  0.0200 -1.5201  2.3220
  188SLPC   C2921693   6.109   1.523   7.959 -0.1010 -0.4600  0.0794
  188SLPC   H9R21694   6.052   1.429   7.945  0.6695 -1.1260  1.2599
  188SLPC  C21021695   6.114   1.579   8.080  0.4682 -0.6266 -1.0402
  188SLPC  H10R21696   6.073   1.528   8.168  0.2843  2.7476  1.0212
  188SLPC  C21121697   6.194   1.700   8.118 -0.0942 -0.8741  0.6169
  188SLPC  H11R21698   6.168   1.767   8.034  1.7129 -0.7908  0.0754
  188SLPC  H11S21699   6.303   1.682   8.112  0.0643 -0.3948  1.8440
  188SLPC  C21221700   6.161   1.773   8.245 -0.4943  0.4028  0.2246
  188SLPC  H12R21701   6.136   1.711   8.332 -0.6894 -1.2906 -0.9845
  188SLPC  C21321702   6.122   1.899   8.258 -0.0487 -0.6819 -0.4351
  188SLPC  H13R21703   6.078   1.938   8.351 -0.6127  2.9716 -2.0686
  188SLPC  C21421704   6.125   2.005   8.147 -0.6554  0.3228 -0.0469
  188SLPC  H14R21705   6.021   2.014   8.109 -1.5074  0.2583  2.1066
  188SLPC  H14S21706   6.178   1.969   8.056  0.0742 -2.9945  1.5308
  188SLPC  C21521707   6.162   2.145   8.199  0.2803  0.0038  0.4853
  188SLPC  H15R21708   6.177   2.211   8.112  0.0482  0.8936  1.1053
  188SLPC  H15S21709   6.262   2.153   8.246 -0.0339  2.1312  0.9063
  188SLPC  C21621710   6.056   2.204   8.288 -0.8500 -0.0386 -0.4692
  188SLPC  H16R21711   6.024   2.144   8.375  0.0191  0.4054  0.1707
  188SLPC  H16S21712   5.970   2.229   8.223 -1.5298  0.2581  0.5219
  188SLPC  C21721713   6.106   2.336   8.350  0.2246 -0.1618  0.3113
  188SLPC  H17R21714   6.193   2.307   8.412 -0.7941 -1.0521  1.3728
  188SLPC  H17S21715   6.017   2.361   8.412 -0.8465  0.6054 -1.4444
  188SLPC  C21821716   6.149   2.458   8.259 -0.2003 -0.2166 -0.0748
  188SLPC  H18R21717   6.168   2.557   8.306 -0.4982  0.3634 -1.1328
  188SLPC  H18S21718   6.069   2.489   8.189 -1.5882 -0.8648  1.1823
  188SLPC  H18T21719   6.236   2.428   8.196  1.2577  2.8892  0.2476
  188SLPC   C3321720   5.699   1.443   7.143 -0.0832  0.0393 -0.1164
  188SLPC   H3X21721   5.796   1.403   7.178  0.0303 -1.6984 -2.1879
  188SLPC   H3Y21722   5.625   1.378   7.195 -0.4181  1.7985  1.7334
  188SLPC   C3421723   5.665   1.589   7.187 -0.2406  0.2825  0.5088
  188SLPC   H4X21724   5.567   1.633   7.158  0.8968  2.5085 -0.2201
  188SLPC   H4Y21725   5.755   1.642   7.147  0.3192  0.5029  1.9965
  188SLPC   C3521726   5.662   1.613   7.337  0.2225 -0.1132 -0.1272
  188SLPC   H5X21727   5.760   1.575   7.370  1.7587  2.3330 -1.5383
  188SLPC   H5Y21728   5.578   1.552   7.377  1.4375 -0.2790  2.3086
  188SLPC   C3621729   5.661   1.760   7.376 -0.8434  0.0033 -0.4583
  188SLPC   H6X21730   5.570   1.807   7.335 -0.9738  0.0949 -0.0631
  188SLPC   H6Y21731   5.755   1.805   7.336 -0.8330  0.9026  0.5519
  188SLPC   C3721732   5.647   1.787   7.530  1.0204  0.0223  0.4882
  188SLPC   H7X21733   5.561   1.730   7.571  0.9624 -0.1327  0.1527
  188SLPC   H7Y21734   5.612   1.892   7.524 -2.8362 -1.1277 -0.4072
  188SLPC   C3821735   5.777   1.777   7.599 -0.1834  0.5412  0.5236
  188SLPC   H8X21736   5.852   1.842   7.548  2.4245 -0.6464  2.6055
  188SLPC   H8Y21737   5.800   1.668   7.605 -0.6422  0.4032 -0.1531
  188SLPC   C3921738   5.766   1.829   7.739  0.4575 -0.0596 -0.0669
  188SLPC   H9X21739   5.685   1.905   7.739  0.6141  0.1186 -1.1566
  188SLPC   H9Y21740   5.858   1.879   7.777  0.3450 -0.1630  0.3581
  188SLPC  C31021741   5.739   1.717   7.842  0.0607  0.5297 -1.0675
  188SLPC  H10X21742   5.809   1.631   7.827 -3.1559 -2.3102 -1.0963
  188SLPC  H10Y21743   5.637   1.678   7.824 -0.7732  2.1703 -0.1207
  188SLPC  C31121744   5.759   1.760   7.986 -0.1795 -0.1886 -0.3934
  188SLPC  H11X21745   5.700   1.852   8.006 -0.2799 -0.5699  1.1850
  188SLPC  H11Y21746   5.866   1.783   8.005  0.1598 -0.7153 -1.5936
  188SLPC  C31221747   5.712   1.658   8.094 -0.2908  0.8105 -1.1009
  188SLPC  H12X21748   5.773   1.565   8.089 -0.0428  0.8106  1.0213
  188SLPC  H12Y21749   5.612   1.616   8.066  0.0716  0.8399 -2.5296
  188SLPC  C31321750   5.730   1.712   8.236  0.3940  0.4897 -0.1151
  188SLPC  H13X21751   5.640   1.775   8.252 -1.9451 -2.3352 -1.2896
  188SLPC  H13Y21752   5.820   1.776   8.248  2.1610 -1.7652 -0.6424
  188SLPC  C31421753   5.715   1.610   8.348  0.5744 -0.2323  1.1369
  188SLPC  H14X21754   5.733   1.656   8.448  0.3558  2.0442  0.1875
  188SLPC  H14Y21755   5.792   1.530   8.343 -1.2064 -1.9833  0.4536
  188SLPC  C31521756   5.577   1.544   8.346  0.7511 -0.1195 -0.1763
  188SLPC  H15X21757   5.558   1.480   8.258  1.8081  0.6828 -1.0310
  188SLPC  H15Y21758   5.508   1.631   8.350  1.3646  0.3490  2.5692
  188SLPC  C31621759   5.545   1.460   8.466  0.0724  0.0088 -0.5624
  188SLPC  H16X21760   5.577   1.506   8.562 -1.2564 -0.0592 -0.0647
  188SLPC  H16Y21761   5.611   1.371   8.457 -0.3788 -0.4101  0.1844
  188SLPC  C31721762   5.395   1.414   8.457 -0.2589 -0.1667 -0.1631
  188SLPC  H17X21763   5.392   1.346   8.370 -0.6846 -1.0839  0.5485
  188SLPC  H17Y21764   5.320   1.495   8.445  0.1237  0.2718  0.3500
  188SLPC  C31821765   5.353   1.331   8.580  0.3610 -0.4455  0.6339
  188SLPC  H18X21766   5.348   1.406   8.662  1.5145  1.8111 -1.2340
  188SLPC  H18Y21767   5.418   1.244   8.606 -1.4421 -1.3940  2.2369
  188SLPC  H18Z21768   5.253   1.290   8.554  0.1043  0.5482 -0.0028
  189SLPC     N21769   6.277   3.909   6.145 -0.4650 -0.0814  0.4357
  189SLPC   C1321770   6.383   3.859   6.054 -0.3649 -0.4548  0.0957
  189SLPC  H13A21771   6.477   3.839   6.103  0.7280  1.3754 -1.1131
  189SLPC  H13B21772   6.346   3.766   6.015  1.2083 -0.4950 -1.4374
  189SLPC  H13C21773   6.410   3.926   5.973 -1.0261  1.7179  1.5615
  189SLPC   C1421774   6.278   3.814   6.267 -0.1596 -0.2017 -0.0956
  189SLPC  H14A21775   6.373   3.825   6.317  1.0917  0.2971 -2.4418
  189SLPC  H14B21776   6.189   3.822   6.328 -0.3812 -1.3952 -0.2272
  189SLPC  H14C21777   6.279   3.711   6.232 -1.3759 -0.0129 -0.7504
  189SLPC   C1521778   6.146   3.889   6.081  1.0033 -0.2084 -0.2676
  189SLPC  H15A21779   6.130   3.790   6.040 -0.1996 -0.5614  0.9469
  189SLPC  H15B21780   6.060   3.891   6.147  1.8820 -2.8128  1.1387
  189SLPC  H15C21781   6.126   3.957   6.000  0.6016 -2.6215 -2.3372
  189SLPC   C1221782   6.304   4.054   6.186  0.3665  0.1988 -0.0141
  189SLPC  H12A21783   6.217   4.092   6.238 -1.2329 -3.1934  0.0811
  189SLPC  H12B21784   6.316   4.107   6.092  2.0966  0.1499  0.1524
  189SLPC   C1121785   6.432   4.078   6.273 -0.2639 -0.3644  0.3740
  189SLPC  H11A21786   6.517   4.037   6.215  1.0023  1.0308  1.1622
  189SLPC  H11B21787   6.424   4.025   6.371  0.4594  0.7999  1.0815
  189SLPC     P21788   6.402   4.278   6.439 -0.2314 -0.8373  0.2574
  189SLPC   O1321789   6.417   4.178   6.547 -0.2113  0.3647 -0.3238
  189SLPC   O1421790   6.466   4.405   6.455  0.1086  0.6519 -0.0555
  189SLPC   O1221791   6.457   4.221   6.297 -1.0160  0.9163 -0.1590
  189SLPC   O1121792   6.244   4.303   6.416  0.1136  0.7363  0.5284
  189SLPC    C121793   6.173   4.339   6.530 -0.6976 -0.7793 -0.7573
  189SLPC    HA21794   6.219   4.394   6.614 -1.3248 -1.2276 -0.0979
  189SLPC    HB21795   6.097   4.416   6.504  0.3354  0.3718 -0.4402
  189SLPC    C221796   6.088   4.222   6.588  0.1874 -0.1163 -0.0826
  189SLPC    HS21797   5.999   4.260   6.642 -1.1487 -3.4397  0.2677
  189SLPC   O2121798   6.172   4.135   6.671  0.1532  0.1955 -0.3548
  189SLPC   C2121799   6.202   4.177   6.794  0.3997  0.1939  0.4799
  189SLPC   O2221800   6.150   4.276   6.843 -0.6052 -0.2712 -0.1244
  189SLPC   C2221801   6.305   4.088   6.862 -0.1218  0.1358  0.1166
  189SLPC   H2R21802   6.268   3.984   6.852 -1.1296  0.2669  2.0200
  189SLPC   H2S21803   6.400   4.086   6.804  1.2772 -1.9804  2.2912
  189SLPC    C321804   6.032   4.132   6.477  0.7333  0.5934  0.2777
  189SLPC    HX21805   6.103   4.099   6.398  0.6493 -1.2325  0.9168
  189SLPC    HY21806   5.951   4.189   6.426 -1.6313 -1.0852  1.9673
  189SLPC   O3121807   5.990   4.003   6.537  0.2530  0.3259  0.1485
  189SLPC   C3121808   5.859   3.977   6.561  0.0731  0.7518 -0.0317
  189SLPC   O3221809   5.762   4.028   6.511 -0.1641  0.4652  0.2197
  189SLPC   C3221810   5.843   3.874   6.679  0.0298  0.6308 -0.2866
  189SLPC   H2X21811   5.859   3.771   6.638 -0.4945  0.5142 -0.2020
  189SLPC   H2Y21812   5.744   3.888   6.727 -0.9889 -1.6252 -1.5680
  189SLPC   C2321813   6.313   4.110   7.012  0.1724  0.2147  0.2342
  189SLPC   H3R21814   6.371   4.022   7.045  1.0744  0.0250 -1.7561
  189SLPC   H3S21815   6.213   4.105   7.061  0.8193  0.2831  1.5952
  189SLPC   C2421816   6.371   4.247   7.055  0.5241 -0.0675  0.1521
  189SLPC   H4R21817   6.315   4.339   7.026  2.1710  0.5570 -1.2523
  189SLPC   H4S21818   6.471   4.258   7.007  2.0239 -2.9471  2.3793
  189SLPC   C2521819   6.393   4.271   7.205  0.1906 -0.7793 -0.1172
  189SLPC   H5R21820   6.428   4.183   7.262 -1.0471  0.5204  2.8499
  189SLPC   H5S21821   6.292   4.297   7.245  0.4506  0.5904 -0.2873
  189SLPC   C2621822   6.491   4.392   7.223 -0.4931 -0.3485 -0.1824
  189SLPC   H6R21823   6.501   4.439   7.122 -0.8271  1.1246  0.4520
  189SLPC   H6S21824   6.589   4.354   7.260 -0.6549  0.0040  0.6307
  189SLPC   C2721825   6.439   4.506   7.318 -0.0427  0.5046  0.6699
  189SLPC   H7R21826   6.349   4.545   7.265 -0.0800 -0.1166  0.2659
  189SLPC   H7S21827   6.510   4.591   7.317  0.2352  0.2906 -1.0105
  189SLPC   C2821828   6.386   4.445   7.449 -0.9014  0.8047  0.1738
  189SLPC   H8R21829   6.312   4.365   7.433 -0.6288  0.1385  2.0114
  189SLPC   H8S21830   6.332   4.530   7.497  0.8328  0.9728  1.9930
  189SLPC   C2921831   6.496   4.391   7.537  0.7996 -0.0524 -0.0459
  189SLPC   H9R21832   6.561   4.328   7.475 -0.5163 -0.4910 -1.0325
  189SLPC  C21021833   6.512   4.405   7.670  0.2922  0.9583 -0.3313
  189SLPC  H10R21834   6.610   4.374   7.710  0.6688  2.7927  0.2241
  189SLPC  C21121835   6.418   4.483   7.764 -0.2871  0.0794 -0.4835
  189SLPC  H11R21836   6.390   4.420   7.851 -0.8451 -2.4458 -2.3415
  189SLPC  H11S21837   6.322   4.509   7.715  0.3452 -0.6595 -2.2045
  189SLPC  C21221838   6.508   4.601   7.817 -0.0336  0.2566  0.6834
  189SLPC  H12R21839   6.594   4.632   7.755 -0.9722  0.9030 -0.3500
  189SLPC  C21321840   6.498   4.662   7.927 -0.3698 -0.0915 -0.2789
  189SLPC  H13R21841   6.576   4.738   7.945  1.6649 -2.4313  1.4280
  189SLPC  C21421842   6.401   4.643   8.039  0.1146 -0.4718 -0.1171
  189SLPC  H14R21843   6.463   4.591   8.116 -1.6436 -2.3269  0.1466
  189SLPC  H14S21844   6.317   4.579   8.004 -0.2701  0.5768 -1.1519
  189SLPC  C21521845   6.337   4.769   8.091  0.1371 -0.1768 -0.0943
  189SLPC  H15R21846   6.249   4.746   8.155  0.5450  1.9895  1.3324
  189SLPC  H15S21847   6.302   4.833   8.007 -0.2846 -0.3321 -0.0428
  189SLPC  C21621848   6.428   4.857   8.183 -0.0732 -0.9827  0.0356
  189SLPC  H16R21849   6.520   4.884   8.126 -1.4416 -0.2790 -1.9656
  189SLPC  H16S21850   6.456   4.791   8.267 -0.6794 -1.8193 -0.4021
  189SLPC  C21721851   6.360   4.988   8.228 -0.1715  0.1116  0.0718
  189SLPC  H17R21852   6.308   5.031   8.140 -0.7333 -1.5575 -0.4368
  189SLPC  H17S21853   6.432   5.060   8.273 -1.6785  0.2601  2.4202
  189SLPC  C21821854   6.246   4.958   8.329  0.4763 -0.0184  0.0073
  189SLPC  H18R21855   6.158   4.907   8.283  0.0699  0.5948  0.1015
  189SLPC  H18S21856   6.208   5.054   8.368  2.9356  0.0940  2.4711
  189SLPC  H18T21857   6.295   4.899   8.410 -1.3109 -1.0215  0.3957
  189SLPC   C3321858   5.949   3.905   6.795  0.5290 -0.1651  0.1420
  189SLPC   H3X21859   5.949   4.015   6.813  0.0437 -0.4367  2.0210
  189SLPC   H3Y21860   6.044   3.871   6.748 -0.5873 -2.4494 -0.5863
  189SLPC   C3421861   5.915   3.836   6.931  0.3592  0.4002  0.8202
  189SLPC   H4X21862   5.912   3.729   6.905  0.4404  0.9602 -1.7909
  189SLPC   H4Y21863   5.815   3.862   6.972  0.7640 -0.1287  2.1740
  189SLPC   C3521864   6.024   3.854   7.041  0.3277  0.6003  0.1875
  189SLPC   H5X21865   6.043   3.962   7.057  0.1839  0.6767 -0.1530
  189SLPC   H5Y21866   6.112   3.793   7.009  0.2671  0.8939 -0.5520
  189SLPC   C3621867   5.972   3.798   7.180  0.3741  0.1026  0.1503
  189SLPC   H6X21868   5.961   3.688   7.168  1.8781  0.0809 -1.5268
  189SLPC   H6Y21869   5.874   3.849   7.189  1.4586  2.1730  0.9541
  189SLPC   C3721870   6.070   3.827   7.296 -0.2313  0.0042 -0.2004
  189SLPC   H7X21871   6.031   3.771   7.384 -1.5846 -1.5258 -1.6907
  189SLPC   H7Y21872   6.079   3.934   7.322  0.5837 -0.1843  0.3323
  189SLPC   C3821873   6.211   3.770   7.272  0.4189  0.0295 -0.3034
  189SLPC   H8X21874   6.250   3.796   7.172  0.1176  0.4566 -0.3101
  189SLPC   H8Y21875   6.206   3.659   7.274 -0.1523  0.0503 -0.1924
  189SLPC   C3921876   6.312   3.816   7.380 -0.2647  0.1193  0.5187
  189SLPC   H9X21877   6.304   3.926   7.393  4.3509  0.7864 -0.5140
  189SLPC   H9Y21878   6.417   3.796   7.352 -0.2548 -0.4786  0.9747
  189SLPC  C31021879   6.279   3.745   7.515 -0.3304  0.5302  0.1311
  189SLPC  H10X21880   6.251   3.640   7.493  0.2534  0.3965 -0.0009
  189SLPC  H10Y21881   6.191   3.798   7.556 -1.2851  0.0962 -1.2902
  189SLPC  C31121882   6.402   3.759   7.613 -0.3816  0.0710 -0.0638
  189SLPC  H11X21883   6.440   3.864   7.618 -2.9846  1.0420  0.9508
  189SLPC  H11Y21884   6.482   3.697   7.567  0.3144 -1.0831  2.5521
  189SLPC  C31221885   6.366   3.716   7.755  0.3874  0.1271  0.5892
  189SLPC  H12X21886   6.340   3.609   7.741  0.1165  0.3175 -0.4496
  189SLPC  H12Y21887   6.275   3.763   7.796  0.3058 -1.3090  2.1435
  189SLPC  C31321888   6.483   3.731   7.850 -0.2359  0.1724 -0.4376
  189SLPC  H13X21889   6.513   3.837   7.859 -1.4211  0.5800 -1.0833
  189SLPC  H13Y21890   6.570   3.677   7.806 -0.4232  0.1224 -0.7496
  189SLPC  C31421891   6.438   3.685   7.994 -0.5730 -0.0070  0.2227
  189SLPC  H14X21892   6.393   3.583   7.990  0.9604 -0.7136  0.1196
  189SLPC  H14Y21893   6.372   3.767   8.028 -0.5546  1.4969 -3.0163
  189SLPC  C31521894   6.546   3.666   8.098  0.0492 -0.4888  0.2916
  189SLPC  H15X21895   6.619   3.590   8.062  0.1015 -0.8283  1.1133
  189SLPC  H15Y21896   6.491   3.624   8.184 -1.0479  0.2677 -0.0187
  189SLPC  C31621897   6.619   3.801   8.133 -0.7949 -0.0750 -0.1125
  189SLPC  H16X21898   6.545   3.883   8.144 -1.6522 -1.1688  3.2461
  189SLPC  H16Y21899   6.686   3.826   8.048 -0.8967 -0.0059 -0.1736
  189SLPC  C31721900   6.710   3.790   8.259 -0.0770 -0.5500  0.2390
  189SLPC  H17X21901   6.644   3.763   8.345 -2.2093 -0.5082 -1.2966
  189SLPC  H17Y21902   6.755   3.888   8.286 -2.2549  1.7172 -3.5456
  189SLPC  C31821903   6.824   3.690   8.249 -0.4797  0.5655 -0.2874
  189SLPC  H18X21904   6.880   3.674   8.344  1.3267 -2.2334 -1.7049
  189SLPC  H18Y21905   6.890   3.733   8.171 -1.8761  1.9076 -0.7783
  189SLPC  H18Z21906   6.784   3.589   8.225 -2.3690  0.3011  3.3305
  190SLPC     N21907   0.240   4.595   5.963 -0.3217  0.1619 -0.0116
  190SLPC   C1321908   0.188   4.570   5.834 -0.1734  0.3214  0.5351
  190SLPC  H13A21909   0.093   4.518   5.829 -0.2100  0.4916 -1.4849
  190SLPC  H13B21910   0.154   4.661   5.786  0.3282 -0.4855 -1.4583
  190SLPC  H13C21911   0.253   4.518   5.766 -1.5357 -1.8370  0.7700
  190SLPC   C1421912   0.252   4.466   6.041  0.2642 -0.0422 -0.2761
  190SLPC  H14A21913   0.272   4.488   6.145 -0.9929 -0.1148 -0.0040
  190SLPC  H14B21914   0.153   4.426   6.055 -0.2161  0.6202 -1.5681
  190SLPC  H14C21915   0.322   4.396   5.998  0.7476 -0.0550  0.5244
  190SLPC   C1521916   0.152   4.682   6.047 -0.2827  0.2491  0.7517
  190SLPC  H15A21917   0.046   4.659   6.051 -0.6822  1.0825 -2.4073
  190SLPC  H15B21918   0.176   4.676   6.152  1.5432  0.6013  0.3881
  190SLPC  H15C21919   0.153   4.785   6.014 -0.0948 -0.6229 -2.2494
  190SLPC   C1221920   0.374   4.666   5.949 -0.3378 -0.2032  0.5088
  190SLPC  H12A21921   0.357   4.751   5.884 -0.6276  1.3095  2.4859
  190SLPC  H12B21922   0.437   4.597   5.894  1.9942 -1.3966  4.3045
  190SLPC   C1121923   0.462   4.680   6.074 -0.3513  0.0885 -0.0576
  190SLPC  H11A21924   0.412   4.742   6.153  0.1658 -0.5382  0.7773
  190SLPC  H11B21925   0.539   4.753   6.041  0.6180 -0.3495  1.1385
  190SLPC     P21926   0.610   4.563   6.237  0.1912  0.3314 -0.0770
  190SLPC   O1321927   0.617   4.426   6.299  0.5076 -0.1760  0.3288
  190SLPC   O1421928   0.735   4.630   6.192  0.3551  0.5967 -0.7221
  190SLPC   O1221929   0.524   4.554   6.110  0.3204 -0.1093  0.4862
  190SLPC   O1121930   0.535   4.663   6.341 -0.6148 -0.3412 -0.2637
  190SLPC    C121931   0.427   4.604   6.416 -0.0683 -0.6740 -0.3062
  190SLPC    HA21932   0.347   4.681   6.406  0.9178  0.3142 -0.6714
  190SLPC    HB21933   0.400   4.500   6.385 -0.2304 -0.5941 -0.4309
  190SLPC    C221934   0.455   4.587   6.571  0.8826 -0.1461  0.0475
  190SLPC    HS21935   0.484   4.679   6.625 -0.9682  0.7468 -0.4090
  190SLPC   O2121936   0.558   4.493   6.591 -0.7732  0.6889  0.2122
  190SLPC   C2121937   0.682   4.542   6.603 -0.2377  0.3771 -0.8351
  190SLPC   O2221938   0.705   4.661   6.582  0.0180 -0.2611 -0.3007
  190SLPC   C2221939   0.782   4.435   6.641 -0.7022  0.0015  0.0357
  190SLPC   H2R21940   0.750   4.345   6.585 -1.5780 -0.4581  1.2501
  190SLPC   H2S21941   0.884   4.476   6.627 -0.2807 -0.6058  1.1467
  190SLPC    C321942   0.322   4.542   6.645 -0.5542 -0.2024  0.0341
  190SLPC    HX21943   0.291   4.447   6.598  1.0636 -1.2128  0.9211
  190SLPC    HY21944   0.238   4.612   6.628 -1.0326 -0.5413  0.9506
  190SLPC   O3121945   0.336   4.540   6.787  0.2495 -0.0336 -1.0050
  190SLPC   C3121946   0.358   4.421   6.836  0.0847  0.2670 -0.3894
  190SLPC   O3221947   0.354   4.315   6.776  1.0960  0.0774 -0.0220
  190SLPC   C3221948   0.404   4.423   6.982 -0.1436  0.8338 -0.1506
  190SLPC   H2X21949   0.311   4.422   7.042  1.5289 -0.0801  2.6173
  190SLPC   H2Y21950   0.463   4.516   6.991  1.3405  0.6964 -5.1903
  190SLPC   C2321951   0.789   4.388   6.788  0.5681  0.1686 -0.6302
  190SLPC   H3R21952   0.828   4.284   6.795 -1.0586 -0.3763  1.1265
  190SLPC   H3S21953   0.684   4.388   6.826  0.5284 -2.0935 -0.6169
  190SLPC   C2421954   0.871   4.485   6.875 -0.0764 -0.5413  0.3187
  190SLPC   H4R21955   0.828   4.587   6.866 -1.3829 -1.1809 -1.0983
  190SLPC   H4S21956   0.979   4.490   6.852 -0.4991  0.3910 -1.7163
  190SLPC   C2521957   0.869   4.443   7.023 -0.1495 -0.1970  0.3794
  190SLPC   H5R21958   0.908   4.339   7.017 -2.0253 -0.9507  0.3033
  190SLPC   H5S21959   0.759   4.443   7.044 -0.5061 -0.3839 -1.3392
  190SLPC   C2621960   0.942   4.533   7.120 -0.2981  0.0257  0.4519
  190SLPC   H6R21961   0.884   4.627   7.133 -0.5738 -0.3857  2.4395
  190SLPC   H6S21962   1.038   4.560   7.071  0.6774 -1.0773  1.6918
  190SLPC   C2721963   0.953   4.472   7.257 -1.3021  0.3556 -0.5285
  190SLPC   H7R21964   0.963   4.362   7.247 -3.1476  0.2946 -2.1899
  190SLPC   H7S21965   0.861   4.491   7.316 -1.8183 -2.7798 -0.1497
  190SLPC   C2821966   1.083   4.534   7.324 -0.5271  0.7379  1.3199
  190SLPC   H8R21967   1.164   4.517   7.250 -0.5279  1.4532  1.1464
  190SLPC   H8S21968   1.115   4.471   7.410  2.0810  1.8172  1.2299
  190SLPC   C2921969   1.067   4.676   7.370 -0.4461 -0.0997  0.1742
  190SLPC   H9R21970   1.028   4.748   7.296 -1.7392 -1.3484 -0.4083
  190SLPC  C21021971   1.091   4.729   7.496  0.3512  0.3076  0.1161
  190SLPC  H10R21972   1.070   4.835   7.517  2.5554  0.9364 -0.5519
  190SLPC  C21121973   1.126   4.658   7.622 -0.3144 -0.2060  1.0542
  190SLPC  H11R21974   1.207   4.702   7.685  0.6064  1.0086 -0.8793
  190SLPC  H11S21975   1.185   4.568   7.596  0.8409  0.5892  0.8141
  190SLPC  C21221976   1.021   4.617   7.716  0.0950  0.2560  0.2931
  190SLPC  H12R21977   0.966   4.524   7.695 -0.5655  0.5151  0.8202
  190SLPC  C21321978   0.978   4.683   7.828  0.0730  0.1801 -0.7379
  190SLPC  H13R21979   0.898   4.637   7.886  0.7299 -0.0159  0.0318
  190SLPC  C21421980   1.035   4.812   7.888  0.3818  0.4489  0.0769
  190SLPC  H14R21981   1.128   4.845   7.837  1.2478 -1.1501  0.5441
  190SLPC  H14S21982   1.072   4.798   7.992  2.4234  2.0358 -0.3640
  190SLPC  C21521983   0.930   4.929   7.890  0.0337 -0.2316 -0.1029
  190SLPC  H15R21984   0.966   5.012   7.955  0.4030  0.3264 -1.0020
  190SLPC  H15S21985   0.839   4.882   7.934  0.7309  0.7125  2.5531
  190SLPC  C21621986   0.912   4.984   7.751  0.4322  0.2299  0.0526
  190SLPC  H16R21987   0.900   4.896   7.683 -0.9910  1.8741 -1.9684
  190SLPC  H16S21988   1.008   5.033   7.726  0.2740  1.7965  2.3206
  190SLPC  C21721989   0.787   5.076   7.734  0.7308 -0.1682  0.1507
  190SLPC  H17R21990   0.794   5.154   7.813  0.3115  1.9265 -1.7686
  190SLPC  H17S21991   0.696   5.021   7.767 -1.0428  1.2871 -2.0650
  190SLPC  C21821992   0.763   5.161   7.607 -0.7686 -0.4736  0.0993
  190SLPC  H18R21993   0.684   5.236   7.626  0.2985  0.2588  1.9376
  190SLPC  H18S21994   0.720   5.097   7.528 -0.8318 -1.4916  0.9331
  190SLPC  H18T21995   0.858   5.210   7.576 -0.2927  0.0304  2.1483
  190SLPC   C3321996   0.474   4.303   7.036  0.1751  0.4038 -0.8886
  190SLPC   H3X21997   0.566   4.294   6.974  0.6205 -0.0605 -0.1817
  190SLPC   H3Y21998   0.411   4.212   7.026 -0.1916  0.3406  1.5260
  190SLPC   C3421999   0.505   4.324   7.182 -0.4154 -0.5050 -0.5015
  190SLPC   H4X22000   0.405   4.328   7.231 -1.0418 -1.8306 -1.6052
  190SLPC   H4Y22001   0.561   4.418   7.202 -2.4013  0.6417 -0.1166
  190SLPC   C3522002   0.596   4.213   7.243 -0.3670 -0.4014 -0.6200
  190SLPC   H5X22003   0.692   4.205   7.186  2.8076  1.1095  3.9637
  190SLPC   H5Y22004   0.541   4.117   7.237 -1.9143  0.4093  0.2050
  190SLPC   C3622005   0.631   4.231   7.392 -0.2600 -0.6720  1.2705
  190SLPC   H6X22006   0.557   4.293   7.446  0.6956  0.0947  1.7351
  190SLPC   H6Y22007   0.729   4.282   7.404 -0.8939  1.0626 -0.4362
  190SLPC   C3722008   0.637   4.100   7.462  0.8503 -0.0566 -1.4728
  190SLPC   H7X22009   0.697   4.023   7.408 -0.1079 -0.9238 -1.3423
  190SLPC   H7Y22010   0.536   4.053   7.468  1.2043 -0.6455  2.7905
  190SLPC   C3822011   0.684   4.101   7.610 -0.5788  0.0771  0.3360
  190SLPC   H8X22012   0.651   4.018   7.676  2.3118 -0.2737  1.4882
  190SLPC   H8Y22013   0.640   4.191   7.656 -0.9645 -0.9077  1.9553
  190SLPC   C3922014   0.839   4.117   7.616  0.0818  0.4895  0.0404
  190SLPC   H9X22015   0.883   4.208   7.571  1.9564  0.0330  0.8248
  190SLPC   H9Y22016   0.890   4.030   7.570 -0.5632 -0.3900  0.9370
  190SLPC  C31022017   0.879   4.120   7.767 -0.4866  0.1212 -0.7807
  190SLPC  H10X22018   0.990   4.111   7.767 -0.6361 -3.5733 -1.8417
  190SLPC  H10Y22019   0.838   4.028   7.815  1.2521 -0.2971  0.0148
  190SLPC  C31122020   0.839   4.242   7.849  0.1913  0.1359 -0.1966
  190SLPC  H11X22021   0.728   4.239   7.863  0.0017 -0.2152 -1.6791
  190SLPC  H11Y22022   0.854   4.342   7.804 -1.4066 -0.0235 -1.1602
  190SLPC  C31222023   0.904   4.242   7.987  0.2949 -0.3511  0.0315
  190SLPC  H12X22024   1.014   4.263   7.982  0.0478  1.3746  0.9114
  190SLPC  H12Y22025   0.898   4.142   8.035  0.8475  0.7618  2.5944
  190SLPC  C31322026   0.842   4.337   8.086  0.3594  0.3483  0.5543
  190SLPC  H13X22027   0.740   4.308   8.118  0.2425  0.0352 -0.0900
  190SLPC  H13Y22028   0.828   4.434   8.034  2.0894  0.7481  0.7804
  190SLPC  C31422029   0.934   4.345   8.212 -0.4095  0.1689 -0.2507
  190SLPC  H14X22030   0.915   4.448   8.251  2.2110  0.9296 -0.7589
  190SLPC  H14Y22031   1.041   4.348   8.182 -1.0201 -1.1027 -2.8122
  190SLPC  C31522032   0.902   4.247   8.334  0.1725 -0.3717  0.3805
  190SLPC  H15X22033   0.946   4.148   8.309 -3.3070 -2.0930  0.4261
  190SLPC  H15Y22034   0.793   4.226   8.327  0.2913 -0.7972 -0.2526
  190SLPC  C31622035   0.946   4.309   8.468 -0.2817 -0.6525  0.0370
  190SLPC  H16X22036   0.890   4.405   8.475 -2.9439 -1.9462 -1.6847
  190SLPC  H16Y22037   1.052   4.340   8.455 -0.0816 -1.2646  0.1863
  190SLPC  C31722038   0.909   4.237   8.594  0.4075 -0.3807 -0.9161
  190SLPC  H17X22039   0.799   4.225   8.601  0.1732  1.1477 -1.5375
  190SLPC  H17Y22040   0.934   4.302   8.681 -1.3575  0.9531 -1.3522
  190SLPC  C31822041   0.982   4.105   8.633 -1.2386 -0.8664 -0.3155
  190SLPC  H18X22042   0.944   4.061   8.727 -2.3033 -1.2938 -0.9248
  190SLPC  H18Y22043   1.087   4.137   8.648 -0.6128 -2.0923 -1.8088
  190SLPC  H18Z22044   0.980   4.032   8.550  2.1355 -0.7756 -0.6257
  191SLPC     N22045   1.769   5.381   5.631 -0.3578 -0.0283  0.4928
  191SLPC   C1322046   1.719   5.521   5.599  0.8675  0.3398 -0.1886
  191SLPC  H13A22047   1.611   5.529   5.597  0.7643 -0.9243 -1.3613
  191SLPC  H13B22048   1.758   5.595   5.666 -1.8380  1.3541  0.3973
  191SLPC  H13C22049   1.757   5.558   5.504  0.8517 -1.0446 -0.7533
  191SLPC   C1422050   1.917   5.369   5.615  0.9592 -0.9436  0.3753
  191SLPC  H14A22051   1.952   5.441   5.689 -1.7459 -0.6923  1.5460
  191SLPC  H14B22052   1.961   5.272   5.632 -0.8784 -1.4998  2.6080
  191SLPC  H14C22053   1.958   5.402   5.521 -1.3312 -0.9407 -0.6785
  191SLPC   C1522054   1.701   5.294   5.533  0.4276  0.2562  0.1178
  191SLPC  H15A22055   1.703   5.331   5.432  3.3514 -2.0934 -0.8144
  191SLPC  H15B22056   1.747   5.197   5.521  0.2480 -0.0053  1.3346
  191SLPC  H15C22057   1.596   5.282   5.554  0.5946  0.2779  1.0123
  191SLPC   C1222058   1.724   5.333   5.769  0.0272  0.0386 -0.2248
  191SLPC  H12A22059   1.765   5.237   5.798  2.0930  1.1050  0.6102
  191SLPC  H12B22060   1.619   5.309   5.770  0.0588 -0.2756  1.8877
  191SLPC   C1122061   1.759   5.423   5.894  0.4762 -0.4288  0.6558
  191SLPC  H11A22062   1.734   5.377   5.992  0.4987 -1.8204  0.0352
  191SLPC  H11B22063   1.695   5.514   5.894 -1.9411 -2.0412  0.9989
  191SLPC     P22064   2.009   5.391   5.968  0.4319  0.1300  0.5739
  191SLPC   O1322065   1.965   5.254   6.001  0.2986  0.2834 -0.2117
  191SLPC   O1422066   2.127   5.402   5.878 -0.1461 -0.4839 -0.1381
  191SLPC   O1222067   1.889   5.467   5.894  0.0068 -0.2218 -0.0392
  191SLPC   O1122068   2.027   5.470   6.093  0.0583 -0.0626 -0.2385
  191SLPC    C122069   1.928   5.473   6.196  0.5015  0.2542  0.2485
  191SLPC    HA22070   1.829   5.427   6.171  0.4155  0.7584 -0.3835
  191SLPC    HB22071   1.971   5.427   6.287 -0.5574 -1.1045  0.0960
  191SLPC    C222072   1.880   5.617   6.237  0.2655  0.2120  0.1067
  191SLPC    HS22073   1.962   5.689   6.255  0.0142  0.1398  1.6372
  191SLPC   O2122074   1.804   5.598   6.361  0.0388  0.2049  0.1775
  191SLPC   C2122075   1.809   5.690   6.454 -0.0091  0.3067 -0.9167
  191SLPC   O2222076   1.881   5.788   6.461  0.3658 -0.4443  0.3347
  191SLPC   C2222077   1.708   5.651   6.566  0.4668  0.1177 -0.3284
  191SLPC   H2R22078   1.606   5.643   6.522  0.5533 -0.6612 -0.4038
  191SLPC   H2S22079   1.725   5.547   6.601 -0.5790 -0.5368 -1.6571
  191SLPC    C322080   1.789   5.680   6.126  0.3545  0.2361 -0.0349
  191SLPC    HX22081   1.702   5.613   6.111 -0.1668  0.1365  2.9012
  191SLPC    HY22082   1.857   5.660   6.040  2.9554 -0.5246  2.0880
  191SLPC   O3122083   1.773   5.821   6.132  0.1831  0.2395  0.2852
  191SLPC   C3122084   1.651   5.844   6.188 -0.5103 -0.3748  0.5569
  191SLPC   O3222085   1.578   5.759   6.242 -0.1244  0.0970  0.2062
  191SLPC   C3222086   1.617   5.991   6.159  0.4763 -0.1173 -0.3877
  191SLPC   H2X22087   1.580   6.006   6.055  0.1412 -1.5220 -0.5009
  191SLPC   H2Y22088   1.714   6.045   6.158  0.9183 -0.8582  0.7560
  191SLPC   C2322089   1.723   5.743   6.694  0.2995 -1.0084  0.6933
  191SLPC   H3R22090   1.708   5.852   6.681  1.7517 -0.7260  1.2378
  191SLPC   H3S22091   1.826   5.715   6.726  0.6170 -0.0701  0.5200
  191SLPC   C2422092   1.637   5.688   6.804  0.5204 -0.4380 -0.1813
  191SLPC   H4R22093   1.662   5.581   6.819  2.0283 -0.0261  0.4575
  191SLPC   H4S22094   1.531   5.691   6.771  1.0118 -2.6200 -2.1684
  191SLPC   C2522095   1.666   5.755   6.937  0.8176 -0.3638  0.2144
  191SLPC   H5R22096   1.652   5.865   6.944  1.3270 -0.2355 -0.7299
  191SLPC   H5S22097   1.764   5.716   6.973 -0.1420 -1.4097  1.8670
  191SLPC   C2622098   1.555   5.705   7.026  0.1056  0.1210  0.7345
  191SLPC   H6R22099   1.561   5.599   7.058 -1.4332 -0.0344  0.5612
  191SLPC   H6S22100   1.459   5.717   6.972 -1.0799 -0.9209  2.5147
  191SLPC   C2722101   1.547   5.795   7.148 -0.9555  0.5610 -0.5491
  191SLPC   H7R22102   1.466   5.759   7.215  1.1020  1.3634  2.5959
  191SLPC   H7S22103   1.530   5.900   7.114  4.1065  1.3684 -1.3769
  191SLPC   C2822104   1.677   5.801   7.239  0.7257 -0.1204 -0.6266
  191SLPC   H8R22105   1.665   5.890   7.305  0.2839  0.0238 -0.8995
  191SLPC   H8S22106   1.770   5.814   7.180  0.3550 -1.7817 -1.6426
  191SLPC   C2922107   1.693   5.678   7.321 -0.3524 -0.2648  0.0804
  191SLPC   H9R22108   1.755   5.601   7.273 -0.8157 -1.3275  1.1525
  191SLPC  C21022109   1.640   5.654   7.443  0.6782 -0.4122  0.3926
  191SLPC  H10R22110   1.678   5.564   7.494  0.2928 -1.7093 -1.4805
  191SLPC  C21122111   1.552   5.738   7.528  0.3368 -0.8033 -0.5134
  191SLPC  H11R22112   1.552   5.845   7.499 -0.5334  0.5692  3.8302
  191SLPC  H11S22113   1.597   5.736   7.629  0.1658  0.1785 -0.4054
  191SLPC  C21222114   1.399   5.700   7.519 -0.3067 -1.3493 -0.3957
  191SLPC  H12R22115   1.356   5.697   7.418 -0.0405  1.4016 -0.6616
  191SLPC  C21322116   1.316   5.670   7.620  0.8253  0.2729 -0.2650
  191SLPC  H13R22117   1.211   5.655   7.591  0.7324 -0.4286  0.4090
  191SLPC  C21422118   1.335   5.697   7.765 -0.0667 -0.6911 -1.1687
  191SLPC  H14R22119   1.431   5.748   7.789 -1.7032  2.0132  0.1828
  191SLPC  H14S22120   1.343   5.604   7.824 -0.7904  1.6452  2.9842
  191SLPC  C21522121   1.219   5.789   7.812 -0.7764  0.2343  0.1597
  191SLPC  H15R22122   1.120   5.745   7.784 -1.5958  2.2495 -0.2928
  191SLPC  H15S22123   1.217   5.890   7.766  1.3739  1.3535  2.3342
  191SLPC  C21622124   1.235   5.821   7.964 -0.5639 -0.7224  1.2545
  191SLPC  H16R22125   1.342   5.843   7.979 -0.7448  0.1543  1.3329
  191SLPC  H16S22126   1.214   5.730   8.023 -0.1252 -2.4748 -1.1389
  191SLPC  C21722127   1.163   5.943   8.010  0.0979 -0.8963 -0.5775
  191SLPC  H17R22128   1.059   5.951   7.971  0.5718  1.1306 -1.5280
  191SLPC  H17S22129   1.205   6.031   7.958  1.1746 -0.0137  1.6517
  191SLPC  C21822130   1.182   5.973   8.160  0.2622 -1.1973 -0.2267
  191SLPC  H18R22131   1.283   6.003   8.195 -0.9586  2.1292  0.9109
  191SLPC  H18S22132   1.141   5.889   8.219  0.7809 -3.2383 -2.6076
  191SLPC  H18T22133   1.132   6.068   8.188  0.9443 -1.5038  2.2660
  191SLPC   C3322134   1.536   6.063   6.266  0.2586  0.1726 -0.3197
  191SLPC   H3X22135   1.431   6.025   6.268  0.1959  0.3634  1.0241
  191SLPC   H3Y22136   1.536   6.165   6.222  0.1709 -0.3461 -1.5455
  191SLPC   C3422137   1.587   6.059   6.414  0.2834  0.0857  0.1495
  191SLPC   H4X22138   1.678   6.123   6.413  0.9157 -0.8040 -0.1600
  191SLPC   H4Y22139   1.625   5.963   6.454  3.3227  2.1318  2.7434
  191SLPC   C3522140   1.486   6.112   6.516  0.2008  0.1114 -0.1386
  191SLPC   H5X22141   1.393   6.054   6.530 -1.7594  3.4289  1.9896
  191SLPC   H5Y22142   1.448   6.202   6.463  0.7532 -0.2562 -1.1910
  191SLPC   C3622143   1.557   6.144   6.653 -0.5352 -0.3753  0.2182
  191SLPC   H6X22144   1.626   6.230   6.654  1.1883 -1.6697  2.8378
  191SLPC   H6Y22145   1.629   6.059   6.656  2.3800  1.8218 -1.7677
  191SLPC   C3722146   1.460   6.156   6.766  0.3781 -1.1732  0.1510
  191SLPC   H7X22147   1.400   6.063   6.774  2.3484 -2.5080  0.2141
  191SLPC   H7Y22148   1.400   6.248   6.748  2.0911 -0.1046 -0.3478
  191SLPC   C3822149   1.527   6.182   6.896  0.2019  0.2147  0.4667
  191SLPC   H8X22150   1.565   6.287   6.893  0.3514  0.1468 -0.2257
  191SLPC   H8Y22151   1.620   6.127   6.921  0.8948  2.1265  2.4229
  191SLPC   C3922152   1.427   6.175   7.020  0.0120  0.0560 -0.1857
  191SLPC   H9X22153   1.480   6.200   7.115  1.5798  1.6182 -1.3935
  191SLPC   H9Y22154   1.376   6.077   7.032  0.9369 -0.1181  3.3038
  191SLPC  C31022155   1.302   6.271   7.004 -0.5082  0.1489 -0.1585
  191SLPC  H10X22156   1.236   6.245   7.089 -2.9865 -0.1445 -2.0608
  191SLPC  H10Y22157   1.240   6.238   6.917  3.3025 -0.9539 -2.7053
  191SLPC  C31122158   1.341   6.417   6.989  0.3078  0.2224  0.4891
  191SLPC  H11X22159   1.244   6.456   6.952  0.8708  0.6775 -0.5365
  191SLPC  H11Y22160   1.421   6.434   6.914 -1.9929  2.7547 -1.6085
  191SLPC  C31222161   1.387   6.488   7.123 -0.6420 -1.1236  0.7535
  191SLPC  H12X22162   1.490   6.455   7.149 -1.1833 -2.9209  0.7446
  191SLPC  H12Y22163   1.322   6.457   7.207 -1.9701 -2.4107 -0.6912
  191SLPC  C31322164   1.383   6.645   7.110 -0.6379  0.1935 -0.7146
  191SLPC  H13X22165   1.278   6.676   7.089 -2.3803 -4.8562 -0.7395
  191SLPC  H13Y22166   1.457   6.671   7.031  1.8660  0.5153  1.5757
  191SLPC  C31422167   1.450   6.714   7.233  0.2263 -0.2229  0.4582
  191SLPC  H14X22168   1.462   6.822   7.211  1.4741 -0.6285 -0.9937
  191SLPC  H14Y22169   1.547   6.672   7.266  0.8441 -1.2930 -2.3991
  191SLPC  C31522170   1.360   6.701   7.357 -0.3487 -0.0279  0.4924
  191SLPC  H15X22171   1.321   6.599   7.378 -0.9644  0.2835  0.8710
  191SLPC  H15Y22172   1.275   6.771   7.349 -0.5340 -0.1617  1.1952
  191SLPC  C31622173   1.433   6.739   7.480  0.1802  0.0306 -0.7358
  191SLPC  H16X22174   1.483   6.834   7.451  0.3567  0.4390  0.8519
  191SLPC  H16Y22175   1.506   6.664   7.515  1.6336  2.4330  1.7782
  191SLPC  C31722176   1.341   6.773   7.592  0.2713 -0.3979 -0.3654
  191SLPC  H17X22177   1.244   6.810   7.552  0.3527  0.5209  0.2547
  191SLPC  H17Y22178   1.380   6.853   7.658  2.9358 -2.0404  0.2234
  191SLPC  C31822179   1.307   6.650   7.675 -0.1691  0.3498 -0.1498
  191SLPC  H18X22180   1.248   6.689   7.761  1.1512  0.1348  0.8954
  191SLPC  H18Y22181   1.399   6.608   7.721 -0.6122 -0.3223  0.1372
  191SLPC  H18Z22182   1.264   6.575   7.606  1.4675  2.3563 -3.6124
  192SLPC     N22183   4.161   5.319   6.354 -1.1065 -0.2548  0.4411
  192SLPC   C1322184   4.257   5.213   6.392  0.1149  0.1256  0.2814
  192SLPC  H13A22185   4.210   5.116   6.398 -1.2089  0.4237 -3.0334
  192SLPC  H13B22186   4.342   5.201   6.326 -0.3383 -2.8884  0.0949
  192SLPC  H13C22187   4.307   5.237   6.484  0.3847 -2.2070  0.7890
  192SLPC   C1422188   4.052   5.325   6.459  0.3954 -0.4697 -0.1540
  192SLPC  H14A22189   4.097   5.341   6.556 -0.3225  1.5408 -0.1056
  192SLPC  H14B22190   3.989   5.412   6.446 -1.3982 -1.9925 -2.7008
  192SLPC  H14C22191   3.993   5.235   6.469  0.9514 -0.8554 -0.3366
  192SLPC   C1522192   4.100   5.300   6.218 -0.3365  0.2336  0.7130
  192SLPC  H15A22193   4.018   5.367   6.195 -2.5826 -2.0641  1.5361
  192SLPC  H15B22194   4.171   5.311   6.138 -0.7925 -0.3133  0.2253
  192SLPC  H15C22195   4.052   5.204   6.201 -1.0451  0.4783  1.2543
  192SLPC   C1222196   4.222   5.456   6.360  0.6671 -0.0510  0.4437
  192SLPC  H12A22197   4.243   5.477   6.463 -0.0958 -2.7101  1.2380
  192SLPC  H12B22198   4.149   5.528   6.326 -0.0661 -0.0053  2.0524
  192SLPC   C1122199   4.348   5.484   6.282  1.2553 -0.0586  0.5551
  192SLPC  H11A22200   4.377   5.591   6.281  0.0471  0.2908 -1.1860
  192SLPC  H11B22201   4.313   5.464   6.179 -1.4593  0.5310  1.2838
  192SLPC     P22202   4.564   5.453   6.415 -0.0019  0.1936 -0.0820
  192SLPC   O1322203   4.595   5.336   6.498 -0.5706  0.3703 -0.1961
  192SLPC   O1422204   4.667   5.517   6.337 -0.1370  0.1033  0.1651
  192SLPC   O1222205   4.457   5.402   6.304  0.4684  0.3926 -0.8898
  192SLPC   O1122206   4.477   5.558   6.495 -0.3514 -0.1871 -0.2691
  192SLPC    C122207   4.529   5.689   6.513 -0.5749  0.2113  0.0646
  192SLPC    HA22208   4.640   5.682   6.523 -0.4028  0.4225 -1.5028
  192SLPC    HB22209   4.500   5.767   6.440 -2.3664 -1.7660 -1.4547
  192SLPC    C222210   4.478   5.745   6.651  0.4022 -0.5004  0.4049
  192SLPC    HS22211   4.541   5.835   6.669 -0.9463  1.0449 -1.9927
  192SLPC   O2122212   4.481   5.647   6.750 -0.0308 -0.0388  0.0281
  192SLPC   C2122213   4.606   5.601   6.778  0.1074  0.2901 -0.5556
  192SLPC   O2222214   4.709   5.652   6.740 -0.2961 -0.3149  0.3435
  192SLPC   C2222215   4.594   5.486   6.879  0.1816 -0.0217 -0.0145
  192SLPC   H2R22216   4.503   5.516   6.934  0.4141 -0.1427  0.4428
  192SLPC   H2S22217   4.575   5.401   6.810  1.2424  0.1532 -0.5504
  192SLPC    C322218   4.330   5.785   6.646  0.3638  0.2323  0.4544
  192SLPC    HX22219   4.273   5.697   6.611  1.5892 -0.3656 -0.0857
  192SLPC    HY22220   4.313   5.864   6.570 -0.0719 -1.7261 -1.5649
  192SLPC   O3122221   4.279   5.828   6.777  0.1907 -0.0162  0.8193
  192SLPC   C3122222   4.224   5.728   6.842  0.0826  0.5622  0.4690
  192SLPC   O3222223   4.184   5.621   6.795 -0.2150 -0.5927 -0.2141
  192SLPC   C3222224   4.215   5.758   6.990 -0.2216 -0.3305 -0.2223
  192SLPC   H2X22225   4.286   5.843   7.005  1.0832 -1.4898  0.2941
  192SLPC   H2Y22226   4.250   5.668   7.044 -0.1468  0.9948  2.0830
  192SLPC   C2322227   4.731   5.468   6.958 -0.2631  0.9562  0.6763
  192SLPC   H3R22228   4.774   5.570   6.974  2.4301 -0.1653  1.1622
  192SLPC   H3S22229   4.816   5.427   6.899 -1.5311 -1.6067  0.4985
  192SLPC   C2422230   4.709   5.387   7.091  0.1646 -0.0703 -0.4265
  192SLPC   H4R22231   4.623   5.432   7.146  0.8730 -0.5271  1.1215
  192SLPC   H4S22232   4.797   5.398   7.158 -1.8492  0.7317  2.3224
  192SLPC   C2522233   4.672   5.242   7.058  0.6164  0.2241 -0.2593
  192SLPC   H5R22234   4.761   5.199   7.007  1.3697 -0.5130  1.5802
  192SLPC   H5S22235   4.585   5.246   6.990 -1.3594  0.3939  2.1269
  192SLPC   C2622236   4.637   5.153   7.178 -0.3761  0.2822 -0.1710
  192SLPC   H6R22237   4.641   5.048   7.142 -0.2039  0.0264  0.5694
  192SLPC   H6S22238   4.535   5.185   7.206 -0.1046  0.6959  0.3594
  192SLPC   C2722239   4.725   5.170   7.299 -0.4249  0.5188 -0.7609
  192SLPC   H7R22240   4.725   5.275   7.338 -2.3812 -0.3441  1.9222
  192SLPC   H7S22241   4.829   5.161   7.262  0.4514 -0.9681  1.7785
  192SLPC   C2822242   4.692   5.084   7.421  0.1325 -0.3268 -0.2817
  192SLPC   H8R22243   4.586   5.099   7.451  0.5038  0.8697  0.5301
  192SLPC   H8S22244   4.751   5.124   7.506  1.9076  0.1719 -1.6826
  192SLPC   C2922245   4.718   4.938   7.406  0.2163  0.1091 -0.4377
  192SLPC   H9R22246   4.708   4.888   7.308  0.0241 -1.0735  0.1731
  192SLPC  C21022247   4.741   4.851   7.511  0.2077  0.3464  0.2399
  192SLPC  H10R22248   4.777   4.749   7.488  2.6104  1.2052 -0.1585
  192SLPC  C21122249   4.752   4.895   7.655  0.1795  0.4930 -0.4674
  192SLPC  H11R22250   4.712   4.809   7.715 -1.4092  1.1692 -0.5016
  192SLPC  H11S22251   4.682   4.980   7.667 -0.3999  0.2889 -2.1313
  192SLPC  C21222252   4.893   4.927   7.709  0.4265 -0.7369 -0.4098
  192SLPC  H12R22253   4.961   4.949   7.625  0.4387 -0.4541 -0.3254
  192SLPC  C21322254   4.925   4.940   7.841 -0.6760  0.1080 -0.2919
  192SLPC  H13R22255   5.013   4.996   7.875  0.4274 -0.9759 -1.2874
  192SLPC  C21422256   4.822   4.923   7.953  0.1698 -0.0894 -0.1766
  192SLPC  H14R22257   4.753   4.839   7.929 -0.2458  0.3274 -0.4588
  192SLPC  H14S22258   4.762   5.017   7.952 -0.6708 -0.5908  1.0361
  192SLPC  C21522259   4.868   4.903   8.096  0.6703 -1.4693 -0.0935
  192SLPC  H15R22260   4.954   4.833   8.099  1.3661 -0.6866 -0.9835
  192SLPC  H15S22261   4.788   4.867   8.165 -0.8926  1.6149 -0.1161
  192SLPC  C21622262   4.916   5.035   8.164  0.0895  0.1787  0.6143
  192SLPC  H16R22263   4.832   5.106   8.155  0.2589  0.9503  3.8783
  192SLPC  H16S22264   4.994   5.074   8.094 -0.7807  2.0674  0.6443
  192SLPC  C21722265   4.979   5.009   8.302  0.2311 -0.2361 -0.4857
  192SLPC  H17R22266   4.946   4.910   8.341 -0.0208 -0.0884 -0.3181
  192SLPC  H17S22267   5.090   5.005   8.301  0.2345 -0.2433 -1.6888
  192SLPC  C21822268   4.915   5.109   8.405 -0.0659 -0.0673 -0.3981
  192SLPC  H18R22269   4.911   5.214   8.369 -0.8332  1.4407  3.4954
  192SLPC  H18S22270   4.968   5.110   8.503  1.0954  0.1182 -1.0228
  192SLPC  H18T22271   4.807   5.087   8.420 -0.8564  3.0999 -0.6949
  192SLPC   C3322272   4.072   5.807   7.034  0.3465  0.1270 -0.4265
  192SLPC   H3X22273   4.003   5.723   7.016 -0.0932  0.8213 -2.1487
  192SLPC   H3Y22274   4.027   5.882   6.966  0.7671 -1.4087 -2.4998
  192SLPC   C3422275   4.075   5.843   7.182 -0.0390  0.3592 -0.2938
  192SLPC   H4X22276   4.151   5.920   7.206  0.1993 -0.0596  0.3123
  192SLPC   H4Y22277   4.106   5.754   7.242  0.8324 -0.2762 -1.6431
  192SLPC   C3522278   3.941   5.889   7.236  0.1463  0.1796  0.1471
  192SLPC   H5X22279   3.874   5.801   7.226 -1.1080  1.1625 -0.4333
  192SLPC   H5Y22280   3.900   5.964   7.165  0.2416 -0.6766 -0.8288
  192SLPC   C3622281   3.924   5.952   7.377  0.0643  0.5462  0.0177
  192SLPC   H6X22282   3.989   6.041   7.387  0.6717  0.1704 -0.4584
  192SLPC   H6Y22283   3.966   5.871   7.439  1.3817  0.3104 -1.1268
  192SLPC   C3722284   3.773   5.963   7.431 -0.0421  0.7697 -0.1955
  192SLPC   H7X22285   3.729   5.866   7.462  0.3677  0.4343 -0.6544
  192SLPC   H7Y22286   3.712   6.007   7.349 -0.4262 -0.8026 -0.7941
  192SLPC   C3822287   3.761   6.045   7.556  0.1415 -0.7253  0.7401
  192SLPC   H8X22288   3.653   6.052   7.581 -0.2666 -0.0486 -1.0645
  192SLPC   H8Y22289   3.806   6.145   7.537 -1.7283 -0.1826 -1.1897
  192SLPC   C3922290   3.823   5.967   7.678  0.1131 -0.1738 -0.1739
  192SLPC   H9X22291   3.932   5.951   7.659  0.4497  1.6702  0.0614
  192SLPC   H9Y22292   3.769   5.872   7.697  0.6992 -0.8421 -1.6511
  192SLPC  C31022293   3.811   6.049   7.808  0.0262  0.6695 -0.5045
  192SLPC  H10X22294   3.716   6.105   7.810 -0.1127  0.4373 -0.5497
  192SLPC  H10Y22295   3.883   6.132   7.797  1.8275 -0.6441  0.7607
  192SLPC  C31122296   3.848   5.955   7.929 -0.2210 -0.0228  0.0153
  192SLPC  H11X22297   3.956   5.933   7.922  0.2059  1.6011  0.8589
  192SLPC  H11Y22298   3.788   5.861   7.932 -1.3588  0.6783 -0.0261
  192SLPC  C31222299   3.828   6.028   8.070  0.3886 -1.0026  0.6363
  192SLPC  H12X22300   3.717   6.025   8.075  0.2987 -2.0342 -1.2987
  192SLPC  H12Y22301   3.874   6.129   8.062  0.3392 -0.9065  1.4568
  192SLPC  C31322302   3.884   5.943   8.185 -0.4735 -0.3055 -0.0787
  192SLPC  H13X22303   3.995   5.948   8.185 -0.3457 -2.2707 -0.5293
  192SLPC  H13Y22304   3.859   5.836   8.170 -0.9775 -0.5264  2.0347
  192SLPC  C31422305   3.837   6.003   8.314  0.1565  0.0588 -0.5542
  192SLPC  H14X22306   3.858   5.926   8.391  1.5096  0.6443 -0.3084
  192SLPC  H14Y22307   3.727   6.013   8.310  0.0226 -1.2838 -0.9467
  192SLPC  C31522308   3.896   6.142   8.355 -0.7487 -0.0471  0.2905
  192SLPC  H15X22309   3.856   6.230   8.300 -3.2597 -1.4025 -0.1884
  192SLPC  H15Y22310   4.005   6.145   8.334 -0.6213 -2.1019  0.4757
  192SLPC  C31622311   3.879   6.177   8.496  0.0682  0.0024  0.4094
  192SLPC  H16X22312   3.931   6.100   8.556  0.6470  0.4786  0.5203
  192SLPC  H16Y22313   3.768   6.188   8.504  0.0922  2.6827 -1.5031
  192SLPC  C31722314   3.938   6.313   8.536 -0.5709  0.1610 -0.3077
  192SLPC  H17X22315   3.902   6.404   8.484 -2.0429  0.2885  0.8607
  192SLPC  H17Y22316   4.047   6.315   8.515 -0.4601  1.2462  0.2770
  192SLPC  C31822317   3.952   6.341   8.692  0.2864 -0.0728 -0.3257
  192SLPC  H18X22318   4.015   6.265   8.742  0.7668  1.6344  1.8230
  192SLPC  H18Y22319   3.850   6.352   8.736 -0.5765 -2.0517 -1.6788
  192SLPC  H18Z22320   4.014   6.432   8.706 -0.1950  0.1891  0.1723
  193SOD    SOD22321   5.805   2.558   5.462 -0.3135 -0.0118  0.4727
  194SOD    SOD22322   1.468   5.657  16.056  0.3218  0.5452 -0.5788
  195SOD    SOD22323   5.623   0.162   1.511 -0.1458 -0.3925  0.3352
  196SOD    SOD22324   4.062   5.932   2.514 -0.4715 -0.2679  0.2570
  197SOD    SOD22325   4.540   5.737  13.576  0.0695  0.0008  0.1755
  198SOD    SOD22326   4.951   1.499  11.897  0.0220  0.2821 -0.2188
  199SOD    SOD22327   2.992   0.981  12.332 -0.7236 -0.0338  0.2775
  200SOD    SOD22328   3.870   5.722  13.619 -0.1707  0.2117 -0.3386
  201SOD    SOD22329   1.749   2.401  11.685 -0.3373 -0.3871  0.3765
  202SOD    SOD22330   2.413   3.969  11.935 -0.3170  0.4629 -0.0824
  203SOD    SOD22331   4.562   2.419   6.458 -0.5101 -0.1522  0.0142
  204SOD    SOD22332   1.564   0.563   4.303  0.1908 -0.4366  0.3151
  205SOD    SOD22333   4.696   1.748   2.857 -0.3606 -0.3831  0.2425
  206SOD    SOD22334   5.681   4.468  16.385 -0.2087  0.3351 -0.1730
  207SOD    SOD22335   4.606   6.668  11.236  0.2415  0.4162 -0.1453
  208SOD    SOD22336   5.764   2.245  14.165  0.0031 -0.1370 -0.2382
  209SOD    SOD22337   1.719   4.116  13.833  0.5622 -0.2054  0.0650
  210SOD    SOD22338   3.226   1.177   6.041 -0.0349  0.7311  0.3245
  211SOD    SOD22339   4.436   1.884   2.005  0.1700 -0.2995 -0.0329
  212SOD    SOD22340   1.965   3.464  16.684 -0.2649  0.3123  0.3122
  213SOD    SOD22341   0.846   1.779   4.640 -0.0994  0.3509 -0.2046
  214SOD    SOD22342   6.691   0.748  16.533  0.2552  0.8105  0.0437
  215SOD    SOD22343   4.300   0.564   5.422 -0.2099  0.1914 -0.2558
  216SOD    SOD22344   0.969   6.818  11.794  0.3783 -0.3667  0.2950
  217SOD    SOD22345   2.722   0.611   2.852 -0.5434 -0.2593  0.0606
  218SOD    SOD22346   1.777   0.680  10.886  0.5050 -0.1376 -0.0654
  219SOD    SOD22347   5.441   2.809   0.034 -0.2741 -0.2189 -0.2632
  220SOD    SOD22348   0.240   6.804   4.937  0.4682 -0.1993 -0.3162
  221SOD    SOD22349   4.379   2.563   3.936 -0.4608 -0.1473  0.3002
  222SOD    SOD22350   0.153   0.868  12.450  0.0281 -0.2202  0.1686
  223SOD    SOD22351   5.257   5.356  12.948 -0.3559  0.1780  0.1143
  224SOD    SOD22352   5.341   4.568  11.453 -0.5833  0.1751  0.2970
  225SOD    SOD22353   0.584   5.977  16.014  0.3152  0.1496  0.2065
  226SOD    SOD22354   1.938   6.739  11.395  0.3131 -0.5791  0.2697
  227SOD    SOD22355   3.243   5.822   2.487 -0.1368  0.2324 -0.1649
  228SOD    SOD22356   0.987   1.561  16.430 -0.0596  0.2341  0.2170
  229SOD    SOD22357   2.217   4.148   0.568 -0.2690 -0.2824 -0.4135
  230SOD    SOD22358   2.100   3.058  17.182 -0.0390 -0.2956  0.1523
  231SOD    SOD22359   5.807   0.055  15.107  0.4180  0.2665 -0.1560
  232SOD    SOD22360   2.977   4.022  15.728 -0.1430  0.1399  0.2779
  233SOD    SOD22361   0.344   0.601  13.802 -0.1581  0.0447 -0.1238
  234SOD    SOD22362   1.343   2.998  15.469 -0.6478 -0.5371  0.5265
  235SOD    SOD22363   5.454   1.478   3.783  0.4074  0.1039  0.0713
  236SOD    SOD22364   2.080   3.660  13.923  0.0978  0.7372 -0.0771
  237SOD    SOD22365   3.285   5.857   5.569 -0.3939 -0.4113 -0.4801
  238SOD    SOD22366   6.738   2.475   6.215  0.4561 -0.2455 -0.1792
  239SOD    SOD22367   0.626   6.650  15.115  0.0585 -0.2083  0.3131
  240SOD    SOD22368   6.117   4.002   3.670  0.3676 -0.1123 -0.3285
  241SOD    SOD22369   3.715   2.328  13.867  0.0650  0.4413 -0.3532
  242SOD    SOD22370   1.379   3.995   6.160  0.4073 -0.1946  0.3211
  243SOD    SOD22371   6.077   1.862   0.106  0.1859 -0.3645 -0.2090
  244SOD    SOD22372   5.510   4.098   0.515 -0.2104 -0.6452  0.2385
  245SOD    SOD22373   6.031   1.301   4.802  0.3723 -0.1872 -0.2887
  246SOD    SOD22374   2.272   3.053  15.742  0.0103 -0.1598  0.1452
  247SOD    SOD22375   5.783   4.497  14.935 -0.5677  0.0558 -0.3429
  248SOD    SOD22376   1.122   1.647   0.504  0.1751 -0.1214 -0.0359
  249SOD    SOD22377   0.836   0.342   4.532 -0.1443 -0.1471 -0.6445
  250SOD    SOD22378   3.643   1.836   0.226  0.4587  0.0513  0.6475
  251SOD    SOD22379   6.502   5.525   5.394 -0.1153  0.3227 -0.6886
  252SOD    SOD22380   4.248   0.876   6.745 -0.1034  0.6982  0.0976
  253SOD    SOD22381   1.861   0.286  14.423  0.1413 -0.1630 -0.1230
  254SOD    SOD22382   4.281   5.070  13.144 -0.2205  0.1976 -0.4469
  255SOD    SOD22383   0.505   4.977   3.072 -0.3577  0.5789 -0.3046
  256SOD    SOD22384   3.897   4.727  13.660 -0.1223  0.2132  0.2512
  257SOD    SOD22385   0.860   2.005   0.066 -0.1722 -0.2261 -0.3133
  258SOD    SOD22386   2.748   5.137   6.113 -0.0755  0.1595  0.0680
  259SOD    SOD22387   2.056   6.530   3.329  0.8395 -0.5302 -0.0510
  260SOD    SOD22388   4.433   5.632  10.663 -0.2211  0.1077 -0.2904
  261SOD    SOD22389   5.613   0.088   4.408  0.3284 -0.1047  0.4698
  262SOD    SOD22390   6.282   5.570  14.113 -0.6007  0.4745  0.1136
  263SOD    SOD22391   5.417   4.797   4.634  0.2482 -0.1728  0.1239
  264SOD    SOD22392   4.147   5.093   3.314  0.6693  0.1921  0.1191
  265SOD    SOD22393   1.410   0.214   1.317 -0.7107  0.2358 -0.0760
  266CLA    CLA22394   4.694   3.167  15.617  0.0734 -0.2252  0.5095
  267CLA    CLA22395   1.488   5.263  11.444 -0.0344  0.1422  0.2667
  268CLA    CLA22396   4.472   5.526  13.411 -0.5608 -0.0085  0.0632
  269CLA    CLA22397   6.689   3.526   0.511 -0.0493 -0.0303  0.1636
  270CLA    CLA22398   1.937   3.354  15.828  0.2253  0.1493  0.1294
  271CLA    CLA22399   3.461   5.837   1.455 -0.1070  0.5138 -0.3957
  272CLA    CLA22400   4.744   1.530   4.216 -0.0690 -0.2005  0.3526
  273CLA    CLA22401   0.140   2.226  13.907  0.3231 -0.4550 -0.4641
  274CLA    CLA22402   0.677   4.581   4.063  0.0162 -0.3296  0.4785
  275CLA    CLA22403   5.546   6.346  15.403  0.3176 -0.2675 -0.2507
  276CLA    CLA22404   1.578   1.159   1.541 -0.5225  0.1823 -0.3416
  277CLA    CLA22405   2.367   1.029  12.927  0.1164 -0.2802 -0.1996
  278CLA    CLA22406   1.288   1.278   0.249  0.4534  0.0103 -0.4493
  279CLA    CLA22407   6.361   3.091  17.139  0.2666  0.0356  0.0542
  280CLA    CLA22408   1.084   6.608   3.951  0.1539 -0.0922 -0.0443
  281CLA    CLA22409   2.986   3.082   2.428  0.2225 -0.0773 -0.5732
  282CLA    CLA22410   4.393   1.871   4.680  0.3352 -0.0005 -0.0946
  283CLA    CLA22411   5.088   3.706   2.180 -0.1889 -0.4579 -0.3980
  284CLA    CLA22412   0.252   2.363  16.797 -0.3774 -0.2591  0.3281
  285CLA    CLA22413   1.156   4.720   1.750  0.5816 -0.2829 -0.1948
  286CLA    CLA22414   0.954   6.204   1.823 -0.0046  0.4906 -0.2437
  287CLA    CLA22415   0.126   4.717  13.668  0.1533 -0.3462  0.1877
  288CLA    CLA22416   0.293   1.165   0.227 -0.0668 -0.2471 -0.1941
  289CLA    CLA22417   6.323   6.714   0.817  0.0435 -0.2238 -0.3599
  290CLA    CLA22418   3.106   0.250  15.277 -0.2066 -0.0756  0.5213
  291CLA    CLA22419   0.429   2.462   3.287 -0.0221  0.0664 -0.0426
  292CLA    CLA22420   2.972   0.307   3.485 -0.1232  0.2819  0.3674
  293CLA    CLA22421   3.972   2.750   4.490 -0.2366 -0.1538  0.0722
  294CLA    CLA22422   1.491   0.942   4.855 -0.2816 -0.1252  0.3234
  295CLA    CLA22423   5.997   1.000  12.440  0.0166  0.1578  0.0952
  296CLA    CLA22424   4.099   3.301  16.495  0.1061  0.1453  0.2327
  297CLA    CLA22425   6.584   6.378  15.249  0.1951 -0.3350  0.3933
  298CLA    CLA22426   4.397   6.147   5.597  0.0871  0.2774 -0.0877
  299CLA    CLA22427   4.900   1.586  15.835 -0.0658 -0.3934  0.0273
  300CLA    CLA22428   5.330   2.851   2.568  0.0922 -0.4156 -0.3055
  301CLA    CLA22429   3.045   1.082  14.347  0.4279 -0.3286 -0.0996
  302CLA    CLA22430   6.316   6.085  16.317  0.4130 -0.0763  0.1379
  303CLA    CLA22431   5.595   6.479  13.193  0.0263  0.1430 -0.1578
  304CLA    CLA22432   3.876   0.481  13.115  0.0503 -0.1376 -0.2619
  305CLA    CLA22433   3.208   0.594  13.217  0.2176 -0.3719 -0.2368
  306CLA    CLA22434   6.195   5.571   4.734  0.2605 -0.2662 -0.5637
  307CLA    CLA22435   3.871   1.986   6.024 -0.0490 -0.3983  0.1274
  308CLA    CLA22436   5.095   0.294   1.953 -0.3643  0.0281  0.1237
  309CLA    CLA22437   5.927   6.497   1.100  0.1500 -0.6012 -0.0940
  310CLA    CLA22438   1.496   5.918  11.450  0.0084  0.2024  0.1465
  311CLA    CLA22439   3.648   2.356  12.177  0.0262 -0.5288  0.3056
  312CLA    CLA22440   6.464   4.721  16.179 -0.2556 -0.1915  0.0059
  313CLA    CLA22441   0.438   5.035  14.355  0.3069  0.4228 -0.2301
  314CLA    CLA22442   1.609   2.967  17.109 -0.6020  0.1475 -0.5300
  315CLA    CLA22443   1.885   2.942  16.737 -0.6720  0.0304  0.4870
  316CLA    CLA22444   2.350   3.670   1.217 -0.1809  0.1830 -0.4643
  317CLA    CLA22445   3.004   2.289  15.067  0.1028  0.2162  0.3640
  318CLA    CLA22446   2.664   1.178   0.802  0.3050  0.2075  0.5293
  319TIP3   OH222447   0.584   0.423   3.320  0.4672 -0.0448 -0.4174
  319TIP3    H122448   0.574   0.329   3.305 -1.2194  0.0088  0.1760
  319TIP3    H222449   0.550   0.437   3.409  1.3887  1.0321 -0.2090
  320TIP3   OH222450   0.593   1.935  16.204  0.0239  0.5683 -0.5043
  320TIP3    H122451   0.640   2.018  16.211 -1.6278  1.5451 -0.4253
  320TIP3    H222452   0.503   1.956  16.228 -0.3574 -1.3496 -0.0857
  321TIP3   OH222453   2.218   0.841   0.535  0.0978  0.0356  0.6629
  321TIP3    H122454   2.306   0.820   0.504  0.5341 -0.1128  1.9526
  321TIP3    H222455   2.231   0.906   0.603 -0.8649  0.6332  0.2980
  322TIP3   OH222456   3.848   4.484  17.086  0.1615 -0.2117 -0.4680
  322TIP3    H122457   3.879   4.574  17.077 -0.0525 -0.1630 -0.7389
  322TIP3    H222458   3.926   4.434  17.109  0.3204  0.0115 -0.5153
  323TIP3   OH222459   3.680   0.529  11.847 -0.6197  0.3652 -0.1773
  323TIP3    H122460   3.691   0.540  11.942  1.0228  1.1185 -0.4154
  323TIP3    H222461   3.679   0.435  11.834 -0.5352  0.2528  0.5665
  324TIP3   OH222462   5.722   1.978  15.608  0.0927  0.7125 -0.0701
  324TIP3    H122463   5.816   1.962  15.597 -0.1188  0.0112 -0.8679
  324TIP3    H222464   5.693   1.913  15.672  0.2511  1.3192  0.6441
  325TIP3   OH222465   3.294   4.793  17.277 -0.5423  0.5269 -0.2332
  325TIP3    H122466   3.207   4.753  17.266 -0.0148 -0.9225  0.6128
  325TIP3    H222467   3.329   4.799  17.188 -1.1944  0.4148 -0.5058
  326TIP3   OH222468   6.561   4.835  13.290 -0.1257 -0.0807  0.3757
  326TIP3    H122469   6.609   4.816  13.371 -0.1587 -0.9146  0.2028
  326TIP3    H222470   6.553   4.751  13.246  1.2209  0.5910 -1.2548
  327TIP3   OH222471   1.191   1.729  12.282  0.7035 -0.6182  0.8760
  327TIP3    H122472   1.244   1.698  12.208  1.3432 -1.1504  1.5438
  327TIP3    H222473   1.113   1.673  12.280 -0.6603  1.1816 -1.0638
  328TIP3   OH222474   6.769   1.587  11.554  0.2024 -0.4189  0.1801
  328TIP3    H122475   6.695   1.638  11.585  1.0892  1.5615 -0.7857
  328TIP3    H222476   6.787   1.525  11.625  0.7497  2.3996  2.7259
  329TIP3   OH222477   1.601   3.458   4.052 -0.7545  0.2511 -0.0251
  329TIP3    H122478   1.554   3.390   4.102 -0.2934 -1.5352 -1.8988
  329TIP3    H222479   1.545   3.475   3.976 -0.4867  1.4390  0.0271
  330TIP3   OH222480   4.363   0.698   2.870 -0.0628 -0.5104 -0.0807
  330TIP3    H122481   4.451   0.735   2.872  0.3897 -1.5764  1.2645
  330TIP3    H222482   4.311   0.758   2.925  0.0369 -0.4077 -0.0974
  331TIP3   OH222483   4.105   6.101   0.086  0.7517  0.1359  0.2898
  331TIP3    H122484   4.160   6.176   0.104  1.2062 -0.5215  1.7464
  331TIP3    H222485   4.127   6.037   0.154 -1.4121 -0.3547  0.6099
  332TIP3   OH222486   3.010   2.189  13.694 -0.4595  0.2687  0.1411
  332TIP3    H122487   3.028   2.216  13.784  1.6268  0.8601 -0.3994
  332TIP3    H222488   3.094   2.196  13.649 -1.5949  0.7553 -2.0726
  333TIP3   OH222489   4.432   0.450   1.497  1.0947 -1.0486 -0.4764
  333TIP3    H122490   4.356   0.414   1.542  1.2063 -0.3384  0.2983
  333TIP3    H222491   4.455   0.383   1.432 -0.6887 -0.9005 -1.3095
  334TIP3   OH222492   2.812   6.461  12.509  0.1246  0.2982 -0.0006
  334TIP3    H122493   2.743   6.395  12.517 -0.2916  0.5700 -1.1971
  334TIP3    H222494   2.805   6.492  12.419  3.2449 -1.2717 -0.9454
  335TIP3   OH222495   6.330   1.518   0.048  0.2826 -0.5570  0.2289
  335TIP3    H122496   6.382   1.598   0.055 -1.5371  0.6450  0.7025
  335TIP3    H222497   6.387   1.449   0.083  1.4980  0.6966  0.8201
  336TIP3   OH222498   3.418   5.739  12.678 -0.1682  0.1516 -0.3812
  336TIP3    H122499   3.424   5.785  12.762 -1.6026 -1.5078  0.7022
  336TIP3    H222500   3.495   5.681  12.677  0.1131  0.5253 -0.4394
  337TIP3   OH222501   5.574   1.861   0.730  0.6710 -0.2516  0.2130
  337TIP3    H122502   5.553   1.953   0.750 -0.7917 -0.4239 -0.3804
  337TIP3    H222503   5.553   1.851   0.637 -0.7303 -1.5481  0.6157
  338TIP3   OH222504   0.376   5.747   1.607 -0.0300  0.3151 -0.3045
  338TIP3    H122505   0.373   5.840   1.584  0.2766 -0.0109 -1.8021
  338TIP3    H222506   0.412   5.704   1.529 -2.1764 -1.3134 -0.4987
  339TIP3   OH222507   3.968   3.940  17.013 -0.2872  0.0227 -0.2668
  339TIP3    H122508   4.019   3.871  16.971  0.6723  0.7527 -0.3297
  339TIP3    H222509   3.905   3.893  17.068  1.5237 -0.9309  1.1039
  340TIP3   OH222510   5.390   3.019  16.619  0.4049  0.1675  0.3489
  340TIP3    H122511   5.378   2.936  16.663  3.1488  0.2113  1.4295
  340TIP3    H222512   5.408   2.996  16.528  2.1710 -0.5853  0.8403
  341TIP3   OH222513   0.448   2.180  13.082 -0.1635  0.0000  0.0698
  341TIP3    H122514   0.525   2.208  13.031  0.0887 -0.4121  0.2179
  341TIP3    H222515   0.405   2.262  13.106  0.0258  0.2258 -0.3254
  342TIP3   OH222516   0.265   5.292   3.640  0.1976 -0.6937 -0.2732
  342TIP3    H122517   0.188   5.304   3.696 -1.3552 -1.7021 -2.0534
  342TIP3    H222518   0.297   5.380   3.624 -1.2633 -0.1393 -0.3140
  343TIP3   OH222519   2.037   3.868   2.349  0.1291  0.1766 -0.0345
  343TIP3    H122520   2.040   3.952   2.396 -0.1939 -0.0061  0.3157
  343TIP3    H222521   2.121   3.864   2.303 -0.7299  1.7135 -1.8568
  344TIP3   OH222522   3.384   4.526  11.257 -0.6656 -0.1636 -0.2146
  344TIP3    H122523   3.304   4.571  11.283 -0.1628  2.0701 -2.1702
  344TIP3    H222524   3.369   4.501  11.166 -0.0262 -1.9776  0.1266
  345TIP3   OH222525   4.248   0.104  12.205 -0.4302 -0.0898 -0.7977
  345TIP3    H122526   4.196   0.056  12.141  1.2235 -1.3391 -1.2712
  345TIP3    H222527   4.270   0.039  12.272  1.8970 -0.0801 -1.4699
  346TIP3   OH222528   3.201   4.932   2.219 -0.3425 -0.1216 -0.4657
  346TIP3    H122529   3.198   4.839   2.200  0.6372  0.0066 -1.2940
  346TIP3    H222530   3.287   4.945   2.260 -0.3819  0.4485 -0.5587
  347TIP3   OH222531   6.008   5.132   3.064 -0.3111 -0.1043  0.4199
  347TIP3    H122532   6.034   5.220   3.038 -0.9838  0.3707  1.2857
  347TIP3    H222533   5.931   5.113   3.011  1.1318 -1.1014 -1.4044
  348TIP3   OH222534   3.347   6.174   4.764  0.3051  0.1515 -0.1018
  348TIP3    H122535   3.376   6.084   4.780  0.8139  0.5369  1.3034
  348TIP3    H222536   3.426   6.220   4.736  0.8255  0.8669  2.3200
  349TIP3   OH222537   0.989   4.541   2.521 -0.3232  0.1770  0.0649
  349TIP3    H122538   0.931   4.529   2.446 -1.3842  0.3923  0.8296
  349TIP3    H222539   1.068   4.493   2.498 -1.3801 -1.4463 -0.3704
  350TIP3   OH222540   3.225   1.541  16.006  0.7251  0.7997 -0.7953
  350TIP3    H122541   3.235   1.485  15.930 -2.2942 -0.8590 -0.1092
  350TIP3    H222542   3.152   1.599  15.984 -4.3966 -3.4721  2.5175
  351TIP3   OH222543   1.065   5.426  14.790 -0.5955  0.4501 -0.4269
  351TIP3    H122544   1.025   5.422  14.704 -0.0883 -1.1272 -0.6180
  351TIP3    H222545   0.994   5.407  14.851 -0.5852 -0.2252 -0.6223
  352TIP3   OH222546   0.261   4.533  15.918  0.4184 -0.1103  0.1337
  352TIP3    H122547   0.187   4.488  15.878  0.6467  0.5512 -1.0575
  352TIP3    H222548   0.253   4.512  16.012 -0.0714 -1.7421 -0.2361
  353TIP3   OH222549   0.293   5.851  16.483  0.8093  0.6021  0.0514
  353TIP3    H122550   0.261   5.930  16.439  1.7264  1.3913  0.7603
  353TIP3    H222551   0.341   5.804  16.415  0.0556  0.5117 -0.4377
  354TIP3   OH222552   1.890   6.743  12.240  0.0028  0.4432  0.4999
  354TIP3    H122553   1.976   6.716  12.207 -0.5781  0.8749 -1.4527
  354TIP3    H222554   1.828   6.686  12.195 -0.9424  2.2150 -0.5306
  355TIP3   OH222555   3.711   2.192   3.984 -0.4101  0.1155  0.1225
  355TIP3    H122556   3.698   2.287   3.988  1.2711  0.3924 -0.4874
  355TIP3    H222557   3.631   2.159   3.942 -0.6135  1.3516 -0.4988
  356TIP3   OH222558   0.504   5.111   5.133 -0.2487 -1.0641  0.2477
  356TIP3    H122559   0.459   5.054   5.071  0.1506 -1.3948  0.2567
  356TIP3    H222560   0.435   5.144   5.190 -0.4051 -2.0473  0.6465
  357TIP3   OH222561   5.625   1.428   5.197 -0.1283 -0.3434  0.5553
  357TIP3    H122562   5.699   1.458   5.250 -0.2863  0.2997  0.4304
  357TIP3    H222563   5.576   1.508   5.178 -0.2140 -0.5950 -0.3465
  358TIP3   OH222564   3.257   5.486   5.742 -0.0904  0.3096 -0.5292
  358TIP3    H122565   3.257   5.548   5.669 -0.2310 -0.1564 -0.9413
  358TIP3    H222566   3.319   5.418   5.715  1.2461  1.0528  0.6133
  359TIP3   OH222567   3.550   6.575  16.149  0.6676 -0.4966 -0.0864
  359TIP3    H122568   3.506   6.580  16.064 -0.1021 -1.5465  0.2355
  359TIP3    H222569   3.643   6.573  16.127  0.4676 -1.1742 -0.9379
  360TIP3   OH222570   6.778   5.951   1.055  0.2954 -0.0768 -0.1248
  360TIP3    H122571   6.780   6.046   1.041 -2.6683  0.2579  1.0105
  360TIP3    H222572   6.757   5.940   1.147 -1.8397 -1.7372 -0.7261
  361TIP3   OH222573   5.865   1.078   5.283 -0.1287 -0.3624  0.2681
  361TIP3    H122574   5.778   1.086   5.323  0.3730 -1.8822  1.7798
  361TIP3    H222575   5.870   0.987   5.254  0.6465 -0.0528 -0.6008
  362TIP3   OH222576   1.826   1.542   1.522  0.3004 -0.4406 -0.7333
  362TIP3    H122577   1.884   1.507   1.455 -1.3283 -1.3820 -1.7126
  362TIP3    H222578   1.740   1.506   1.501  0.0106 -2.2801  2.9086
  363TIP3   OH222579   6.237   1.556   3.548  0.7070 -0.1781  0.0283
  363TIP3    H122580   6.295   1.618   3.504  0.7383  1.2282  1.9630
  363TIP3    H222581   6.189   1.514   3.476  1.5841  1.1632 -1.4130
  364TIP3   OH222582   2.478   1.857   4.186  0.0188  0.0951  0.0691
  364TIP3    H122583   2.404   1.865   4.126  0.6422  0.1459 -0.7099
  364TIP3    H222584   2.554   1.842   4.129  0.4161 -1.2991  0.9169
  365TIP3   OH222585   4.989   3.289  15.675 -0.5870  0.3743  0.5171
  365TIP3    H122586   4.899   3.258  15.672 -1.1315  1.9312 -0.4140
  365TIP3    H222587   4.988   3.358  15.742  0.5426 -1.3031  2.3929
  366TIP3   OH222588   0.534   1.789  16.672  1.1634 -0.0133  0.5324
  366TIP3    H122589   0.627   1.799  16.692  1.3209 -0.9249  0.3300
  366TIP3    H222590   0.492   1.774  16.756  1.3428 -0.5076  0.5421
  367TIP3   OH222591   2.719   2.973   0.712  0.1901  0.9773 -0.2878
  367TIP3    H122592   2.705   3.063   0.682  0.5212  1.2373  0.3201
  367TIP3    H222593   2.796   2.943   0.663 -0.5527  0.6440 -1.2831
  368TIP3   OH222594   4.088   3.434  16.785 -0.0815 -0.1621 -0.5146
  368TIP3    H122595   3.997   3.439  16.812 -0.2281 -1.6053 -0.7028
  368TIP3    H222596   4.085   3.399  16.696  0.6354  0.2272 -0.7012
  369TIP3   OH222597   2.493   1.208  15.176 -0.4240 -0.5387  0.0439
  369TIP3    H122598   2.559   1.237  15.113  0.5981 -2.0713  0.3583
  369TIP3    H222599   2.514   1.116  15.192 -1.5808 -0.5849  1.4912
  370TIP3   OH222600   5.988   0.183  15.235  0.4060 -0.2601  0.2024
  370TIP3    H122601   6.010   0.268  15.196 -1.8041  1.5214  2.4832
  370TIP3    H222602   6.053   0.171  15.304  0.3942 -0.1433  0.2342
  371TIP3   OH222603   0.941   4.265   3.753  0.1846 -0.2847  0.1933
  371TIP3    H122604   1.026   4.221   3.751  0.1828 -0.2680 -0.3475
  371TIP3    H222605   0.962   4.358   3.748  0.0787 -0.3022 -3.5542
  372TIP3   OH222606   3.774   5.346  12.927  0.2535 -0.1558 -0.1991
  372TIP3    H122607   3.729   5.425  12.959 -1.4243 -0.6736 -1.1431
  372TIP3    H222608   3.762   5.349  12.832 -1.3333 -2.3695 -0.1447
  373TIP3   OH222609   5.020   4.355   1.179 -0.0713  0.0438 -0.1519
  373TIP3    H122610   4.984   4.279   1.225  0.5289  0.2649  0.7160
  373TIP3    H222611   4.969   4.361   1.098  2.1414 -3.3727 -2.0056
  374TIP3   OH222612   4.966   0.232   2.654 -0.5032 -0.3875 -0.4719
  374TIP3    H122613   4.925   0.182   2.584 -1.4757  1.6647 -1.4741
  374TIP3    H222614   4.907   0.222   2.729 -1.3902  0.2826 -1.0633
  375TIP3   OH222615   1.356   6.121  14.168  0.1458  0.3390 -0.3575
  375TIP3    H122616   1.391   6.186  14.229 -2.9289  0.2397  1.7717
  375TIP3    H222617   1.307   6.173  14.104  0.2646  0.2601 -0.5120
  376TIP3   OH222618   0.012   2.330   4.418 -0.2130  0.0264 -0.1601
  376TIP3    H122619   0.093   2.285   4.441 -0.3770 -0.0966  0.2004
  376TIP3    H222620  -0.051   2.298   4.483 -0.2814  0.9343  0.2366
  377TIP3   OH222621   2.664   3.426  13.021  0.3090 -0.5319 -0.4640
  377TIP3    H122622   2.653   3.398  13.112 -1.0893  0.4147 -0.3191
  377TIP3    H222623   2.583   3.401  12.978 -0.7304  2.5406 -0.4823
  378TIP3   OH222624   2.193   6.249  12.016 -0.2849  0.5618 -0.0797
  378TIP3    H122625   2.156   6.164  11.992 -0.3216  0.4494  0.3770
  378TIP3    H222626   2.127   6.289  12.072 -0.5136  1.1302 -0.7459
  379TIP3   OH222627   4.677   2.093  15.502  0.3975 -0.1979 -0.6077
  379TIP3    H122628   4.700   2.079  15.411  1.4318 -3.5805  0.0487
  379TIP3    H222629   4.583   2.077  15.506  0.9445 -4.8228 -0.5424
  380TIP3   OH222630   5.891   5.339  16.473 -0.5989 -0.2487  0.0215
  380TIP3    H122631   5.865   5.428  16.499 -1.8031 -0.2371 -1.1019
  380TIP3    H222632   5.945   5.351  16.395  1.3219 -0.3981  1.2599
  381TIP3   OH222633   5.457   6.395   2.306 -0.1836 -0.2838  0.0525
  381TIP3    H122634   5.548   6.415   2.284 -0.1607 -2.8781 -2.9279
  381TIP3    H222635   5.406   6.465   2.264  0.3265  0.6827  0.9849
  382TIP3   OH222636   1.321   0.601  16.206  0.3087  0.9047 -0.2137
  382TIP3    H122637   1.345   0.509  16.195 -0.7042  0.5758  0.1974
  382TIP3    H222638   1.360   0.646  16.131  0.8907  0.1670 -0.3652
  383TIP3   OH222639   6.045   6.754   2.641 -0.4394 -0.2291 -0.5888
  383TIP3    H122640   6.135   6.776   2.667 -1.4642  0.0218  3.2871
  383TIP3    H222641   6.004   6.839   2.623 -0.8452  0.0347  1.3814
  384TIP3   OH222642   2.613   1.246  14.594 -0.0758 -0.6805  0.0616
  384TIP3    H122643   2.537   1.189  14.581 -0.5789  0.0564 -0.3498
  384TIP3    H222644   2.665   1.235  14.515 -0.9718  0.5851 -0.7465
  385TIP3   OH222645   4.357   4.260  11.454  0.4601  0.3131  0.6782
  385TIP3    H122646   4.344   4.167  11.475 -2.1741  0.2481 -0.7413
  385TIP3    H222647   4.314   4.272  11.369  1.3850  2.6893  0.4653
  386TIP3   OH222648   3.241   2.689  15.510  0.2337  0.5090 -0.1391
  386TIP3    H122649   3.267   2.683  15.602 -0.9587  0.8503  0.2416
  386TIP3    H222650   3.231   2.783  15.493 -0.8470  0.3917 -0.2183
  387TIP3   OH222651   3.395   5.480  14.518 -0.8028 -0.7457  0.2927
  387TIP3    H122652   3.434   5.559  14.482 -2.3752 -0.1054 -0.0827
  387TIP3    H222653   3.469   5.426  14.543  0.3490 -0.2548 -1.8095
  388TIP3   OH222654   2.314   2.360   4.870 -0.1792  0.1301  0.1629
  388TIP3    H122655   2.351   2.315   4.946 -0.6212 -0.2382  0.1582
  388TIP3    H222656   2.391   2.384   4.817  0.0037 -2.1214 -0.7010
  389TIP3   OH222657   3.620   5.137   5.459  0.1065 -0.4351 -0.7835
  389TIP3    H122658   3.706   5.174   5.479 -0.4448  0.4989 -0.0271
  389TIP3    H222659   3.638   5.049   5.426  1.2580 -0.9863  1.1950
  390TIP3   OH222660   2.310   2.861   5.088  0.6915 -0.3166  0.0687
  390TIP3    H122661   2.314   2.773   5.126 -1.2618 -1.3880 -1.9318
  390TIP3    H222662   2.228   2.898   5.121  1.2124  0.5305  0.4322
  391TIP3   OH222663   1.275   6.372  15.099 -0.3829  0.1001 -0.3487
  391TIP3    H122664   1.332   6.297  15.114  0.3055  0.7946  0.6594
  391TIP3    H222665   1.304   6.437  15.163  0.2457  1.9042 -2.3577
  392TIP3   OH222666   4.304   3.036  16.619  0.0479  0.4233 -0.1311
  392TIP3    H122667   4.321   2.984  16.541  1.5448 -0.1043  0.4968
  392TIP3    H222668   4.237   3.099  16.592 -0.6668 -0.7961 -1.3494
  393TIP3   OH222669   3.927   2.925   1.545 -0.0265 -0.5371  0.5028
  393TIP3    H122670   3.979   2.867   1.490  1.4073  0.8458  0.3409
  393TIP3    H222671   3.980   3.005   1.554 -0.5108 -0.4111  3.2622
  394TIP3   OH222672   4.724   0.690  11.496 -0.0261 -1.1770 -0.3971
  394TIP3    H122673   4.817   0.688  11.472 -0.7733 -0.7748 -3.7610
  394TIP3    H222674   4.681   0.637  11.430 -2.4320  0.3380 -0.1396
  395TIP3   OH222675   0.809   4.039  16.462  0.5549  0.2763 -0.0635
  395TIP3    H122676   0.795   4.004  16.375 -1.4128 -2.7607  1.3243
  395TIP3    H222677   0.896   4.006  16.487  1.1148  1.1373 -0.7985
  396TIP3   OH222678   3.459   4.392   3.661 -0.5049 -0.2390  0.1407
  396TIP3    H122679   3.496   4.367   3.746 -1.3836  1.3279  1.0277
  396TIP3    H222680   3.375   4.346   3.658 -1.1384  0.8416  0.8012
  397TIP3   OH222681   5.166   4.269  15.766 -0.4763 -0.2172  0.2676
  397TIP3    H122682   5.239   4.221  15.805 -0.6597 -0.9274 -0.2462
  397TIP3    H222683   5.098   4.267  15.834  0.3321  1.3596  1.1621
  398TIP3   OH222684   4.719   0.459  15.662  0.2377 -0.2932  0.3604
  398TIP3    H122685   4.735   0.475  15.755  1.2665  1.8558 -0.1226
  398TIP3    H222686   4.625   0.442  15.657  0.0445  0.1737  1.7265
  399TIP3   OH222687   1.181   0.261  10.764 -0.2558  0.1717 -0.3501
  399TIP3    H122688   1.250   0.217  10.814 -1.8070 -1.2624  0.6093
  399TIP3    H222689   1.213   0.261  10.674  0.9798 -0.4804  0.0613
  400TIP3   OH222690   1.473   2.237   5.038  0.6800 -0.0184 -0.2569
  400TIP3    H122691   1.507   2.148   5.028  2.5837  0.1175  3.2426
  400TIP3    H222692   1.502   2.283   4.959  2.4196 -1.7491 -0.7101
  401TIP3   OH222693   6.451   5.170  16.527  0.4550 -0.1113  0.1403
  401TIP3    H122694   6.491   5.253  16.499  1.0566 -0.1593  0.8431
  401TIP3    H222695   6.358   5.191  16.537  0.3051  0.0459 -1.3382
  402TIP3   OH222696   2.564   4.114   1.714 -0.4635  0.3412  0.0551
  402TIP3    H122697   2.621   4.130   1.638 -0.2034  0.1006  0.1974
  402TIP3    H222698   2.621   4.127   1.790  0.1136 -2.3051  0.1953
  403TIP3   OH222699   4.900   3.616  13.058 -0.2770  0.0294  0.3257
  403TIP3    H122700   4.886   3.648  13.147  0.5846  0.9312  0.1508
  403TIP3    H222701   4.991   3.586  13.056 -0.2302  0.1896 -0.2998
  404TIP3   OH222702   0.639   3.301   5.557 -0.0784 -0.0483  0.3200
  404TIP3    H122703   0.728   3.282   5.587  0.1480  1.1396  0.4511
  404TIP3    H222704   0.648   3.313   5.462 -0.1531 -0.2614  0.2871
  405TIP3   OH222705   0.925   3.753   5.620  0.8584  0.2900  0.0978
  405TIP3    H122706   0.964   3.672   5.653  2.1946  0.8386 -0.0643
  405TIP3    H222707   0.831   3.741   5.633  1.1216 -0.7183  1.3531
  406TIP3   OH222708   3.433   2.649  15.999 -0.2249  0.0079 -0.1769
  406TIP3    H122709   3.504   2.640  16.063  0.0848  0.5577 -0.4312
  406TIP3    H222710   3.378   2.719  16.034  0.6931  1.2803 -1.1582
  407TIP3   OH222711   1.564   0.019   0.792 -0.0101 -0.1368  0.1832
  407TIP3    H122712   1.627   0.057   0.853 -0.4136 -1.5567  1.5490
  407TIP3    H222713   1.497   0.087   0.781  1.0611  0.8815 -0.2605
  408TIP3   OH222714   6.474   5.318  12.059  0.0368  0.3685 -0.4007
  408TIP3    H122715   6.494   5.232  12.024  0.7172  0.3656 -0.0235
  408TIP3    H222716   6.449   5.302  12.150 -0.8983  0.4600 -0.6346
  409TIP3   OH222717   0.720   3.095  11.397  0.2953 -0.6331  0.4480
  409TIP3    H122718   0.727   3.190  11.408  1.0560 -0.5871 -0.2831
  409TIP3    H222719   0.765   3.078  11.314 -0.0944 -1.5999  0.4275
  410TIP3   OH222720   1.664   1.346   2.682 -0.0908 -0.4814  0.0859
  410TIP3    H122721   1.751   1.387   2.678  0.5029 -1.6248  0.7318
  410TIP3    H222722   1.654   1.322   2.774  0.0315 -2.6614 -0.4189
  411TIP3   OH222723   1.050   6.423   4.920 -0.3957 -0.0549 -0.6630
  411TIP3    H122724   1.125   6.445   4.975  1.1145 -0.6382 -2.3866
  411TIP3    H222725   1.008   6.349   4.965  0.7025 -0.4176 -0.1920
  412TIP3   OH222726   5.383   2.370  14.012  0.1603  0.5643 -0.2895
  412TIP3    H122727   5.413   2.440  13.955  0.4130  0.9449  0.3014
  412TIP3    H222728   5.315   2.325  13.961 -0.6877  1.8185 -0.3204
  413TIP3   OH222729   3.404   4.869  10.769  0.1412  0.9526 -0.3691
  413TIP3    H122730   3.374   4.846  10.681  0.0487 -1.0668  0.1476
  413TIP3    H222731   3.496   4.842  10.771 -0.6234 -1.9486  1.0484
  414TIP3   OH222732   6.196   3.409   6.400  0.8144  0.1993 -0.1778
  414TIP3    H122733   6.279   3.437   6.363  0.7945  1.9618  1.0170
  414TIP3    H222734   6.190   3.455   6.484 -1.1502 -0.2447 -0.0302
  415TIP3   OH222735   3.654   1.790  12.144  0.4227 -0.5647  0.2628
  415TIP3    H122736   3.567   1.757  12.163  0.1381  0.0694  0.0848
  415TIP3    H222737   3.650   1.883  12.166  0.4536 -0.0776 -1.5850
  416TIP3   OH222738   5.823   2.024   1.995 -0.2913 -0.8109  0.3250
  416TIP3    H122739   5.811   2.001   1.903 -1.5109 -1.4206  0.6166
  416TIP3    H222740   5.852   1.943   2.036  3.0906  0.0978  0.0441
  417TIP3   OH222741   1.289   2.661   0.133  0.3534  0.2035 -0.4357
  417TIP3    H122742   1.370   2.684   0.086  0.3885  0.3147 -0.3234
  417TIP3    H222743   1.219   2.691   0.075  0.3858  2.4823  0.5724
  418TIP3   OH222744   0.462   3.048  17.170  0.1184 -0.1300  0.0539
  418TIP3    H122745   0.367   3.050  17.162  0.0549 -1.6201  0.0965
  418TIP3    H222746   0.493   3.113  17.107 -0.8898 -0.4249 -0.7705
  419TIP3   OH222747   4.355   1.471  14.638 -0.0691 -0.2167  0.2528
  419TIP3    H122748   4.351   1.546  14.579  0.7437 -0.0119  0.4471
  419TIP3    H222749   4.439   1.429  14.617 -0.7057 -1.3330 -0.1664
  420TIP3   OH222750   2.808   1.439   1.122  0.4519  0.4328  0.1647
  420TIP3    H122751   2.888   1.455   1.172  0.6272  2.4627 -0.6635
  420TIP3    H222752   2.833   1.454   1.031 -0.4275 -0.8608 -0.3206
  421TIP3   OH222753   4.223   5.684  15.243 -0.1513 -0.4715 -0.0327
  421TIP3    H122754   4.146   5.637  15.213  0.4973 -0.4874 -1.8063
  421TIP3    H222755   4.249   5.738  15.168  2.1880 -1.2871  0.0852
  422TIP3   OH222756   1.379   2.592  12.969  0.2731  0.3188 -0.2865
  422TIP3    H122757   1.427   2.515  12.999 -2.1316 -1.5495 -0.9040
  422TIP3    H222758   1.428   2.624  12.893  1.0373 -0.9194 -0.3380
  423TIP3   OH222759   1.922   5.665  11.346 -0.2977  0.2450 -0.1496
  423TIP3    H122760   1.955   5.721  11.277 -2.3352 -2.2259 -3.4180
  423TIP3    H222761   1.827   5.673  11.341 -0.6051 -2.1605  0.3593
  424TIP3   OH222762   2.275   4.474  16.175  0.0028  0.0246  0.1472
  424TIP3    H122763   2.325   4.489  16.256 -0.9602  0.2127  0.7292
  424TIP3    H222764   2.272   4.379  16.165  1.1598  0.0267 -0.3448
  425TIP3   OH222765   6.728   6.101  15.275 -0.3488  0.1430  0.1964
  425TIP3    H122766   6.722   6.051  15.357  1.5290  1.8908  1.5108
  425TIP3    H222767   6.688   6.185  15.297 -0.3858  0.4166 -0.8973
  426TIP3   OH222768   3.394   4.581  10.615 -0.0719 -0.0687  0.4688
  426TIP3    H122769   3.309   4.611  10.647 -0.2975  0.0216 -0.2209
  426TIP3    H222770   3.377   4.550  10.526  0.6169 -0.0394  0.3253
  427TIP3   OH222771   5.219   6.369   2.813  1.2530  0.3686  0.0342
  427TIP3    H122772   5.282   6.315   2.862  1.4603  1.5572  1.1391
  427TIP3    H222773   5.249   6.364   2.722  1.2884 -1.3147  0.1094
  428TIP3   OH222774   5.171   4.966  12.479 -0.4526  0.2268 -0.3065
  428TIP3    H122775   5.112   4.931  12.413  1.0551  0.0091 -1.5908
  428TIP3    H222776   5.244   4.905  12.482 -0.1943  0.5528  1.1509
  429TIP3   OH222777   5.954   5.314  12.878 -0.1676 -0.1307  0.1373
  429TIP3    H122778   6.020   5.335  12.944 -0.4991  1.1614  0.0807
  429TIP3    H222779   5.949   5.392  12.823 -0.5935 -0.8230 -0.8495
  430TIP3   OH222780   6.802   2.420   6.443 -0.0939  0.2413  0.3852
  430TIP3    H122781   6.848   2.337   6.456  1.8290  0.9264 -1.3833
  430TIP3    H222782   6.761   2.438   6.527  2.7173 -0.6082  2.0702
  431TIP3   OH222783   2.214   1.951   5.887 -0.1831 -0.3180 -0.1146
  431TIP3    H122784   2.241   2.003   5.963 -1.6566 -2.4425  2.0156
  431TIP3    H222785   2.123   1.977   5.871  0.3414  0.6584 -1.7193
  432TIP3   OH222786   2.331   3.165  15.006  0.2340  0.3745 -0.4720
  432TIP3    H122787   2.251   3.209  14.978 -0.5793 -0.3058  0.6754
  432TIP3    H222788   2.402   3.222  14.976 -0.7762  2.8887  1.4933
  433TIP3   OH222789   4.875   0.126   5.777 -0.4799  0.1350 -0.0381
  433TIP3    H122790   4.929   0.100   5.702  0.6786  1.7416  0.1692
  433TIP3    H222791   4.855   0.219   5.760  2.1868  1.4213  2.9115
  434TIP3   OH222792   4.755   1.512   2.927 -0.4692 -0.7422  0.0879
  434TIP3    H122793   4.712   1.448   2.869 -1.8703 -0.6482  0.9947
  434TIP3    H222794   4.772   1.464   3.008 -0.2950 -0.3357  0.2954
  435TIP3   OH222795   6.013   4.028  14.065 -0.5939 -0.1972  0.0337
  435TIP3    H122796   6.067   3.968  14.116 -1.2963 -0.7758  0.1014
  435TIP3    H222797   6.052   4.026  13.978  0.3636  0.4871  0.4310
  436TIP3   OH222798   3.414   6.803   3.538  0.4791  0.3222  0.4965
  436TIP3    H122799   3.393   6.743   3.465  0.8200 -1.6959  1.9748
  436TIP3    H222800   3.340   6.864   3.539  0.8136  0.9001 -1.9657
  437TIP3   OH222801   4.185   5.441  12.471  0.0862 -0.6655 -0.2711
  437TIP3    H122802   4.132   5.473  12.398  0.4977  1.3320  0.2477
  437TIP3    H222803   4.153   5.491  12.547  1.0700 -1.2021  0.5169
  438TIP3   OH222804   6.678   5.431  11.061  0.0266 -0.1380 -0.6264
  438TIP3    H122805   6.664   5.336  11.059  0.1017 -0.1603 -0.1279
  438TIP3    H222806   6.626   5.464  10.988 -0.3086 -0.5247 -0.5659
  439TIP3   OH222807   4.616   1.469   2.487  0.2334  0.2552  0.0593
  439TIP3    H122808   4.686   1.427   2.437  1.3025  0.9783  0.8985
  439TIP3    H222809   4.591   1.545   2.435 -0.5594 -0.4736 -0.6616
  440TIP3   OH222810   2.154   1.821  13.169  0.4428 -0.2514  0.0741
  440TIP3    H122811   2.099   1.750  13.202  0.5239  0.1405  1.0759
  440TIP3    H222812   2.200   1.854  13.246  0.5258  0.7903 -0.4051
  441TIP3   OH222813   0.893   2.437   2.916 -0.0582  0.1066 -0.4164
  441TIP3    H122814   0.809   2.426   2.961 -0.4330  1.1754 -0.8217
  441TIP3    H222815   0.958   2.431   2.986 -0.4403 -0.9748 -0.1330
  442TIP3   OH222816   4.451   0.107  16.497 -0.5681 -0.1550  0.3526
  442TIP3    H122817   4.480   0.058  16.420 -0.2824  0.7568 -0.1271
  442TIP3    H222818   4.530   0.118  16.550 -0.8614 -1.2427  1.0588
  443TIP3   OH222819   6.360   4.845  14.943  0.5637 -0.2103  0.1918
  443TIP3    H122820   6.369   4.751  14.928 -0.1113 -0.5076  1.4881
  443TIP3    H222821   6.436   4.868  14.997  1.9583  0.4771 -1.9252
  444TIP3   OH222822   2.446   6.645  15.835 -0.1560  0.7129  0.0640
  444TIP3    H122823   2.487   6.623  15.919  1.6476  0.4991 -0.8146
  444TIP3    H222824   2.486   6.729  15.811 -1.4142  1.2725 -0.1223
  445TIP3   OH222825   4.870   5.345   2.471  0.1913 -0.2039  0.1070
  445TIP3    H122826   4.917   5.387   2.543 -0.8534 -1.0271  1.3252
  445TIP3    H222827   4.935   5.338   2.401  1.4239  0.0757  1.1721
  446TIP3   OH222828   0.732   2.906   2.852  0.1449  0.0274 -0.1042
  446TIP3    H122829   0.793   2.907   2.778  1.1289  0.3245  0.6900
  446TIP3    H222830   0.747   2.821   2.894 -0.9022 -0.4371 -0.6171
  447TIP3   OH222831   3.491   6.503   3.321  0.1054  0.0719  0.9223
  447TIP3    H122832   3.563   6.548   3.366  0.7272  0.2187 -0.2071
  447TIP3    H222833   3.533   6.435   3.269 -0.5487  0.2575  0.1311
  448TIP3   OH222834   1.440   6.332  11.079  0.2460  0.0587  0.5816
  448TIP3    H122835   1.364   6.383  11.050  0.8626  0.7973  0.2060
  448TIP3    H222836   1.489   6.314  10.998 -0.0350 -1.2824  0.6872
  449TIP3   OH222837   6.186   6.178  12.499  0.4028 -0.1605 -0.1773
  449TIP3    H122838   6.090   6.183  12.492  0.4340  0.3852 -0.2002
  449TIP3    H222839   6.204   6.084  12.507 -0.0757 -0.3263 -0.9474
  450TIP3   OH222840   1.663   4.308  11.074 -0.0914  0.2086  0.4682
  450TIP3    H122841   1.644   4.401  11.088 -0.3290  0.2681 -0.2162
  450TIP3    H222842   1.578   4.269  11.054  0.1454  0.0172 -0.1703
  451TIP3   OH222843   2.831   4.683  12.663 -0.0545  0.2551  0.2751
  451TIP3    H122844   2.747   4.729  12.663 -1.2286 -1.7868  0.6321
  451TIP3    H222845   2.856   4.678  12.756 -0.9558 -1.5195  0.4608
  452TIP3   OH222846   6.677   3.633   4.835  0.5706 -0.2019 -0.0397
  452TIP3    H122847   6.659   3.726   4.852  1.9940  0.1716 -0.3959
  452TIP3    H222848   6.650   3.588   4.915 -1.0123  0.3830 -0.2129
  453TIP3   OH222849   5.687   2.755  11.832 -0.0245  0.1796  0.3554
  453TIP3    H122850   5.701   2.675  11.780  0.5060 -0.0738  0.8782
  453TIP3    H222851   5.730   2.824  11.781 -0.4286  0.1238 -0.0671
  454TIP3   OH222852   3.338   1.710   4.132  0.4423  0.1512 -0.2428
  454TIP3    H122853   3.277   1.765   4.083  0.3057 -1.2165 -1.6814
  454TIP3    H222854   3.283   1.644   4.174  0.6041  1.0520  1.4778
  455TIP3   OH222855   4.693   5.532   4.820  0.1104  0.1280 -0.1587
  455TIP3    H122856   4.756   5.558   4.887  1.5063 -1.9575 -0.5657
  455TIP3    H222857   4.730   5.564   4.738 -0.9461  1.5330 -0.1357
  456TIP3   OH222858   4.179   3.102  14.042 -0.5307  0.0117 -0.0734
  456TIP3    H122859   4.222   3.186  14.027  1.2015 -0.6296  0.9053
  456TIP3    H222860   4.194   3.053  13.961  2.4451 -0.8739  0.8454
  457TIP3   OH222861   2.576   1.605   0.903 -0.1958  0.2218  0.0458
  457TIP3    H122862   2.560   1.522   0.947  0.0139  0.5339  0.7196
  457TIP3    H222863   2.629   1.582   0.827  2.7238  0.0748  1.9738
  458TIP3   OH222864   5.834   3.457  13.287  0.3148  0.2527  0.4059
  458TIP3    H122865   5.741   3.481  13.293  0.4667  1.4415 -1.3135
  458TIP3    H222866   5.844   3.387  13.352 -2.1939 -1.2239 -0.6178
  459TIP3   OH222867   6.435   3.237   5.865  0.1456  0.3442 -0.6646
  459TIP3    H122868   6.471   3.315   5.823  0.6375  1.3017  1.4364
  459TIP3    H222869   6.503   3.171   5.854  0.0900  0.4316 -1.6865
  460TIP3   OH222870   5.201   1.565  15.025  0.3257  0.3478  0.0833
  460TIP3    H122871   5.277   1.511  15.044 -0.2721 -0.8904 -0.9345
  460TIP3    H222872   5.144   1.510  14.972 -0.2258  2.0445 -1.1850
  461TIP3   OH222873   5.503   5.284  14.562 -0.5343 -0.2177  0.3983
  461TIP3    H122874   5.446   5.361  14.560 -3.0778 -1.9157  1.5873
  461TIP3    H222875   5.493   5.244  14.475  0.5969  0.6039 -0.1342
  462TIP3   OH222876   1.102   4.747  16.787  0.3536  0.4672  0.0275
  462TIP3    H122877   1.108   4.818  16.724 -0.2294 -0.5813 -1.2528
  462TIP3    H222878   1.038   4.686  16.749 -0.3423  0.0097  1.8396
  463TIP3   OH222879   3.969   5.199  11.221  0.0123 -0.0712  0.7077
  463TIP3    H122880   3.924   5.275  11.258  0.2333  0.4931 -0.1619
  463TIP3    H222881   4.062   5.219  11.231  0.0908 -0.8027  1.6161
  464TIP3   OH222882   3.489   3.919  16.984  0.0560 -0.1147  0.1662
  464TIP3    H122883   3.470   4.005  16.947  0.6216 -0.6777 -1.5015
  464TIP3    H222884   3.573   3.931  17.030 -0.0384  0.2986  0.2340
  465TIP3   OH222885   0.297   3.527  15.545 -0.4258  0.0029  0.3530
  465TIP3    H122886   0.294   3.464  15.617 -1.9775 -0.2030  0.1426
  465TIP3    H222887   0.360   3.491  15.483 -0.6637 -0.9144  0.6334
  466TIP3   OH222888   2.502   2.702   3.228  0.0692  0.0011  0.3364
  466TIP3    H122889   2.446   2.625   3.224  0.6474 -0.4333  0.4645
  466TIP3    H222890   2.459   2.766   3.171  0.4119 -0.9714 -1.0852
  467TIP3   OH222891   2.239   5.030  14.255 -0.5624 -0.8403  0.2016
  467TIP3    H122892   2.253   5.009  14.163  1.3916 -0.2163  0.3022
  467TIP3    H222893   2.156   4.988  14.277 -0.6571 -1.7095 -1.6136
  468TIP3   OH222894   6.378   3.873   5.733  0.2600 -0.0752 -0.0691
  468TIP3    H122895   6.356   3.940   5.668  0.6268  1.3404  1.1914
  468TIP3    H222896   6.471   3.886   5.750  0.0671 -0.0807  1.0780
  469TIP3   OH222897   2.880   3.497   1.277 -0.3071  0.3049 -0.5827
  469TIP3    H122898   2.931   3.417   1.263 -0.1840  0.1301  0.7770
  469TIP3    H222899   2.885   3.543   1.193  0.7876 -0.4483 -0.9528
  470TIP3   OH222900   5.396   4.416  17.295 -0.3305 -0.5828 -0.0508
  470TIP3    H122901   5.436   4.494  17.334  0.4948 -1.6162  1.2646
  470TIP3    H222902   5.383   4.439  17.203 -1.4537  1.6087  0.5875
  471TIP3   OH222903   0.647   5.942  12.444 -0.0644  0.1798  0.3796
  471TIP3    H122904   0.571   5.961  12.500 -1.3115 -1.5139 -0.6089
  471TIP3    H222905   0.609   5.922  12.358  1.6420  0.7207 -0.5538
  472TIP3   OH222906   0.697   2.067  13.630  0.6812  0.1693 -0.4110
  472TIP3    H122907   0.630   2.135  13.618 -0.1492 -0.9124 -2.1581
  472TIP3    H222908   0.720   2.039  13.542  3.0230  0.0467  0.1610
  473TIP3   OH222909   6.382   5.800   0.537  0.4800  0.1697  0.3873
  473TIP3    H122910   6.312   5.782   0.474 -0.4874  2.6445  0.6384
  473TIP3    H222911   6.368   5.737   0.608  0.9832 -2.0006 -1.3124
  474TIP3   OH222912   1.638   3.500   1.348 -0.2719 -0.4347 -0.1317
  474TIP3    H122913   1.607   3.590   1.340  0.4074 -0.2484 -0.7429
  474TIP3    H222914   1.632   3.482   1.442  2.8918  1.4977  0.6037
  475TIP3   OH222915   0.926   1.854  10.444 -0.0512 -0.4674 -0.1872
  475TIP3    H122916   0.967   1.802  10.375  1.9512 -0.0714  0.6491
  475TIP3    H222917   0.939   1.803  10.524 -0.0156  0.2905  0.3037
  476TIP3   OH222918   4.052   4.250   5.905 -0.0881 -0.0332  0.5892
  476TIP3    H122919   4.139   4.251   5.863 -0.3695 -1.7004 -0.1266
  476TIP3    H222920   4.049   4.166   5.952 -1.4311 -0.1692  0.3036
  477TIP3   OH222921   4.923   5.119   3.744 -0.3615  0.0058  0.1878
  477TIP3    H122922   5.018   5.129   3.750 -0.2490  0.4474 -1.6242
  477TIP3    H222923   4.892   5.123   3.834  1.0296  3.3335  0.6761
  478TIP3   OH222924   1.299   3.214  13.692  0.4800 -0.0456  0.7000
  478TIP3    H122925   1.253   3.130  13.693 -0.7570  0.6122  1.0116
  478TIP3    H222926   1.334   3.223  13.781  0.2496 -0.0322  0.7889
  479TIP3   OH222927   1.228   5.361  12.596 -0.2210 -0.0795  1.1020
  479TIP3    H122928   1.196   5.310  12.522 -1.0388 -0.8430  1.9472
  479TIP3    H222929   1.276   5.299  12.650  0.9443  0.6131  0.9033
  480TIP3   OH222930   1.280   5.497   0.328  0.2591 -0.5322  0.2696
  480TIP3    H122931   1.349   5.556   0.299  1.0764 -1.1637  0.9014
  480TIP3    H222932   1.233   5.547   0.395  0.2097 -0.1667 -0.0350
  481TIP3   OH222933   1.565   5.678   3.905  0.0133  0.4193  0.7812
  481TIP3    H122934   1.591   5.725   3.826  0.1480 -0.4554  0.2894
  481TIP3    H222935   1.640   5.686   3.963  0.1992  0.4605  0.5378
  482TIP3   OH222936   1.442   0.676   2.146  0.0341  0.0185 -0.1204
  482TIP3    H122937   1.444   0.624   2.066 -0.1762  0.6603 -0.5491
  482TIP3    H222938   1.502   0.631   2.205 -0.0964 -0.6746 -0.5017
  483TIP3   OH222939   6.436   5.539   4.910 -0.8727  0.0568  0.7729
  483TIP3    H122940   6.471   5.612   4.961 -0.5695 -0.1557  0.8702
  483TIP3    H222941   6.347   5.566   4.887 -0.5055  0.7793  0.1741
  484TIP3   OH222942   5.505   2.824  16.380  0.4210  0.4138  0.9366
  484TIP3    H122943   5.467   2.888  16.319  1.5689  0.6833  0.4918
  484TIP3    H222944   5.574   2.781  16.330 -0.7604 -1.6666  1.0197
  485TIP3   OH222945   4.079   1.436  16.420 -0.3565 -0.4435  0.2261
  485TIP3    H122946   4.131   1.357  16.436  0.1139  0.1268  1.6878
  485TIP3    H222947   3.991   1.403  16.401 -0.1439 -1.3261  0.7199
  486TIP3   OH222948   5.099   5.269  12.817  0.0570 -0.0178  0.3420
  486TIP3    H122949   5.083   5.303  12.729 -1.5943  0.1269  0.6725
  486TIP3    H222950   5.029   5.206  12.831  0.7200 -0.5618  1.2950
  487TIP3   OH222951   2.643   3.302   7.019  0.2840  0.5981  0.1659
  487TIP3    H122952   2.641   3.396   7.005  0.3602  0.7401  1.0683
  487TIP3    H222953   2.734   3.277   7.000  0.2994  0.7216  0.0743
  488TIP3   OH222954   5.875   6.557   5.940  0.3303  0.2295  0.2375
  488TIP3    H122955   5.858   6.621   5.870  2.5290  1.0096  0.3509
  488TIP3    H222956   5.873   6.609   6.021 -0.0514 -0.2679  0.5542
  489TIP3   OH222957   2.705   1.810  12.706 -0.1138 -0.0810  0.8212
  489TIP3    H122958   2.633   1.746  12.701  0.7353 -0.9878 -0.1835
  489TIP3    H222959   2.779   1.760  12.740  1.0056 -0.0817 -1.4475
  490TIP3   OH222960   3.399   1.478  16.749  0.2883 -0.1542 -0.3414
  490TIP3    H122961   3.410   1.384  16.733 -0.6349 -0.4300  0.5335
  490TIP3    H222962   3.424   1.519  16.666 -0.2224 -1.2385 -1.0641
  491TIP3   OH222963   1.090   1.101  12.212 -0.1847  0.0478 -0.1226
  491TIP3    H122964   1.004   1.059  12.204 -0.6730  1.1410 -0.7654
  491TIP3    H222965   1.115   1.123  12.122  1.0781 -0.8289 -0.0193
  492TIP3   OH222966   2.653   2.011  12.974  0.3505  0.2215 -0.0067
  492TIP3    H122967   2.611   1.990  12.891  0.2467 -1.1010  0.3553
  492TIP3    H222968   2.684   1.927  13.007  0.1565  0.6855  1.4296
  493TIP3   OH222969   4.494   5.722   4.037  0.2444  0.9430  0.2780
  493TIP3    H122970   4.466   5.711   4.128  2.1648  0.2756  0.8494
  493TIP3    H222971   4.577   5.674   4.032 -0.2177  0.2741 -2.0586
  494TIP3   OH222972   6.113   2.461   3.212 -0.0606 -0.3182  0.5029
  494TIP3    H122973   6.133   2.385   3.158 -2.4831  0.6425 -2.0470
  494TIP3    H222974   6.049   2.429   3.276 -1.7327 -0.3959 -1.1006
  495TIP3   OH222975   3.100   4.209   0.224  0.0967  0.3590 -0.3048
  495TIP3    H122976   3.040   4.272   0.266 -0.5893  0.0592 -0.8063
  495TIP3    H222977   3.161   4.184   0.293 -0.8813  0.0272  0.4718
  496TIP3   OH222978   0.164   5.331  13.234  0.4948 -0.4726  0.2355
  496TIP3    H122979   0.108   5.264  13.273  0.6861 -0.7184  0.0923
  496TIP3    H222980   0.246   5.285  13.213 -0.3063 -0.8847 -2.3672
  497TIP3   OH222981   5.018   4.536  13.874 -0.3777 -0.1203  0.1225
  497TIP3    H122982   4.959   4.481  13.926 -1.5196  0.4195 -0.5489
  497TIP3    H222983   5.104   4.523  13.913 -1.0505 -0.4153  1.5807
  498TIP3   OH222984   0.589   5.235  16.227  0.7209 -0.1540 -0.1087
  498TIP3    H122985   0.528   5.162  16.237  0.5802 -0.1870 -1.0534
  498TIP3    H222986   0.636   5.215  16.146 -1.6383  2.3904 -2.3296
  499TIP3   OH222987   1.200   2.000   0.078  0.2809  0.5649 -0.1009
  499TIP3    H122988   1.172   1.931   0.139 -1.2552 -1.2763 -2.7096
  499TIP3    H222989   1.288   2.023   0.107 -0.2091 -0.4907  2.5290
  500TIP3   OH222990   5.321   0.047   3.946 -0.3785 -0.5798 -0.1957
  500TIP3    H122991   5.299  -0.045   3.951 -1.4797 -0.2613  1.8334
  500TIP3    H222992   5.319   0.078   4.037 -1.4615  1.7454 -0.9133
  501TIP3   OH222993   1.681   5.449  12.207 -0.5690  0.1758  0.0393
  501TIP3    H122994   1.663   5.490  12.123 -0.0615  0.0437 -0.1423
  501TIP3    H222995   1.632   5.367  12.206  2.0193 -1.5225 -1.5776
  502TIP3   OH222996   3.821   3.569  14.384  0.5410  0.0820  0.3804
  502TIP3    H122997   3.804   3.483  14.423  0.8198  0.1870  0.7356
  502TIP3    H222998   3.911   3.589  14.409  0.6992  0.1817 -0.2671
  503TIP3   OH222999   0.800   4.480   4.769 -0.2649  0.0697 -0.6951
  503TIP3    H123000   0.778   4.552   4.829 -1.3853  0.4829 -1.5614
  503TIP3    H223001   0.720   4.426   4.767  0.2390 -0.6851 -0.7780
  504TIP3   OH223002   6.563   5.094  17.058  0.6204  0.7833 -0.8372
  504TIP3    H123003   6.559   5.157  16.986  2.3366  0.9202 -0.8527
  504TIP3    H223004   6.644   5.115  17.104 -0.4945  0.7811  1.2478
  505TIP3   OH223005   3.934   4.887  17.265  0.3066  0.2439 -0.2151
  505TIP3    H123006   3.841   4.868  17.262  0.5576 -1.0383 -2.0271
  505TIP3    H223007   3.954   4.899  17.357 -1.3888 -0.9099  0.3429
  506TIP3   OH223008   4.893   2.930   6.156  0.3422  0.2821  0.1108
  506TIP3    H123009   4.925   3.019   6.165 -1.0214  0.9359 -1.2257
  506TIP3    H223010   4.903   2.892   6.244  1.3243  1.5925  0.5888
  507TIP3   OH223011   3.240   5.446   4.265 -0.2157  0.4137 -0.1632
  507TIP3    H123012   3.210   5.424   4.177  0.9545  0.2276 -0.5206
  507TIP3    H223013   3.163   5.430   4.321 -0.9573  0.5221 -1.1347
  508TIP3   OH223014   1.303   3.021  12.335  1.0355 -0.6774  0.4089
  508TIP3    H123015   1.244   2.951  12.305 -0.8287  1.4223 -1.1466
  508TIP3    H223016   1.336   3.061  12.255  0.4987  1.4415  1.1652
  509TIP3   OH223017   1.236   6.627  15.850 -0.1367  0.1026 -0.2373
  509TIP3    H123018   1.224   6.541  15.891 -4.0978 -0.6482 -2.4311
  509TIP3    H223019   1.287   6.610  15.771 -1.3462 -0.4137 -0.9359
  510TIP3   OH223020   5.339   3.410  11.993 -0.4801  0.0706  0.4085
  510TIP3    H123021   5.407   3.351  12.024  2.2617  2.0353 -1.4083
  510TIP3    H223022   5.351   3.491  12.044 -1.6136  0.3959  0.1995
  511TIP3   OH223023   0.299   1.463  16.558  0.7935  0.5454  0.0461
  511TIP3    H123024   0.267   1.377  16.530 -0.6222  0.9034  0.4953
  511TIP3    H223025   0.267   1.472  16.648 -1.2498  2.5585 -0.7969
  512TIP3   OH223026   4.909   6.262   2.382  0.1179 -0.8087 -0.1108
  512TIP3    H123027   4.946   6.339   2.424  0.6201 -1.1131  0.0074
  512TIP3    H223028   4.978   6.231   2.323 -0.7632 -0.0703 -1.5838
  513TIP3   OH223029   6.582   3.020   5.330  0.1137  0.3195  0.0218
  513TIP3    H123030   6.612   2.956   5.395 -0.9523 -1.3730 -1.0697
  513TIP3    H223031   6.645   3.092   5.336  1.3502 -0.8101  1.3260
  514TIP3   OH223032   1.243   1.737  13.000  0.0464 -0.5506 -0.1042
  514TIP3    H123033   1.174   1.763  13.061 -0.4020 -0.7989 -0.5001
  514TIP3    H223034   1.324   1.748  13.050 -0.2679 -0.1555  0.3297
  515TIP3   OH223035   3.387   6.285  13.181  0.0781  0.5377  0.0245
  515TIP3    H123036   3.479   6.271  13.160  0.4631 -0.3010  2.1111
  515TIP3    H223037   3.378   6.380  13.186  1.3693  0.6145  1.8346
  516TIP3   OH223038   0.685   2.585  16.918  0.6489 -0.1589  0.0430
  516TIP3    H123039   0.640   2.502  16.902 -2.0405  1.2161 -0.2181
  516TIP3    H223040   0.642   2.621  16.996  1.0695  1.4195 -0.4180
  517TIP3   OH223041   5.408   2.079   2.093 -0.0856  0.2897 -0.2758
  517TIP3    H123042   5.478   2.110   2.151 -0.0765 -0.0818 -0.0886
  517TIP3    H223043   5.449   2.074   2.007  0.5331 -1.3353  0.0862
  518TIP3   OH223044   1.353   2.016   0.612  0.1159 -0.6493  0.1072
  518TIP3    H123045   1.317   2.104   0.628 -0.1550 -0.8537  0.6720
  518TIP3    H223046   1.345   1.972   0.697  0.1466 -1.2582 -0.2018
  519TIP3   OH223047   2.438   0.450  11.707  0.2625 -0.6296  0.2317
  519TIP3    H123048   2.532   0.441  11.718  0.0634 -0.3461  2.7251
  519TIP3    H223049   2.400   0.394  11.775 -1.4119 -1.2791 -1.1399
  520TIP3   OH223050   5.516   3.440   4.496  0.9664  0.2158  0.8506
  520TIP3    H123051   5.519   3.425   4.591  1.2686  0.6185  0.9029
  520TIP3    H223052   5.530   3.534   4.485  3.2813 -0.1401  0.2802
  521TIP3   OH223053   1.201   1.665   3.342 -0.4609  0.5194 -0.6302
  521TIP3    H123054   1.292   1.664   3.316  0.1319  0.2546  1.2774
  521TIP3    H223055   1.171   1.754   3.323  1.8853  2.5677  3.8020
  522TIP3   OH223056   4.231   0.843  16.327  0.9914  1.0869 -0.5237
  522TIP3    H123057   4.327   0.852  16.330  1.4154 -2.3059 -0.0545
  522TIP3    H223058   4.203   0.865  16.416  1.5938  0.1141 -0.0812
  523TIP3   OH223059   2.927   0.428  11.409 -0.1845  0.5186  0.5118
  523TIP3    H123060   3.022   0.440  11.401 -0.2469  0.5224 -0.4090
  523TIP3    H223061   2.909   0.435  11.503  0.5550  1.7996  0.5853
  524TIP3   OH223062   4.079   6.077   5.236  0.7693  0.2375  0.4546
  524TIP3    H123063   4.003   6.051   5.288  0.7947  1.4533  1.1330
  524TIP3    H223064   4.153   6.035   5.278  0.4907 -0.9161 -0.1824
  525TIP3   OH223065   5.707   2.694  16.262 -0.5060  0.3992  0.0482
  525TIP3    H123066   5.741   2.687  16.173  0.5461 -0.2784  0.4874
  525TIP3    H223067   5.663   2.611  16.278 -0.1763  0.2858  0.3696
  526TIP3   OH223068   5.333   6.204   5.268 -0.3619  0.6245 -0.6906
  526TIP3    H123069   5.238   6.217   5.265 -0.6743 -0.2656  2.0382
  526TIP3    H223070   5.345   6.111   5.249 -0.5675 -0.2890  2.8725
  527TIP3   OH223071   3.654   4.259  16.512 -1.0274  0.0258  0.4160
  527TIP3    H123072   3.662   4.208  16.593 -0.0848 -1.6749 -0.6957
  527TIP3    H223073   3.715   4.332  16.524 -1.8415  0.5554  1.7189
  528TIP3   OH223074   4.657   1.473  13.462 -0.3399 -0.0100 -0.6067
  528TIP3    H123075   4.664   1.542  13.397 -2.5447 -0.4876 -1.4099
  528TIP3    H223076   4.748   1.455  13.487  0.3613  2.1967 -1.3711
  529TIP3   OH223077   5.530   3.280  17.224 -0.0086 -0.3032 -0.1000
  529TIP3    H123078   5.537   3.251  17.133 -2.4131 -1.1637 -0.0625
  529TIP3    H223079   5.437   3.278  17.244  0.1671  2.4118  1.6076
  530TIP3   OH223080   1.889   3.222   1.839 -0.7717  0.4894 -0.0588
  530TIP3    H123081   1.811   3.181   1.875 -0.0939  0.0045  0.9070
  530TIP3    H223082   1.942   3.149   1.807 -1.2377  0.8890 -1.8623
  531TIP3   OH223083   3.741   2.318   1.889 -0.2943 -0.3777 -0.2951
  531TIP3    H123084   3.711   2.280   1.972 -4.1706  1.3708 -0.6886
  531TIP3    H223085   3.712   2.256   1.822 -0.8500  0.1437 -0.5478
  532TIP3   OH223086   3.789   5.367  12.619 -0.3955 -1.1045  0.4726
  532TIP3    H123087   3.820   5.370  12.529  0.9944  0.6588  0.9486
  532TIP3    H223088   3.812   5.279  12.649  1.4529 -0.8821 -0.1451
  533TIP3   OH223089   5.586   1.158   5.299 -0.3795  0.2429  0.2196
  533TIP3    H123090   5.498   1.121   5.292  0.2408 -0.9469 -3.8307
  533TIP3    H223091   5.588   1.230   5.237  1.5759  0.0328 -0.0423
  534TIP3   OH223092   6.693   3.130  10.876 -0.2131  0.3363  0.2080
  534TIP3    H123093   6.598   3.138  10.864 -0.1716 -0.1582 -0.5584
  534TIP3    H223094   6.725   3.221  10.876 -0.6350  0.4868 -0.0078
  535TIP3   OH223095   1.277   1.272  13.606  0.7101 -0.2676  0.2392
  535TIP3    H123096   1.259   1.179  13.596 -0.6105  0.0482 -0.4557
  535TIP3    H223097   1.203   1.306  13.657 -2.2525  1.4719 -4.5614
  536TIP3   OH223098   2.630   1.289  10.850  0.2503  0.7031  0.4300
  536TIP3    H123099   2.549   1.340  10.847  0.5052  1.3923  2.9112
  536TIP3    H223100   2.603   1.204  10.885  0.5984  1.0804  1.6864
  537TIP3   OH223101   3.533   5.206   6.473  0.3613  0.3419 -0.6727
  537TIP3    H123102   3.498   5.117   6.479  2.0473 -0.3271  0.2431
  537TIP3    H223103   3.527   5.240   6.563 -0.4732  1.2517 -1.0617
  538TIP3   OH223104   1.648   3.476  12.770  0.4853  0.3321 -0.6149
  538TIP3    H123105   1.575   3.490  12.709 -1.0349 -0.4939  0.9005
  538TIP3    H223106   1.672   3.384  12.757  1.1644  0.5646 -1.0084
  539TIP3   OH223107   5.033   5.095   0.079 -0.6490 -0.1513 -0.0504
  539TIP3    H123108   4.950   5.142   0.092 -0.2088  0.5946  0.1074
  539TIP3    H223109   5.024   5.054  -0.007 -0.9947  0.3208 -0.2445
  540TIP3   OH223110   5.795   6.628  12.051  0.2046  0.4887  0.0867
  540TIP3    H123111   5.800   6.638  11.956 -1.4545  0.1617 -0.0691
  540TIP3    H223112   5.743   6.703  12.080  0.8070  0.6555  0.7546
  541TIP3   OH223113   3.952   1.100  15.635 -0.3642  0.3397  0.2560
  541TIP3    H123114   3.958   1.159  15.559 -1.9536 -1.8841 -1.7535
  541TIP3    H223115   4.042   1.071  15.651 -0.1291 -0.1188 -1.6672
  542TIP3   OH223116   6.724   1.291  11.749 -0.3593  0.2157  0.0919
  542TIP3    H123117   6.764   1.287  11.662 -0.9872 -0.6069 -0.1709
  542TIP3    H223118   6.647   1.235  11.742 -1.6329  1.8299  0.5347
  543TIP3   OH223119   5.574   6.536   1.338 -0.5961 -0.4909 -0.7391
  543TIP3    H123120   5.582   6.461   1.278 -1.1122 -0.2426 -1.1196
  543TIP3    H223121   5.480   6.549   1.348 -0.5087  0.0284 -0.5693
  544TIP3   OH223122   6.670   4.182  15.747 -0.0587 -0.0297  0.6065
  544TIP3    H123123   6.698   4.179  15.656  1.8368  0.7926  1.1170
  544TIP3    H223124   6.628   4.097  15.762 -1.5403  0.3021 -1.3363
  545TIP3   OH223125   4.383   2.185  11.323 -0.7689 -0.2100 -0.0807
  545TIP3    H123126   4.445   2.257  11.335  0.2627 -0.9183 -0.9500
  545TIP3    H223127   4.349   2.167  11.410 -1.1877  1.4410  0.1243
  546TIP3   OH223128   6.137   5.870  16.110 -0.5356  0.1995  0.4602
  546TIP3    H123129   6.171   5.919  16.185  0.6042  0.3280 -0.1219
  546TIP3    H223130   6.042   5.877  16.118 -0.4611 -0.3498  2.2626
  547TIP3   OH223131   6.637   4.662   2.132  0.1880 -0.6306  0.3818
  547TIP3    H123132   6.579   4.675   2.056  1.4880 -0.8516 -0.6862
  547TIP3    H223133   6.623   4.571   2.156 -1.2963 -0.1861  1.3612
  548TIP3   OH223134   3.160   1.424  11.807  0.0946  0.3449 -0.1029
  548TIP3    H123135   3.210   1.409  11.887 -2.6902 -0.7227  1.5851
  548TIP3    H223136   3.126   1.513  11.816 -1.3885 -0.2639  0.6812
  549TIP3   OH223137   2.697   3.063   4.492 -0.0911  0.0823 -0.7955
  549TIP3    H123138   2.647   2.984   4.512  1.6415 -0.7630  0.5307
  549TIP3    H223139   2.749   3.041   4.415  2.0626 -0.9910  0.8365
  550TIP3   OH223140   4.857   5.815  15.383  0.5379 -0.4863  0.3078
  550TIP3    H123141   4.923   5.885  15.386  0.8940 -0.7767 -0.3659
  550TIP3    H223142   4.874   5.763  15.462  0.0039  0.4148  1.0248
  551TIP3   OH223143   5.732   5.648  15.939  0.7942  0.4260  0.0404
  551TIP3    H123144   5.684   5.671  16.018  0.1369 -1.0340  0.1071
  551TIP3    H223145   5.683   5.691  15.868 -0.5858 -0.9076  0.1217
  552TIP3   OH223146   2.464   2.344   0.346 -0.0931  0.0650  0.6083
  552TIP3    H123147   2.514   2.386   0.415  0.1310  1.4915 -0.3845
  552TIP3    H223148   2.372   2.362   0.367 -0.0212  0.5716  0.4870
  553TIP3   OH223149   4.546   3.550   1.675 -0.4379  0.2130 -0.5616
  553TIP3    H123150   4.598   3.550   1.756  0.9108 -2.2478 -1.3231
  553TIP3    H223151   4.481   3.481   1.688 -0.4058  0.0078 -1.4316
  554TIP3   OH223152   2.001   2.690  12.447  0.7152  0.2471 -0.0429
  554TIP3    H123153   1.979   2.748  12.520  0.8475 -0.8580  0.9198
  554TIP3    H223154   1.917   2.666  12.409  0.5817  0.1854  0.2826
  555TIP3   OH223155   0.952   4.668  13.383  0.5686  0.4175  0.1111
  555TIP3    H123156   0.931   4.635  13.471  0.6252 -1.4420 -0.5330
  555TIP3    H223157   1.017   4.606  13.349 -0.4284  0.3045 -1.7299
  556TIP3   OH223158   0.834   3.501  12.391  0.2448 -0.4767 -0.0355
  556TIP3    H123159   0.865   3.453  12.468  1.9115 -0.5661 -0.7254
  556TIP3    H223160   0.766   3.446  12.353  0.7541 -1.3499  0.2990
  557TIP3   OH223161   3.700   1.422   4.219 -0.4223 -0.2331  0.9251
  557TIP3    H123162   3.634   1.484   4.250  1.3017  2.0055  0.4038
  557TIP3    H223163   3.776   1.438   4.276  0.9241  0.0225 -0.8578
  558TIP3   OH223164   3.007   6.232  12.463 -0.1942  0.4202  0.0608
  558TIP3    H123165   2.953   6.163  12.425 -0.7302  0.1306  1.3025
  558TIP3    H223166   2.954   6.267  12.535 -0.1475  2.4715 -0.8330
  559TIP3   OH223167   2.553   4.013  15.416  0.2065 -0.0477  0.1679
  559TIP3    H123168   2.500   3.978  15.344  1.9306  0.1709 -1.2686
  559TIP3    H223169   2.521   4.102  15.429  1.8240  1.0794 -2.5250
  560TIP3   OH223170   6.412   1.949  16.344 -0.2443 -0.2379  0.0711
  560TIP3    H123171   6.335   1.962  16.400  1.2191 -0.0473  2.1622
  560TIP3    H223172   6.438   2.037  16.318  0.2104 -0.1599  0.7561
  561TIP3   OH223173   1.176   5.413  13.366 -0.0562 -0.4694  0.4167
  561TIP3    H123174   1.146   5.437  13.453 -0.7526 -0.0407  0.0726
  561TIP3    H223175   1.133   5.476  13.308  0.2344 -0.8757 -0.2550
  562TIP3   OH223176   3.176   3.948   3.376 -0.6188 -0.1439 -0.0633
  562TIP3    H123177   3.180   3.882   3.306  3.0504  1.0131 -1.1693
  562TIP3    H223178   3.212   3.903   3.453  2.8822  0.6449 -1.0770
  563TIP3   OH223179   2.972   5.796  13.132 -0.2702 -0.0607  0.3093
  563TIP3    H123180   3.030   5.728  13.100 -0.7935 -1.3244  1.9549
  563TIP3    H223181   3.030   5.864  13.167  0.2247 -0.1021 -0.4038
  564TIP3   OH223182   5.522   6.394  11.917 -0.4574  0.2912 -0.5992
  564TIP3    H123183   5.589   6.327  11.907 -0.9698 -0.0111 -2.2539
  564TIP3    H223184   5.548   6.442  11.996  1.2821 -0.2659 -0.7910
  565TIP3   OH223185   5.387   6.583   1.918  0.1495  0.6765 -0.0376
  565TIP3    H123186   5.405   6.516   1.985 -0.6221  0.2559 -0.2367
  565TIP3    H223187   5.380   6.664   1.968  0.3625  0.4954  0.2964
  566TIP3   OH223188   2.581   3.660  13.389  0.2610  0.3841 -0.2002
  566TIP3    H123189   2.616   3.710  13.462  2.2135 -0.9595 -0.1573
  566TIP3    H223190   2.641   3.678  13.316 -0.2251 -0.2552 -0.7728
  567TIP3   OH223191   2.537   0.384  16.977  0.5758 -0.1996  0.5042
  567TIP3    H123192   2.513   0.362  16.887 -0.2498 -1.6605  1.0523
  567TIP3    H223193   2.456   0.415  17.017  0.7367 -0.4075  0.9974
  568TIP3   OH223194   0.979   0.327  16.629  0.6254 -0.0853  0.1334
  568TIP3    H123195   0.942   0.354  16.713  1.6108  1.7207  0.0431
  568TIP3    H223196   1.040   0.257  16.651  0.8556  0.3556  0.9409
  569TIP3   OH223197   1.228   4.788   5.177 -0.3111  0.1187 -0.2906
  569TIP3    H123198   1.291   4.859   5.162  0.6815 -0.0724  2.3624
  569TIP3    H223199   1.143   4.829   5.162  0.3120  1.1310 -1.3239
  570TIP3   OH223200   6.031   2.992   2.579  0.3950  0.1803  0.4019
  570TIP3    H123201   5.955   2.933   2.583 -0.6453  1.3945 -0.4581
  570TIP3    H223202   6.104   2.935   2.556 -0.8050 -0.6520 -1.7074
  571TIP3   OH223203   0.088   4.930   3.535 -0.1536 -0.6328 -0.1918
  571TIP3    H123204   0.141   5.001   3.498 -0.2816  0.0547  0.8979
  571TIP3    H223205   0.101   4.856   3.475  0.6636  0.0486 -0.8748
  572TIP3   OH223206   5.016   4.145  14.969 -0.5770  0.6744 -0.5726
  572TIP3    H123207   4.954   4.177  15.034 -0.7217 -0.1953 -0.2672
  572TIP3    H223208   5.034   4.055  14.995  2.1342  1.3757  0.3670
  573TIP3   OH223209   4.337   4.011   2.947  0.6406 -0.6837  0.2440
  573TIP3    H123210   4.275   4.079   2.922 -0.6306 -2.3884 -1.4572
  573TIP3    H223211   4.346   4.021   3.042 -0.1467  1.2796  0.1612
  574TIP3   OH223212   5.802   2.811  13.365 -0.2533 -0.1517 -0.0356
  574TIP3    H123213   5.731   2.817  13.429 -0.4673 -1.1905 -0.1589
  574TIP3    H223214   5.783   2.880  13.302 -0.0759  0.8404  0.9648
  575TIP3   OH223215   5.780   2.957   5.297  0.0605 -0.0602 -0.3082
  575TIP3    H123216   5.832   2.884   5.329 -2.4122 -1.1325  1.6824
  575TIP3    H223217   5.765   3.011   5.375 -0.4102  1.0618 -1.1606
  576TIP3   OH223218   2.545   6.114  15.920  0.4876  0.2071  0.0776
  576TIP3    H123219   2.467   6.059  15.911 -0.2960  1.1841  0.7098
  576TIP3    H223220   2.616   6.060  15.887 -0.3125 -1.0472  0.3466
  577TIP3   OH223221   0.786   1.315  11.402 -0.2298 -0.5163  0.4096
  577TIP3    H123222   0.791   1.301  11.308  0.6549 -1.8290  0.6220
  577TIP3    H223223   0.712   1.261  11.431 -0.8538  0.3172  0.4150
  578TIP3   OH223224   1.731   6.714   5.267 -0.5593  0.6259 -0.3080
  578TIP3    H123225   1.739   6.802   5.304 -1.7306  0.9422 -0.7508
  578TIP3    H223226   1.783   6.659   5.325 -0.2805  1.5136  0.3115
  579TIP3   OH223227   6.419   1.361   1.218 -0.7139 -0.7096  0.0351
  579TIP3    H123228   6.467   1.429   1.264 -2.0678 -0.0347  0.5210
  579TIP3    H223229   6.437   1.376   1.126 -0.1007 -0.4108  0.2001
  580TIP3   OH223230   2.923   4.870  15.961 -0.7316 -0.1623 -0.6086
  580TIP3    H123231   2.890   4.819  15.887  2.2551 -0.6889 -1.6873
  580TIP3    H223232   2.950   4.805  16.025  0.6943  0.1031 -0.9106
  581TIP3   OH223233   3.733   3.255  11.389 -0.7249  0.1071  0.1220
  581TIP3    H123234   3.750   3.308  11.467 -0.0886 -0.3556  0.3076
  581TIP3    H223235   3.819   3.243  11.348 -1.1353  0.8717 -1.0093
  582TIP3   OH223236   3.871   6.378   2.785 -0.1789  0.1746  0.1742
  582TIP3    H123237   3.808   6.306   2.797  0.2820 -0.3133 -0.2519
  582TIP3    H223238   3.855   6.437   2.859 -1.5757  0.3954 -0.2796
  583TIP3   OH223239   2.929   0.888   6.361 -0.6176  0.4936  0.3975
  583TIP3    H123240   3.009   0.873   6.412  0.0164 -1.1567 -0.9850
  583TIP3    H223241   2.860   0.895   6.426 -0.0668 -2.8474  1.5302
  584TIP3   OH223242   2.658   5.416   4.505 -0.0809  0.1230  0.8981
  584TIP3    H123243   2.589   5.482   4.509 -0.0495  0.3787 -1.2624
  584TIP3    H223244   2.668   5.398   4.411  0.9070 -1.9099  1.3289
  585TIP3   OH223245   3.928   2.967  11.149 -0.1151 -0.1905 -0.2162
  585TIP3    H123246   4.022   2.962  11.133 -0.1155  0.7148 -0.5354
  585TIP3    H223247   3.920   2.963  11.244  0.4005  1.6451 -0.0596
  586TIP3   OH223248   0.151   1.345   4.502 -0.0908  0.0869  0.0107
  586TIP3    H123249   0.179   1.295   4.425 -0.0819  1.0595 -0.6281
  586TIP3    H223250   0.137   1.434   4.470 -1.2565  0.2470  0.8873
  587TIP3   OH223251   1.008   0.881  11.938 -0.1900  0.0556  0.7004
  587TIP3    H123252   1.030   0.901  11.847  0.5097  0.0914  0.8734
  587TIP3    H223253   0.976   0.965  11.974  1.5665  0.6005  1.0758
  588TIP3   OH223254   3.130   3.048  13.994 -0.5461 -0.4845  0.2703
  588TIP3    H123255   3.222   3.074  13.988 -0.4886 -0.6728  0.3181
  588TIP3    H223256   3.081   3.123  13.961 -0.2670 -1.4267 -2.4678
  589TIP3   OH223257   2.372   6.103   3.215 -0.8229  0.2366  0.1728
  589TIP3    H123258   2.324   6.022   3.230 -1.1122  0.4022  0.1501
  589TIP3    H223259   2.403   6.097   3.124 -0.2766 -0.1385  0.3774
  590TIP3   OH223260   5.044   3.816   6.293  0.1801  0.1412 -0.3583
  590TIP3    H123261   5.030   3.819   6.387 -0.5199 -1.3489 -0.3895
  590TIP3    H223262   5.139   3.815   6.282  0.2592 -0.7020  0.3801
  591TIP3   OH223263   3.988   4.251   0.859  0.1959  0.4214  0.1065
  591TIP3    H123264   3.998   4.311   0.784  1.7942 -0.9025 -0.8098
  591TIP3    H223265   4.062   4.273   0.916 -0.2243  0.4765  0.6409
  592TIP3   OH223266   2.069   4.610  14.830  0.1450 -0.0286 -0.3775
  592TIP3    H123267   2.089   4.570  14.914  1.5592 -1.3947 -1.3188
  592TIP3    H223268   2.150   4.655  14.805 -0.6572  1.4307 -0.4528
  593TIP3   OH223269   0.880   0.669   0.106  0.0111  0.1068 -0.1092
  593TIP3    H123270   0.957   0.725   0.106 -0.1463  0.3248  0.1285
  593TIP3    H223271   0.903   0.595   0.162 -0.1078  0.3885  0.3161
  594TIP3   OH223272   6.233   5.267   3.705  0.1314 -0.1056 -0.1437
  594TIP3    H123273   6.241   5.176   3.675 -2.3753  0.3719 -2.6861
  594TIP3    H223274   6.317   5.307   3.682  0.8713 -1.4963  0.0160
  595TIP3   OH223275   3.742   2.207   4.430 -0.2340 -0.5996  0.1067
  595TIP3    H123276   3.732   2.266   4.356  1.5455 -1.6522 -1.0493
  595TIP3    H223277   3.774   2.263   4.501  0.7898 -0.0438 -0.7684
  596TIP3   OH223278   1.394   0.152   3.924 -0.4897  0.0408 -0.4608
  596TIP3    H123279   1.344   0.138   3.844  1.1557  1.7912 -1.8841
  596TIP3    H223280   1.483   0.172   3.894 -0.0068  1.6517  1.7442
  597TIP3   OH223281   0.026   1.797   3.980 -0.1491 -0.0690 -0.5551
  597TIP3    H123282   0.082   1.849   3.922  0.2339  2.4239  1.8310
  597TIP3    H223283  -0.059   1.840   3.975 -0.0596  0.3120  0.7742
  598TIP3   OH223284   1.817   5.866   2.193 -0.1908 -0.1047 -0.1141
  598TIP3    H123285   1.733   5.819   2.200  0.0049 -0.3928  0.3067
  598TIP3    H223286   1.862   5.823   2.120 -0.0788 -0.4738  0.1685
  599TIP3   OH223287   1.916   4.749  15.437  0.0600  0.0382  0.0404
  599TIP3    H123288   1.998   4.787  15.405  0.5515 -0.7535  0.3225
  599TIP3    H223289   1.918   4.764  15.531 -0.0710 -0.0781  0.0614
  600TIP3   OH223290   6.011   1.793  10.792  0.1287  0.1081  0.2822
  600TIP3    H123291   6.023   1.819  10.883 -0.7436  0.1456  0.3906
  600TIP3    H223292   6.089   1.741  10.772 -0.2235 -0.9159  1.4139
  601TIP3   OH223293   0.302   3.729   3.664  0.0727  0.0243  0.3727
  601TIP3    H123294   0.371   3.716   3.730  0.6817 -0.3652 -0.3188
  601TIP3    H223295   0.347   3.772   3.591 -0.2295 -0.9362 -0.4053
  602TIP3   OH223296   6.129   0.838   3.154 -0.4579 -0.1562 -0.0257
  602TIP3    H123297   6.111   0.931   3.144  0.4543 -0.0371 -0.6027
  602TIP3    H223298   6.098   0.817   3.242 -1.7315  0.4251 -0.3129
  603TIP3   OH223299   5.416   5.467  16.994 -0.6849  0.1305  0.2629
  603TIP3    H123300   5.470   5.543  17.017 -1.1846  0.6026 -0.0975
  603TIP3    H223301   5.473   5.392  17.010  0.1725  0.6306 -0.3492
  604TIP3   OH223302   3.921   3.507  15.970 -0.1406  0.1447  0.1193
  604TIP3    H123303   3.975   3.459  15.908  1.2218  0.9958  0.6009
  604TIP3    H223304   3.901   3.443  16.039 -0.0027 -0.2570 -0.2087
  605TIP3   OH223305   1.602   0.328  14.628 -0.3888 -0.1012 -0.0612
  605TIP3    H123306   1.527   0.346  14.685  0.1281  1.1603  0.2632
  605TIP3    H223307   1.673   0.305  14.688 -1.1011 -4.0172 -0.4550
  606TIP3   OH223308   5.506   2.552   1.032  0.3630  0.3621  0.3039
  606TIP3    H123309   5.424   2.518   0.995 -1.8293  2.5949  2.7268
  606TIP3    H223310   5.529   2.489   1.100  0.6835 -0.2282 -0.3304
  607TIP3   OH223311   5.013   3.925  13.356 -0.0888  0.2954 -0.1641
  607TIP3    H123312   4.966   4.008  13.360 -0.2096  0.2306 -0.2296
  607TIP3    H223313   5.041   3.916  13.265  0.8582  0.7747  0.0737
  608TIP3   OH223314   3.765   0.811  16.185  0.2737 -0.2472 -0.3408
  608TIP3    H123315   3.754   0.858  16.268  3.5995  0.0537  0.0450
  608TIP3    H223316   3.737   0.875  16.119 -2.1786 -0.4035  0.4195
  609TIP3   OH223317   3.983   4.782  15.571  0.3816  0.6111 -0.2840
  609TIP3    H123318   3.980   4.853  15.507  0.2330  2.4086  1.6090
  609TIP3    H223319   4.023   4.821  15.649  1.4383 -1.7407  0.4502
  610TIP3   OH223320   0.629   5.608  11.398 -0.0934 -0.2052  0.3113
  610TIP3    H123321   0.656   5.586  11.308  1.6977 -1.0736  1.0161
  610TIP3    H223322   0.701   5.660  11.432 -0.9908  0.5407  1.1023
  611TIP3   OH223323   5.737   4.565   3.484 -0.6030  0.3544  0.6350
  611TIP3    H123324   5.797   4.543   3.555 -0.5986 -0.3561  0.4214
  611TIP3    H223325   5.793   4.575   3.407 -0.5916  1.2638  0.7520
  612TIP3   OH223326   6.595   5.550  12.074 -0.0040  0.1181  0.1059
  612TIP3    H123327   6.530   5.481  12.057  0.8830 -0.6492 -0.2765
  612TIP3    H223328   6.665   5.534  12.011  1.4168 -0.2236  1.6734
  613TIP3   OH223329   2.226   1.198   5.718  0.7391  0.1888  0.0649
  613TIP3    H123330   2.178   1.281   5.720  0.3444 -0.0060 -0.7530
  613TIP3    H223331   2.299   1.211   5.778 -0.3926  0.4627  1.4373
  614TIP3   OH223332   3.600   6.342   3.867 -0.1910  0.7347  0.4151
  614TIP3    H123333   3.625   6.263   3.915  0.9209  0.5896 -0.3792
  614TIP3    H223334   3.682   6.379   3.837 -0.7027  2.2322  0.8063
  615TIP3   OH223335   0.636   4.207  11.259 -0.1365  0.2132  0.8509
  615TIP3    H123336   0.590   4.124  11.267  2.1206 -1.2229 -0.1715
  615TIP3    H223337   0.637   4.225  11.165  2.1680 -0.3254  0.7249
  616TIP3   OH223338   0.067   4.956   1.559  1.0139  0.1811 -0.9627
  616TIP3    H123339   0.019   4.913   1.630  2.2616  0.5741  0.1591
  616TIP3    H223340   0.152   4.914   1.558  1.1961  0.5470 -1.8933
  617TIP3   OH223341   2.776   2.083  14.616 -0.0988  0.1551  0.0540
  617TIP3    H123342   2.786   2.145  14.688  0.7443  0.5200 -0.3588
  617TIP3    H223343   2.761   1.999  14.659 -1.7060  0.6888  0.6129
  618TIP3   OH223344   6.137   4.262  16.377 -0.1764  0.3576 -0.2234
  618TIP3    H123345   6.088   4.340  16.352  0.0038 -0.3257 -2.9671
  618TIP3    H223346   6.150   4.214  16.296  2.3154 -1.0798  0.9047
  619TIP3   OH223347   0.412   1.152  17.072 -0.7538  0.6925  0.1913
  619TIP3    H123348   0.490   1.103  17.099 -0.2155  1.4367  0.0180
  619TIP3    H223349   0.439   1.198  16.993 -2.8250 -2.8961 -2.9630
  620TIP3   OH223350   5.627   1.998  13.478 -0.0076 -0.3460  0.0318
  620TIP3    H123351   5.632   2.012  13.384  1.4275 -0.9577  0.0003
  620TIP3    H223352   5.715   1.973  13.504 -0.7996 -2.1327  1.2134
  621TIP3   OH223353   0.980   4.263  12.959  0.4958  0.4299 -0.2175
  621TIP3    H123354   1.043   4.292  12.892  1.1305  1.0504  0.6354
  621TIP3    H223355   0.902   4.239  12.909  1.0263  0.7015 -1.2017
  622TIP3   OH223356   6.034   6.733  15.720  0.4121 -0.1929  0.7364
  622TIP3    H123357   6.105   6.732  15.656 -0.2203  1.9300 -0.0807
  622TIP3    H223358   6.064   6.793  15.788  0.6417 -1.6469  1.9775
  623TIP3   OH223359   2.707   4.713   0.044  0.6412  0.2078 -0.1248
  623TIP3    H123360   2.705   4.700  -0.051 -1.4513 -2.4168  0.1426
  623TIP3    H223361   2.633   4.772   0.062  0.3003 -0.2311 -0.0616
  624TIP3   OH223362   0.194   4.585   0.698  0.1390  0.3854  0.1011
  624TIP3    H123363   0.263   4.607   0.760  2.6042  1.3499 -2.7064
  624TIP3    H223364   0.157   4.669   0.672  0.5216  0.2200 -1.0796
  625TIP3   OH223365   4.778   3.935   2.411  0.0082  1.1306  0.0816
  625TIP3    H123366   4.762   3.989   2.334  1.0270  0.3256 -0.7147
  625TIP3    H223367   4.817   3.996   2.475  2.3375  1.1547 -1.2385
  626TIP3   OH223368   5.708   4.136  14.592  0.2507  0.4519  0.3022
  626TIP3    H123369   5.721   4.107  14.682 -2.9704 -0.4295  0.6086
  626TIP3    H223370   5.771   4.086  14.541  1.3386  0.0957  1.9223
  627TIP3   OH223371   5.777   2.682  15.084  0.0763 -0.4768 -0.0013
  627TIP3    H123372   5.867   2.714  15.086  0.1361 -0.6456  0.0836
  627TIP3    H223373   5.728   2.747  15.134  0.1303 -0.3233 -0.1462
  628TIP3   OH223374   0.076   6.232   1.036  0.5555 -0.2302 -0.7200
  628TIP3    H123375   0.098   6.325   1.028 -0.1006 -0.1419 -1.5516
  628TIP3    H223376   0.143   6.187   0.985  1.6740 -0.3384  0.7702
  629TIP3   OH223377   4.658   1.449   0.113  0.1901 -0.2610 -0.5506
  629TIP3    H123378   4.583   1.492   0.073 -0.7682  2.1385  3.3579
  629TIP3    H223379   4.625   1.365   0.143 -0.0524 -0.4964 -1.4421
  630TIP3   OH223380   1.878   4.487  13.646 -0.2841  0.0976  0.0309
  630TIP3    H123381   1.836   4.401  13.650  0.9701 -0.5185  0.6914
  630TIP3    H223382   1.823   4.543  13.701 -0.8015 -0.4224  0.0503
  631TIP3   OH223383   0.790   2.173   5.131 -0.0927 -0.2910  0.0015
  631TIP3    H123384   0.725   2.193   5.064 -0.3309 -3.3399 -0.8270
  631TIP3    H223385   0.743   2.116   5.193  0.9510  0.0181  1.1088
  632TIP3   OH223386   1.013   0.153  14.524 -0.3672  0.2061 -0.0094
  632TIP3    H123387   0.976   0.083  14.577 -0.5202 -0.2540 -0.7143
  632TIP3    H223388   1.079   0.110  14.469  0.6294  0.8730  0.6190
  633TIP3   OH223389   2.284   4.953  12.399  0.5128 -0.0721 -0.3617
  633TIP3    H123390   2.336   4.873  12.392 -0.6496 -0.9103  0.2979
  633TIP3    H223391   2.227   4.952  12.322  2.8166  1.9351 -2.2902
  634TIP3   OH223392   6.277   4.264  11.363 -0.7546  0.5554 -0.1375
  634TIP3    H123393   6.201   4.322  11.374 -1.6596 -0.7490  1.0067
  634TIP3    H223394   6.248   4.200  11.298 -0.5555  0.1864  0.1352
  635TIP3   OH223395   6.498   0.839  16.667 -0.3906 -0.0392 -0.0368
  635TIP3    H123396   6.524   0.823  16.758 -0.1700 -0.3165 -0.1467
  635TIP3    H223397   6.412   0.881  16.674 -1.3316 -1.9336  0.2459
  636TIP3   OH223398   4.133   0.215   6.708 -0.4297 -0.0754 -0.4146
  636TIP3    H123399   4.056   0.160   6.723  0.9003 -1.8401  0.3743
  636TIP3    H223400   4.187   0.165   6.646  0.8702  0.2540  0.3988
  637TIP3   OH223401   5.855   3.721  12.358 -0.5623 -0.1504  0.3616
  637TIP3    H123402   5.927   3.784  12.352  2.1135 -3.0121 -0.0083
  637TIP3    H223403   5.783   3.762  12.310  1.8121  1.6198 -1.9735
  638TIP3   OH223404   5.777   2.467   6.205 -0.0613  0.1725  0.1070
  638TIP3    H123405   5.734   2.468   6.290  0.9231 -0.4187  0.6263
  638TIP3    H223406   5.866   2.498   6.222  0.6361 -1.4451 -0.3974
  639TIP3   OH223407   5.566   0.217   2.278  0.4898  0.3046  0.1334
  639TIP3    H123408   5.480   0.258   2.278  0.1553 -0.3697  1.1069
  639TIP3    H223409   5.582   0.194   2.187 -0.7018 -0.2755  0.0607
  640TIP3   OH223410   2.717   5.979  15.754 -0.0158 -0.3866  0.2337
  640TIP3    H123411   2.699   5.936  15.671 -1.0649 -1.5801  1.0298
  640TIP3    H223412   2.808   6.009  15.747 -0.1571 -0.2551 -1.4018
  641TIP3   OH223413   5.303   2.450  17.300 -0.4346 -0.3620 -0.0044
  641TIP3    H123414   5.300   2.438  17.395 -0.2500 -1.7593 -0.1504
  641TIP3    H223415   5.247   2.526  17.284 -1.4517 -0.8352  1.1196
  642TIP3   OH223416   6.344   4.789  15.561  0.0565  0.4664 -0.0527
  642TIP3    H123417   6.413   4.771  15.625 -0.5396  1.0529  0.7896
  642TIP3    H223418   6.361   4.729  15.489 -0.5710 -1.9254  1.6657
  643TIP3   OH223419   2.981   0.053  15.478  0.2140 -0.0354  0.3260
  643TIP3    H123420   3.015   0.110  15.408 -0.7481  0.4885  0.2607
  643TIP3    H223421   2.948   0.114  15.544  0.3076 -0.5318  0.8400
  644TIP3   OH223422   1.119   5.264  14.497  0.4662  0.3308  0.3936
  644TIP3    H123423   1.132   5.358  14.489 -2.7088  0.7310 -2.2338
  644TIP3    H223424   1.087   5.237  14.411  0.1242 -2.9419  1.4143
  645TIP3   OH223425   2.151   3.437  15.126 -0.1453  0.1873 -0.0525
  645TIP3    H123426   2.120   3.509  15.180  1.0944  0.4071  0.4113
  645TIP3    H223427   2.118   3.455  15.039 -1.5833  0.2123  0.4820
  646TIP3   OH223428   5.536   1.045  11.836  0.0205  0.5749 -0.4287
  646TIP3    H123429   5.549   1.002  11.921  2.1457  1.0815 -0.4623
  646TIP3    H223430   5.611   1.018  11.784 -0.6029  1.2936 -1.7384
  647TIP3   OH223431   6.172   0.626   4.202 -0.3275 -0.1513 -0.5449
  647TIP3    H123432   6.235   0.574   4.253 -0.9785 -0.2278  0.2004
  647TIP3    H223433   6.162   0.577   4.120  0.0515 -0.5129 -0.3826
  648TIP3   OH223434   3.555   0.206  16.729 -0.8490  0.0658  0.3944
  648TIP3    H123435   3.607   0.217  16.808  0.4596 -0.1248 -0.4072
  648TIP3    H223436   3.492   0.278  16.732 -0.2481  0.5738  1.1740
  649TIP3   OH223437   2.162   0.397   4.360 -0.3944  0.0307  0.2419
  649TIP3    H123438   2.249   0.395   4.400  0.7534 -1.4582 -2.1393
  649TIP3    H223439   2.132   0.487   4.373  1.9743  0.8962  0.2083
  650TIP3   OH223440   3.057   1.413   5.418 -0.1193  0.5496 -0.5772
  650TIP3    H123441   3.020   1.417   5.507  0.1747 -1.4240 -0.3095
  650TIP3    H223442   3.038   1.323   5.389 -2.5018  1.8598 -3.5592
  651TIP3   OH223443   0.217   2.791   4.833  0.3960 -0.3327  0.5218
  651TIP3    H123444   0.214   2.707   4.787  0.5506  0.0343 -0.1729
  651TIP3    H223445   0.147   2.842   4.795  0.6453  0.0447  0.5635
  652TIP3   OH223446   5.359   1.414   5.388 -0.1871 -0.0698  0.2273
  652TIP3    H123447   5.331   1.505   5.380  0.3308  0.2997  2.1810
  652TIP3    H223448   5.281   1.368   5.421 -0.0272 -0.0504  0.6349
  653TIP3   OH223449   4.384   6.720  12.975  0.3138  0.0597 -0.4724
  653TIP3    H123450   4.355   6.809  12.956  1.1688  0.4523  0.0023
  653TIP3    H223451   4.383   6.714  13.071  2.3923  0.3281 -0.3861
  654TIP3   OH223452   1.266   5.976  16.365 -0.2230 -0.1221 -0.0504
  654TIP3    H123453   1.285   5.939  16.452  3.2496 -0.0719 -0.6615
  654TIP3    H223454   1.250   6.069  16.381  1.0503  0.0199  0.5213
  655TIP3   OH223455   3.003   2.159  14.517 -0.1997 -0.0222 -0.3222
  655TIP3    H123456   2.912   2.131  14.527 -0.5240  0.8015 -0.8531
  655TIP3    H223457   3.054   2.080  14.532 -1.1334 -1.2702 -3.0273
  656TIP3   OH223458   3.581   3.293  13.843  0.4580  0.5076  0.0798
  656TIP3    H123459   3.606   3.297  13.751 -1.1069  1.0095 -0.3597
  656TIP3    H223460   3.661   3.267  13.889  1.4436  0.9280 -1.3349
  657TIP3   OH223461   5.265   3.243  12.240  0.1478  0.0768  0.3808
  657TIP3    H123462   5.324   3.204  12.175  0.9294  1.2119  0.3878
  657TIP3    H223463   5.197   3.285  12.187  0.0254 -0.1678  0.3413
  658TIP3   OH223464   1.087   4.188  13.211 -0.2295  0.3977 -0.0178
  658TIP3    H123465   1.016   4.161  13.269 -0.2974  0.6789  0.0351
  658TIP3    H223466   1.049   4.188  13.124 -0.4654  1.0934  0.0717
  659TIP3   OH223467   2.846   6.650   0.782  0.7689 -0.5932 -0.0997
  659TIP3    H123468   2.808   6.589   0.720  0.2268 -0.0253 -0.3385
  659TIP3    H223469   2.882   6.595   0.851 -0.8866 -1.1606  0.3697
  660TIP3   OH223470   2.221   4.133   5.087  0.3102  0.0149  0.1837
  660TIP3    H123471   2.128   4.152   5.094  0.1726  0.8410 -2.6511
  660TIP3    H223472   2.259   4.213   5.048  2.1866 -0.3399  1.1684
  661TIP3   OH223473   2.978   1.332  12.108 -0.0140  0.0376  0.4173
  661TIP3    H123474   2.951   1.339  12.016  1.0813  0.1569  0.0974
  661TIP3    H223475   2.895   1.323  12.155 -0.5240 -2.6045 -0.7668
  662TIP3   OH223476   6.076   5.050   4.006 -0.4626 -0.4500 -0.0436
  662TIP3    H123477   6.149   5.016   3.954  0.6163 -1.8666  2.2201
  662TIP3    H223478   5.999   5.037   3.951  0.5814 -1.9916 -1.2246
  663TIP3   OH223479   6.626   1.571  13.056  0.2248 -0.2791  0.5512
  663TIP3    H123480   6.668   1.656  13.043 -2.1872  1.2344  1.8411
  663TIP3    H223481   6.622   1.532  12.968  2.0304  0.5730  0.0494
  664TIP3   OH223482   5.712   2.840  14.012  0.2117  0.1119  0.4135
  664TIP3    H123483   5.802   2.851  14.044  0.6396 -0.4171 -0.5852
  664TIP3    H223484   5.664   2.914  14.051  1.0417  0.3376  1.0436
  665TIP3   OH223485   0.667   5.862  16.819  0.0639  0.3096 -0.8527
  665TIP3    H123486   0.642   5.953  16.803 -1.0431 -0.2653 -2.7624
  665TIP3    H223487   0.625   5.840  16.902 -2.1191  0.7385 -1.7714
  666TIP3   OH223488   0.937   4.702   4.678  0.1339  0.3495 -0.3859
  666TIP3    H123489   0.944   4.757   4.600 -1.0859 -0.2504 -0.9354
  666TIP3    H223490   0.877   4.632   4.653 -1.6475  1.0498  1.5936
  667TIP3   OH223491   4.949   5.761  14.862 -0.3049 -0.4436 -0.1401
  667TIP3    H123492   4.934   5.669  14.842  0.0221 -0.7737  1.0179
  667TIP3    H223493   5.007   5.759  14.939  0.1382  0.7286 -0.4242
  668TIP3   OH223494   2.025   6.373  15.745  0.0643  0.1005 -0.4989
  668TIP3    H123495   2.047   6.424  15.667 -0.0470 -0.1748 -0.7096
  668TIP3    H223496   2.087   6.404  15.811  0.6469 -0.1832 -0.9002
  669TIP3   OH223497   4.508   3.149   2.764 -0.0108  0.3292 -0.0544
  669TIP3    H123498   4.546   3.150   2.852 -1.2336  0.1181  0.5005
  669TIP3    H223499   4.575   3.188   2.708  0.1607  1.9944  1.2353
  670TIP3   OH223500   0.180   2.211   1.751 -0.4056 -0.1496  0.7517
  670TIP3    H123501   0.178   2.143   1.684 -2.5195  0.6816 -0.1064
  670TIP3    H223502   0.108   2.270   1.728  1.7030  2.7723  1.0504
  671TIP3   OH223503   4.470   6.502   6.063 -0.3420 -0.5989  0.4417
  671TIP3    H123504   4.564   6.513   6.075 -0.5827  0.5401  1.6047
  671TIP3    H223505   4.434   6.590   6.075 -1.5089 -0.9150 -0.5223
  672TIP3   OH223506   4.814   5.362  12.171  0.1083  0.1177  0.3173
  672TIP3    H123507   4.870   5.404  12.236  0.9698 -1.9507  0.9953
  672TIP3    H223508   4.830   5.410  12.090  0.6293  1.3889  1.1538
  673TIP3   OH223509   1.438   1.756  15.430 -0.5474 -0.0654 -0.0642
  673TIP3    H123510   1.425   1.662  15.438  1.8219 -0.5029 -0.5221
  673TIP3    H223511   1.504   1.777  15.497  0.2044  0.9414 -1.0750
  674TIP3   OH223512   0.141   0.048  15.155  0.4359 -0.5504 -0.0898
  674TIP3    H123513   0.074   0.117  15.149  0.5292 -0.5285 -1.0905
  674TIP3    H223514   0.213   0.080  15.101  0.2908 -1.6298 -0.9791
  675TIP3   OH223515   2.984   6.477   5.540  0.0677 -0.4879  0.2309
  675TIP3    H123516   2.971   6.522   5.623 -1.2008  2.4950 -1.4259
  675TIP3    H223517   2.895   6.450   5.514  0.4191 -1.1500 -0.3200
  676TIP3   OH223518   2.477   5.531   0.187 -0.3943 -0.1543  0.2061
  676TIP3    H123519   2.499   5.582   0.109  0.5085 -0.1761  0.4286
  676TIP3    H223520   2.560   5.526   0.235 -1.2125  1.0672  1.8646
  677TIP3   OH223521   0.617   5.795   5.086 -0.2576  0.2931  0.4711
  677TIP3    H123522   0.562   5.817   5.161 -0.3601  2.2484 -0.1054
  677TIP3    H223523   0.565   5.822   5.010  0.2863 -0.6285 -0.2420
  678TIP3   OH223524   2.642   2.806   1.372  0.2472 -0.0492  0.2032
  678TIP3    H123525   2.597   2.842   1.296 -1.6445  0.5388  1.5559
  678TIP3    H223526   2.730   2.845   1.369 -0.2479  1.0062 -0.9246
  679TIP3   OH223527   1.015   1.772   1.770  0.0263 -0.6015  0.2917
  679TIP3    H123528   0.924   1.786   1.744  0.5356  0.4282 -1.0604
  679TIP3    H223529   1.009   1.730   1.856 -1.6999  0.6751  0.8477
  680TIP3   OH223530   6.114   0.067   3.180  0.2947 -0.1734  0.0169
  680TIP3    H123531   6.058   0.084   3.256  0.2441  1.0849 -0.2828
  680TIP3    H223532   6.055   0.073   3.105  0.8702  1.5337 -0.3301
  681TIP3   OH223533   0.631   0.376   4.678  0.2834  0.5536 -0.0916
  681TIP3    H123534   0.625   0.338   4.766  0.7359 -0.2385 -0.3889
  681TIP3    H223535   0.598   0.465   4.688  1.5005  0.9157  1.1685
  682TIP3   OH223536   0.264   5.838  13.335 -0.2260 -0.5154  0.3966
  682TIP3    H123537   0.190   5.873  13.285 -0.0933 -0.2383  0.3896
  682TIP3    H223538   0.281   5.753  13.296  0.5343  0.1284 -0.7210
  683TIP3   OH223539   0.673   4.828   2.632  0.0625 -0.4333 -0.7535
  683TIP3    H123540   0.661   4.749   2.684  1.4159 -0.4890 -0.4879
  683TIP3    H223541   0.728   4.884   2.686  0.5713 -0.0392 -1.6513
  684TIP3   OH223542   0.474   1.305   2.940  0.5240  0.1418 -0.4211
  684TIP3    H123543   0.498   1.378   2.882  0.3360 -0.4367 -1.2460
  684TIP3    H223544   0.547   1.299   3.002  0.6591  0.8719 -0.4993
  685TIP3   OH223545   6.617   4.524   3.741 -0.2217  0.0825  0.3118
  685TIP3    H123546   6.647   4.584   3.672 -1.0255  0.7812  0.5576
  685TIP3    H223547   6.695   4.475   3.765  0.6816  1.6703  0.7499
  686TIP3   OH223548   3.847   0.385  12.116 -0.0507 -0.1007 -0.2340
  686TIP3    H123549   3.930   0.399  12.070  0.5661  1.4405  1.2373
  686TIP3    H223550   3.796   0.328  12.057  0.9117  1.2417 -2.5170
  687TIP3   OH223551   4.199   1.316   3.040 -0.3137  0.0003 -0.1060
  687TIP3    H123552   4.166   1.257   2.973 -1.1990 -0.8445  1.0233
  687TIP3    H223553   4.130   1.317   3.107  1.0036 -0.0791  1.3068
  688TIP3   OH223554   4.634   0.611  16.855  0.6102  0.8582  0.0781
  688TIP3    H123555   4.721   0.590  16.889  0.4960  2.2153  1.3257
  688TIP3    H223556   4.578   0.540  16.886  1.0154  0.7079  0.4788
  689TIP3   OH223557   4.595   1.967   0.443 -0.9215  0.0771 -0.6927
  689TIP3    H123558   4.645   1.919   0.509  1.9258  0.2691 -2.5319
  689TIP3    H223559   4.631   2.055   0.445 -2.5652  0.7872 -0.8255
  690TIP3   OH223560   3.073   3.975   5.598 -0.3430 -0.8797 -0.2820
  690TIP3    H123561   2.981   3.991   5.622 -0.2682  1.5490 -1.3055
  690TIP3    H223562   3.099   4.054   5.550  1.7315 -2.3311 -1.6983
  691TIP3   OH223563   5.074   1.683  14.604  0.7645  0.2280 -0.0339
  691TIP3    H123564   5.134   1.659  14.675 -0.4985  2.3254  1.8657
  691TIP3    H223565   4.995   1.632  14.621 -0.5167  2.6086  1.7709
  692TIP3   OH223566   5.500   6.815  13.696  0.0824  0.6402  0.2586
  692TIP3    H123567   5.539   6.781  13.615 -1.7925  0.7945 -0.7674
  692TIP3    H223568   5.450   6.892  13.668 -0.6286  0.6839  1.5734
  693TIP3   OH223569   5.521   2.102   1.832 -0.1940  0.0189 -0.6735
  693TIP3    H123570   5.449   2.109   1.770  0.7481  4.4948 -1.6410
  693TIP3    H223571   5.599   2.122   1.780  1.4803 -2.1004  0.8454
  694TIP3   OH223572   3.915   6.553  15.538  0.0241  0.0286  0.4750
  694TIP3    H123573   3.997   6.601  15.529  0.5324 -0.7993  0.6097
  694TIP3    H223574   3.899   6.517  15.450 -0.7281  1.0150  0.1906
  695TIP3   OH223575   6.760   5.595   5.041  0.3880 -0.2766 -0.0246
  695TIP3    H123576   6.822   5.626   5.108  0.0679  0.9681 -0.2733
  695TIP3    H223577   6.803   5.616   4.958 -0.5928  1.1396 -0.2034
  696TIP3   OH223578   1.670   0.339   2.097 -0.3789 -0.2385 -0.9019
  696TIP3    H123579   1.622   0.270   2.142 -1.3059 -0.7051 -2.5064
  696TIP3    H223580   1.756   0.300   2.080  1.0881  0.9647  2.8847
  697TIP3   OH223581   4.772   3.829  12.177 -0.3054  0.4352  0.1374
  697TIP3    H123582   4.801   3.831  12.086 -2.4085  1.2955 -0.5677
  697TIP3    H223583   4.763   3.921  12.202  1.6660  0.2790  1.7764
  698TIP3   OH223584   2.614   6.698   5.351 -0.6415  0.0043  0.2878
  698TIP3    H123585   2.608   6.690   5.446  1.0145  0.5983  0.4700
  698TIP3    H223586   2.529   6.668   5.319 -1.5972  0.7498  2.0024
  699TIP3   OH223587   0.984   3.651  11.178 -0.0589  0.1911 -0.5183
  699TIP3    H123588   0.916   3.633  11.113 -0.5063  0.6903 -0.1918
  699TIP3    H223589   1.066   3.649  11.128 -0.1597 -1.6749 -0.7083
  700TIP3   OH223590   6.013   0.531   6.603 -0.1056 -0.3482 -0.0498
  700TIP3    H123591   6.061   0.523   6.685  0.1992  0.0886 -0.1835
  700TIP3    H223592   5.963   0.613   6.613 -0.6936 -0.7045  0.0196
  701TIP3   OH223593   3.590   0.377  13.070 -0.1823 -0.1667 -0.1643
  701TIP3    H123594   3.678   0.405  13.095  0.4544 -0.9316 -1.4084
  701TIP3    H223595   3.591   0.282  13.082 -1.2360 -0.0610  0.9035
  702TIP3   OH223596   0.826   2.110   1.890  0.3200 -0.4257  0.1257
  702TIP3    H123597   0.859   2.170   1.957  1.8388 -1.1348  0.0475
  702TIP3    H223598   0.837   2.159   1.808 -0.1533 -0.1256  0.2364
  703TIP3   OH223599   0.095   1.337  14.170  0.1991  0.0035 -0.1099
  703TIP3    H123600   0.062   1.255  14.134  1.3031 -0.2016 -0.7053
  703TIP3    H223601   0.017   1.383  14.200 -0.5785 -0.6385 -1.0723
  704TIP3   OH223602   0.669   2.368   0.303 -0.3223 -0.1930  0.2232
  704TIP3    H123603   0.628   2.334   0.382  1.7372 -2.0923  0.5752
  704TIP3    H223604   0.747   2.414   0.334 -0.3047  0.3540 -0.6122
  705TIP3   OH223605   1.005   6.733  16.878  0.2717 -0.0386 -0.3610
  705TIP3    H123606   0.973   6.770  16.796  0.4224 -0.3292 -0.5533
  705TIP3    H223607   1.097   6.712  16.860 -0.0494 -1.3674 -0.5621
  706TIP3   OH223608   5.437   3.721  13.772  0.3956  0.4595  0.2438
  706TIP3    H123609   5.430   3.750  13.681  0.3483 -0.2508  0.0176
  706TIP3    H223610   5.473   3.797  13.819 -1.2941  1.4827 -0.0124
  707TIP3   OH223611   6.763   4.820   3.793 -0.3247  0.1334 -0.0632
  707TIP3    H123612   6.670   4.831   3.813 -0.6670 -3.9853  1.6593
  707TIP3    H223613   6.775   4.864   3.709 -3.3609  2.3072  0.4795
  708TIP3   OH223614   2.771   5.920  13.827 -0.4840  0.3776  0.0827
  708TIP3    H123615   2.844   5.891  13.773  0.8039  0.6676  1.6027
  708TIP3    H223616   2.812   5.971  13.898 -2.1665  0.6835  0.8851
  709TIP3   OH223617   1.128   4.897   2.748  0.8376  0.0169 -0.4076
  709TIP3    H123618   1.039   4.879   2.778  0.7816  1.8236  0.6593
  709TIP3    H223619   1.183   4.877   2.824  1.1958  0.2320 -0.6077
  710TIP3   OH223620   5.202   3.045  16.312  0.2245  0.7803 -0.2726
  710TIP3    H123621   5.150   3.087  16.380  0.7120 -1.8965  1.9548
  710TIP3    H223622   5.137   3.014  16.248 -0.6222  0.4843  0.7018
  711TIP3   OH223623   4.624   1.281   3.637  0.5047  0.0822  0.4065
  711TIP3    H123624   4.538   1.253   3.668  0.0994  0.6971 -0.1181
  711TIP3    H223625   4.647   1.355   3.694 -1.3476  2.8547 -2.0790
  712TIP3   OH223626   0.038   2.227  12.625 -0.3875  0.0888 -0.1483
  712TIP3    H123627  -0.047   2.226  12.668 -0.2595  0.4375  0.1193
  712TIP3    H223628   0.020   2.199  12.535 -0.6123 -0.9514  0.2050
  713TIP3   OH223629   1.816   0.711   5.357  0.1667 -0.1622  0.0212
  713TIP3    H123630   1.842   0.759   5.279  1.4009  1.5169  1.3825
  713TIP3    H223631   1.723   0.731   5.368 -0.0017 -0.3600 -0.9537
  714TIP3   OH223632   0.304   2.942  13.420 -0.2736 -0.1091  0.6137
  714TIP3    H123633   0.347   3.020  13.455  0.4259  0.5673 -1.5574
  714TIP3    H223634   0.346   2.868  13.464  1.2518  0.6556  0.4925
  715TIP3   OH223635   3.640   3.606   2.648  0.3989 -0.3082 -0.2664
  715TIP3    H123636   3.560   3.573   2.687  0.5365 -0.8352 -0.4245
  715TIP3    H223637   3.666   3.539   2.585  1.2091 -0.3567  0.1046
  716TIP3   OH223638   4.652   1.076  12.638  0.6189 -0.5800  0.1892
  716TIP3    H123639   4.732   1.129  12.646  0.2860 -0.1956  1.1879
  716TIP3    H223640   4.633   1.049  12.728 -1.8651  1.5839  0.4422
  717TIP3   OH223641   3.437   3.428   3.327 -0.2246  0.2189 -0.1548
  717TIP3    H123642   3.357   3.448   3.278  0.1287 -1.1472 -1.3638
  717TIP3    H223643   3.413   3.354   3.382  0.7612 -1.8394 -2.3135
  718TIP3   OH223644   3.986   5.101  13.497 -0.0441  0.4126  0.0689
  718TIP3    H123645   3.998   5.188  13.459  0.9034  0.6692  0.9048
  718TIP3    H223646   3.926   5.115  13.570 -0.0898  0.3238  0.0481
  719TIP3   OH223647   3.741   6.520  14.652  0.0753  0.0162  0.0408
  719TIP3    H123648   3.726   6.473  14.570 -0.7630  1.1622 -0.5005
  719TIP3    H223649   3.813   6.580  14.632 -1.0945  1.3426 -0.3435
  720TIP3   OH223650   1.907   6.292   1.580 -0.2910 -0.1821  0.4592
  720TIP3    H123651   1.834   6.258   1.530 -0.8143  1.0196  0.3806
  720TIP3    H223652   1.960   6.341   1.516 -0.4236  0.5075  0.8606
  721TIP3   OH223653   4.821   4.123  13.325  0.0742 -0.3403  0.2330
  721TIP3    H123654   4.746   4.090  13.277 -0.9766  2.4998 -0.2436
  721TIP3    H223655   4.789   4.200  13.371  2.5469  0.6271  0.5052
  722TIP3   OH223656   3.233   0.368  12.209 -0.3907 -0.1452  0.7466
  722TIP3    H123657   3.252   0.359  12.115  0.4820 -2.4245  1.0701
  722TIP3    H223658   3.254   0.459  12.229 -3.3957  1.3025 -1.8120
  723TIP3   OH223659   6.763   1.898  11.010 -0.4302  0.4405  0.4008
  723TIP3    H123660   6.680   1.945  11.016 -0.5776  0.3498 -0.7837
  723TIP3    H223661   6.784   1.875  11.101 -0.9149  1.8174  0.8893
  724TIP3   OH223662   4.069   3.297  12.551  0.2108 -0.3498  0.5485
  724TIP3    H123663   4.017   3.217  12.555 -1.3413  0.6348  0.8282
  724TIP3    H223664   4.037   3.342  12.473  0.0944  0.6404  1.1549
  725TIP3   OH223665   1.889   4.034  13.391 -0.7216 -0.4767 -0.7997
  725TIP3    H123666   1.952   4.104  13.404 -0.7280 -0.6937  0.5387
  725TIP3    H223667   1.842   4.058  13.311  0.4663  0.1177 -1.3320
  726TIP3   OH223668   6.791   1.854  11.298  0.1310 -0.4331  0.0350
  726TIP3    H123669   6.810   1.768  11.337 -0.9966 -0.0189  1.5788
  726TIP3    H223670   6.836   1.916  11.355  2.5344 -0.0127 -2.1243
  727TIP3   OH223671   2.940   4.678  11.794 -0.9037  0.3078 -0.3538
  727TIP3    H123672   2.863   4.623  11.807 -1.6475  1.3770 -0.1140
  727TIP3    H223673   3.011   4.630  11.836 -1.4463 -0.6441 -0.4827
  728TIP3   OH223674   0.941   1.759  14.857  0.9535  0.1398  0.7361
  728TIP3    H123675   0.911   1.825  14.795  0.2212  1.5801  2.5247
  728TIP3    H223676   1.004   1.805  14.912  1.1409 -0.9194  1.4454
  729TIP3   OH223677   3.209   3.504   0.052 -0.4638 -0.1372 -0.2764
  729TIP3    H123678   3.220   3.590   0.010  2.9874  0.3812  1.3563
  729TIP3    H223679   3.262   3.444  -0.000 -1.2048 -0.8439 -0.2315
  730TIP3   OH223680   5.182   4.812   4.622 -0.2315 -0.2163 -0.7720
  730TIP3    H123681   5.117   4.871   4.583 -0.8642 -0.4467 -0.0850
  730TIP3    H223682   5.131   4.756   4.680  0.6886  0.1401  0.4167
  731TIP3   OH223683   0.400   6.770  12.923  0.6003  0.2181 -0.1603
  731TIP3    H123684   0.358   6.689  12.951  0.7826  0.4188  0.7506
  731TIP3    H223685   0.350   6.839  12.968  2.3607  0.4249  1.6381
  732TIP3   OH223686   2.810   2.487   5.037  0.8306 -0.0323 -0.4903
  732TIP3    H123687   2.741   2.518   4.979  1.0191 -1.6535 -1.6576
  732TIP3    H223688   2.891   2.501   4.988  1.1602  0.0978  0.0796
  733TIP3   OH223689   0.625   0.693   0.248 -0.3541  0.4734  0.1074
  733TIP3    H123690   0.600   0.785   0.242 -2.1348 -0.0244 -0.8735
  733TIP3    H223691   0.713   0.690   0.210 -1.1067  1.4843 -1.8841
  734TIP3   OH223692   2.008   0.047  10.840 -0.6709 -0.3720  0.3857
  734TIP3    H123693   1.965   0.109  10.899 -0.6171 -0.3733  0.4258
  734TIP3    H223694   1.936   0.005  10.793 -0.6835  0.2114 -0.1369
  735TIP3   OH223695   0.935   6.781   1.448  0.7671 -0.3232  0.5226
  735TIP3    H123696   0.933   6.875   1.431 -0.5157 -0.0888  1.7727
  735TIP3    H223697   0.843   6.755   1.454  1.1061 -1.4315  1.3144
  736TIP3   OH223698   2.447   6.320  12.374 -0.4741  0.4518 -0.0411
  736TIP3    H123699   2.381   6.269  12.420 -1.8058  0.4228 -1.8966
  736TIP3    H223700   2.530   6.282  12.402 -1.3636 -2.0524 -0.4932
  737TIP3   OH223701   5.480   1.400   2.139 -0.0587  0.4106 -0.3077
  737TIP3    H123702   5.505   1.319   2.094  0.1479  0.5560 -0.4594
  737TIP3    H223703   5.560   1.452   2.141  0.5741 -0.5294  2.3451
  738TIP3   OH223704   0.055   2.509   1.060 -0.2504 -0.2818 -0.4121
  738TIP3    H123705   0.138   2.556   1.056  1.3385 -2.5936  1.9436
  738TIP3    H223706   0.050   2.461   0.977  1.7049 -1.4348  0.0812
  739TIP3   OH223707   0.523   6.579   1.957 -0.0040  0.0191  0.2847
  739TIP3    H123708   0.562   6.658   1.919 -0.1017 -0.6922 -1.3927
  739TIP3    H223709   0.498   6.605   2.046  2.0603  1.1896  0.5906
  740TIP3   OH223710   5.620   5.047  12.614  0.3021 -0.1572  0.4492
  740TIP3    H123711   5.620   5.002  12.529  0.5205  1.0375 -0.2036
  740TIP3    H223712   5.535   5.025  12.653 -1.0223  1.4908 -1.3175
  741TIP3   OH223713   1.855   6.372   2.740  0.2144  0.1736 -0.0650
  741TIP3    H123714   1.803   6.449   2.717 -0.6679  0.0027  1.2065
  741TIP3    H223715   1.932   6.408   2.785 -0.3841  0.3187  0.8692
  742TIP3   OH223716   4.151   5.658   1.558 -0.1142 -0.0585  0.4569
  742TIP3    H123717   4.185   5.748   1.548  0.3643 -0.3070 -0.1869
  742TIP3    H223718   4.191   5.609   1.487 -2.7154 -0.1422 -1.0512
  743TIP3   OH223719   6.217   0.236  13.725 -0.1321 -0.4181 -0.6859
  743TIP3    H123720   6.234   0.159  13.779 -0.7242 -0.5265 -0.6456
  743TIP3    H223721   6.125   0.226  13.699 -0.7291  1.1221  0.6973
  744TIP3   OH223722   0.576   0.093   1.355 -0.6620 -0.1456  0.1597
  744TIP3    H123723   0.644   0.026   1.364 -0.6159 -0.5501 -2.5550
  744TIP3    H223724   0.497   0.044   1.329 -1.3486  0.5921  0.7894
  745TIP3   OH223725   1.314   2.559   5.110 -0.1069 -0.8041  0.4339
  745TIP3    H123726   1.347   2.550   5.199  3.2997 -1.6133 -0.7530
  745TIP3    H223727   1.263   2.479   5.095  1.0772 -1.7040  1.0182
  746TIP3   OH223728   0.896   4.949  14.488  0.2082  0.1979 -0.1958
  746TIP3    H123729   0.857   5.010  14.425 -0.5125  0.7884  0.7747
  746TIP3    H223730   0.825   4.931  14.550  1.0376  0.0608  0.7427
  747TIP3   OH223731   5.613   4.324  13.284  0.2838  0.2405 -0.0464
  747TIP3    H123732   5.601   4.406  13.235 -0.5218  0.3165  0.2635
  747TIP3    H223733   5.599   4.255  13.219 -0.3531  0.3436 -0.0212
  748TIP3   OH223734   3.536   0.080  14.852 -0.6271 -0.1002  0.3334
  748TIP3    H123735   3.450   0.112  14.878 -1.0384  1.0131 -2.0944
  748TIP3    H223736   3.517   0.012  14.787  0.3145 -0.0006 -0.0573
  749TIP3   OH223737   2.237   5.872  17.203 -0.0382 -0.2812 -0.1578
  749TIP3    H123738   2.187   5.864  17.122 -2.2967  3.3823  0.6583
  749TIP3    H223739   2.266   5.963  17.205  1.4713 -0.6991  2.3747
  750TIP3   OH223740   3.524   3.367  13.319 -0.2041  0.4140  0.8834
  750TIP3    H123741   3.429   3.364  13.308 -0.2968  0.7429  1.5901
  750TIP3    H223742   3.555   3.285  13.281 -0.4679  1.5642 -2.1382
  751TIP3   OH223743   5.485   2.674   1.797  0.1678 -0.4098 -0.2353
  751TIP3    H123744   5.448   2.616   1.863 -1.2170  1.6900  0.9648
  751TIP3    H223745   5.572   2.639   1.780 -0.2409 -2.2309  1.1339
  752TIP3   OH223746   2.636   2.236  13.687 -0.1200 -0.1724  0.6456
  752TIP3    H123747   2.693   2.291  13.633  0.6553 -2.7618 -1.3563
  752TIP3    H223748   2.672   2.244  13.775  2.9435 -1.0694 -0.4015
  753TIP3   OH223749   5.609   4.728  16.949 -0.1311  0.5922 -0.5482
  753TIP3    H123750   5.638   4.732  16.858  0.9724 -1.6521 -0.3545
  753TIP3    H223751   5.690   4.734  17.001 -0.5492 -0.0407  0.2074
  754TIP3   OH223752   4.827   6.686  12.612  0.1506 -0.1129  0.5226
  754TIP3    H123753   4.882   6.691  12.690  0.8499  2.8723 -0.0532
  754TIP3    H223754   4.739   6.709  12.643 -0.1256 -1.4629  0.8203
  755TIP3   OH223755   4.111   5.644  11.836 -0.0586 -0.0764 -0.6914
  755TIP3    H123756   4.060   5.566  11.815 -1.9303  1.4584 -2.2347
  755TIP3    H223757   4.133   5.633  11.929 -2.4169 -1.2977 -0.1781
  756TIP3   OH223758   3.229   0.019   4.637 -0.2062  0.2648 -0.7329
  756TIP3    H123759   3.303   0.036   4.695 -0.2404  1.3311 -0.9880
  756TIP3    H223760   3.209  -0.074   4.651 -0.0116  0.4187  0.7120
  757TIP3   OH223761   1.040   2.529   6.749 -0.5216 -0.0674  0.3966
  757TIP3    H123762   1.113   2.533   6.688 -0.8673  1.9939  0.0406
  757TIP3    H223763   0.967   2.495   6.698 -1.1356  2.7726 -0.8049
  758TIP3   OH223764   2.449   4.911   6.167 -0.3173  0.7005  0.3778
  758TIP3    H123765   2.447   4.924   6.262 -0.9260 -0.1405  0.4946
  758TIP3    H223766   2.418   4.821   6.155 -0.3776  0.8473 -0.6294
  759TIP3   OH223767   4.023   2.360   1.044  0.0156  0.0323 -0.3286
  759TIP3    H123768   3.961   2.351   0.972  0.4256 -1.8908 -0.4954
  759TIP3    H223769   4.005   2.285   1.101  1.5490 -0.0416  0.1046
  760TIP3   OH223770   0.610   6.473   5.065 -0.2843  0.5417 -0.3282
  760TIP3    H123771   0.561   6.439   5.139 -0.6561 -1.7441 -1.5408
  760TIP3    H223772   0.693   6.502   5.102 -1.9385  3.3072  1.5527
  761TIP3   OH223773   3.325   4.887   3.389 -0.1948 -0.6681 -0.2226
  761TIP3    H123774   3.401   4.830   3.402  0.1065 -0.1184  0.4438
  761TIP3    H223775   3.325   4.905   3.295  0.1047 -1.2110 -0.3347
  762TIP3   OH223776   3.375   0.437  16.741 -0.2488 -0.3079  0.3863
  762TIP3    H123777   3.344   0.521  16.707  0.2460 -0.3107 -0.0809
  762TIP3    H223778   3.304   0.376  16.723 -0.3150 -0.1404  0.0824
  763TIP3   OH223779   4.928   3.429  11.719  0.4836  0.5425  0.0031
  763TIP3    H123780   4.875   3.480  11.780  1.8759  2.2455 -0.1311
  763TIP3    H223781   4.950   3.349  11.767  0.4787  1.2799  1.2755
  764TIP3   OH223782   4.372   1.106  16.145  0.3274 -0.2124  0.0293
  764TIP3    H123783   4.325   1.031  16.109  1.1731 -0.4348 -0.6606
  764TIP3    H223784   4.397   1.158  16.068  1.8220 -0.4771  0.2892
  765TIP3   OH223785   4.985   0.128  13.462 -0.2496 -0.5693  0.2055
  765TIP3    H123786   5.066   0.079  13.451  0.1164  0.4480 -2.1305
  765TIP3    H223787   4.926   0.091  13.396 -1.4040 -0.6560  1.2441
  766TIP3   OH223788   5.968   0.322   5.503 -0.2459  0.1258 -0.0790
  766TIP3    H123789   5.967   0.403   5.554 -0.4405  0.0303  0.0694
  766TIP3    H223790   5.917   0.342   5.425 -4.5088 -1.2149  2.0735
  767TIP3   OH223791   0.053   3.348  11.498  0.3395 -0.1427  0.3865
  767TIP3    H123792   0.112   3.420  11.522 -0.1109 -0.2297  1.8639
  767TIP3    H223793   0.003   3.331  11.578 -1.2381 -0.5060 -0.6475
  768TIP3   OH223794   6.732   1.823   4.250  0.4176 -0.4485 -0.0375
  768TIP3    H123795   6.657   1.796   4.197 -0.6378 -1.0378  1.6842
  768TIP3    H223796   6.791   1.865   4.188 -1.4921  0.3614 -1.3935
  769TIP3   OH223797   3.293   2.497  11.844 -0.0554  0.3569 -0.2461
  769TIP3    H123798   3.379   2.540  11.842 -0.2694  0.7740 -0.9271
  769TIP3    H223799   3.231   2.568  11.860 -0.5001  0.4937 -2.2693
  770TIP3   OH223800   2.493   4.008  16.135 -0.3087  0.5528 -0.0934
  770TIP3    H123801   2.434   4.044  16.200  0.2587  1.7676 -0.2346
  770TIP3    H223802   2.514   3.920  16.168 -0.8750  0.7400  0.7905
  771TIP3   OH223803   1.780   3.586   6.566 -0.3025 -0.9327  0.1067
  771TIP3    H123804   1.756   3.672   6.532  1.3305  0.2330  1.6817
  771TIP3    H223805   1.700   3.534   6.560 -1.1870  0.5057 -1.4056
  772TIP3   OH223806   2.552   5.750  10.427 -0.2265  0.1968  0.1751
  772TIP3    H123807   2.599   5.822  10.469 -1.3561  1.6428 -0.9392
  772TIP3    H223808   2.482   5.792  10.377 -0.2807 -1.5784 -1.3931
  773TIP3   OH223809   0.827   4.045   3.450 -0.8412 -0.1758 -0.4924
  773TIP3    H123810   0.858   4.111   3.388  0.7238  1.6828  2.0650
  773TIP3    H223811   0.879   3.967   3.431  1.6623  1.2337  0.1757
  774TIP3   OH223812   6.553   0.649  15.470 -0.1632 -0.3110  0.5229
  774TIP3    H123813   6.554   0.629  15.564 -0.6750 -2.1763  0.1793
  774TIP3    H223814   6.639   0.686  15.452 -0.2161  0.4692  1.8010
  775TIP3   OH223815   3.034   0.485  16.658 -0.1309 -1.0707 -0.5558
  775TIP3    H123816   2.978   0.502  16.583  0.2556  0.8884 -0.4629
  775TIP3    H223817   2.973   0.477  16.732 -0.3738 -0.0673 -0.6325
  776TIP3   OH223818   0.038   0.978  13.392  0.7364  0.0097 -0.7859
  776TIP3    H123819   0.039   1.059  13.444 -2.5115  0.4863 -1.2593
  776TIP3    H223820  -0.034   0.990  13.330 -0.1436 -3.3990 -0.6230
  777TIP3   OH223821   2.644   2.095   4.160 -0.0546 -0.3799  0.4454
  777TIP3    H123822   2.583   2.021   4.165 -1.6763  0.8271 -0.3403
  777TIP3    H223823   2.614   2.145   4.084  0.4745  1.5269  1.4254
  778TIP3   OH223824   0.920   3.924   4.840  0.0737  0.4424 -0.4816
  778TIP3    H123825   1.001   3.970   4.863 -0.8123  2.3026 -0.8888
  778TIP3    H223826   0.936   3.888   4.753  0.8277 -0.1341 -0.1107
  779TIP3   OH223827   4.567   0.285   2.694 -0.1664 -0.8311 -0.6409
  779TIP3    H123828   4.613   0.288   2.610 -2.3677 -0.8930 -1.9372
  779TIP3    H223829   4.529   0.372   2.703  0.6596 -0.5916  0.6926
  780TIP3   OH223830   2.940   1.361  15.037 -0.3667  0.0885  0.4255
  780TIP3    H123831   2.929   1.446  15.080  2.1355 -0.9218  3.4899
  780TIP3    H223832   2.853   1.339  15.005 -1.8204  2.3720  2.4284
  781TIP3   OH223833   3.713   1.213  17.114 -0.0512  0.4406  0.0665
  781TIP3    H123834   3.779   1.264  17.066 -0.1725 -0.2157 -0.8362
  781TIP3    H223835   3.644   1.275  17.135  0.0218  0.7545 -0.6038
  782TIP3   OH223836   5.950   1.811  10.454 -0.2101  0.0548  0.3280
  782TIP3    H123837   5.930   1.901  10.482 -2.8038 -0.5146  0.5546
  782TIP3    H223838   5.939   1.758  10.533  0.9705 -0.5269  0.1216
  783TIP3   OH223839   5.115   4.565  12.200 -0.4324  0.0942 -0.7316
  783TIP3    H123840   5.097   4.607  12.285 -1.0967  0.3031 -0.9661
  783TIP3    H223841   5.209   4.546  12.202 -0.9591 -3.2304  1.5788
  784TIP3   OH223842   5.238   5.411  15.134  0.1026  0.2677  0.0329
  784TIP3    H123843   5.320   5.379  15.171 -0.8981 -0.6352  1.5443
  784TIP3    H223844   5.265   5.472  15.065  2.0307 -0.4043  0.1502
  785TIP3   OH223845   2.035   6.304   5.552 -0.1529  0.1345  0.1299
  785TIP3    H123846   2.055   6.308   5.646  0.7803 -1.2280  0.0183
  785TIP3    H223847   2.096   6.367   5.512 -0.5868  0.7535  0.4199
  786TIP3   OH223848   1.137   6.262   6.256 -0.0624  0.3674 -0.3847
  786TIP3    H123849   1.058   6.223   6.221 -0.1381  0.6954 -0.5841
  786TIP3    H223850   1.117   6.278   6.348  0.1540 -0.5368 -0.1654
  787TIP3   OH223851   1.256   6.716   0.360  0.0157 -0.2446 -0.1993
  787TIP3    H123852   1.286   6.636   0.402 -1.9055 -1.5982 -1.2955
  787TIP3    H223853   1.166   6.728   0.390  1.2693  3.7177  3.0018
  788TIP3   OH223854   3.616   0.496   2.150  0.1459  0.4227  0.3461
  788TIP3    H123855   3.688   0.469   2.207 -1.3051  0.2027  2.1931
  788TIP3    H223856   3.626   0.591   2.144  1.3316  0.2588 -0.5184
  789TIP3   OH223857   0.943   2.646  14.719 -0.1469  0.1501 -0.3287
  789TIP3    H123858   1.017   2.637  14.779  0.2272  2.1718 -0.4416
  789TIP3    H223859   0.865   2.645  14.776  0.1190  0.6192  0.0446
  790TIP3   OH223860   1.992   4.081  11.932 -0.2411  0.4459 -0.1807
  790TIP3    H123861   1.898   4.082  11.915 -0.1733 -1.4543 -0.9704
  790TIP3    H223862   2.003   4.016  12.001  0.3401  2.1623  1.4365
  791TIP3   OH223863   5.045   0.168  13.027  0.7649 -0.9695 -0.1417
  791TIP3    H123864   5.129   0.162  12.981  0.0344  0.7015 -1.8425
  791TIP3    H223865   4.999   0.088  13.002  0.9939 -0.8198 -1.1107
  792TIP3   OH223866   1.475   2.423  12.383 -0.3790 -0.5179  0.7325
  792TIP3    H123867   1.500   2.513  12.360 -0.9074 -0.2597  1.1548
  792TIP3    H223868   1.557   2.373  12.374 -0.6435 -0.6095 -2.3757
  793TIP3   OH223869   5.962   5.498   0.822  0.4712 -0.4316  0.3438
  793TIP3    H123870   5.881   5.461   0.787  1.7246 -0.7320 -2.4923
  793TIP3    H223871   5.971   5.582   0.777  0.9836  0.3372  1.8185
  794TIP3   OH223872   0.060   2.887   0.608 -0.7141  0.0505  0.0500
  794TIP3    H123873   0.052   2.799   0.572 -0.3499  0.5859 -1.4199
  794TIP3    H223874   0.066   2.944   0.531  0.5426  1.2151  0.9646
  795TIP3   OH223875   6.191   2.792  11.398  0.0770 -0.4300 -0.0346
  795TIP3    H123876   6.120   2.782  11.334  1.2751  1.4276 -1.8064
  795TIP3    H223877   6.218   2.884  11.389  0.2032 -0.0249  3.3470
  796TIP3   OH223878   1.791   0.867  14.188  0.7409  0.3409  0.1610
  796TIP3    H123879   1.835   0.786  14.164 -1.7776 -1.6121  1.6491
  796TIP3    H223880   1.800   0.873  14.283 -1.5478  0.1884  0.4392
  797TIP3   OH223881   2.662   4.022   4.757  0.6101  0.2887  0.7336
  797TIP3    H123882   2.678   3.928   4.759  1.4448  0.4309  1.3737
  797TIP3    H223883   2.744   4.061   4.788  0.2523  1.2252  0.5472
  798TIP3   OH223884   6.680   5.350  13.974  0.1046 -0.1228 -0.0284
  798TIP3    H123885   6.757   5.315  13.928  1.0209  0.8969  0.6761
  798TIP3    H223886   6.714   5.381  14.058 -0.7408  1.8919 -0.3691
  799TIP3   OH223887   3.598   3.281  16.002 -0.1528 -0.2032 -0.1091
  799TIP3    H123888   3.527   3.265  15.939 -0.1904  0.1661 -0.1617
  799TIP3    H223889   3.574   3.363  16.044 -0.0030 -0.3290  0.2202
  800TIP3   OH223890   4.073   1.000   6.876  0.5469  0.0515 -0.2585
  800TIP3    H123891   4.028   1.078   6.909 -0.6981 -1.0286  0.7276
  800TIP3    H223892   4.003   0.935   6.867  1.3597 -0.6257 -2.1768
  801TIP3   OH223893   2.154   1.673   1.424  0.0872  0.4407  0.1241
  801TIP3    H123894   2.235   1.721   1.405  0.1451  0.4336  0.3563
  801TIP3    H223895   2.090   1.740   1.446  0.1047  0.4278  0.2152
  802TIP3   OH223896   4.851   1.542  13.184 -0.6194  0.6573 -0.0986
  802TIP3    H123897   4.939   1.508  13.198 -0.3195  0.1216 -2.7542
  802TIP3    H223898   4.795   1.465  13.193 -0.6595  0.7222  0.2055
  803TIP3   OH223899   3.762   5.661  13.420  0.0050  0.5395  0.2963
  803TIP3    H123900   3.792   5.719  13.350 -0.2787  0.5264  0.1635
  803TIP3    H223901   3.757   5.575  13.380  1.1587  0.2732  0.6923
  804TIP3   OH223902   0.281   2.467  15.312 -0.2623  0.5400  0.0801
  804TIP3    H123903   0.212   2.411  15.347  1.4875 -1.3215  0.6933
  804TIP3    H223904   0.238   2.552  15.301 -2.6737 -0.5550  0.3070
  805TIP3   OH223905   3.147   2.030  12.494 -0.3203 -0.0778 -0.2355
  805TIP3    H123906   3.061   2.014  12.532 -0.2898  1.3034  0.4878
  805TIP3    H223907   3.163   1.955  12.437 -1.7928 -0.5851 -0.0160
  806TIP3   OH223908   6.805   0.684   0.463  0.0687  0.4824  0.2404
  806TIP3    H123909   6.731   0.681   0.523 -0.5249  0.2185 -0.4834
  806TIP3    H223910   6.787   0.615   0.399 -0.2344  1.8741 -1.2720
  807TIP3   OH223911   1.928   2.450  12.808  0.1366  0.1597 -0.1652
  807TIP3    H123912   1.998   2.389  12.784 -0.2119 -1.0487  1.7148
  807TIP3    H223913   1.968   2.509  12.872 -0.5036 -0.4891  0.8641
  808TIP3   OH223914   4.764   1.727   6.742 -0.0782 -0.1960 -0.0841
  808TIP3    H123915   4.718   1.648   6.769 -0.6458 -0.3361 -1.3761
  808TIP3    H223916   4.844   1.695   6.701  0.8428  0.0187  1.4585
  809TIP3   OH223917   0.393   0.884   0.028  0.1001  0.6929  0.3873
  809TIP3    H123918   0.382   0.966   0.077  2.0135 -0.0421  2.1857
  809TIP3    H223919   0.474   0.896  -0.020 -0.2299  0.2728 -0.2911
  810TIP3   OH223920   6.815   3.848  15.829 -0.0760  0.0402  0.0922
  810TIP3    H123921   6.826   3.872  15.921  0.6555  0.6838 -0.1435
  810TIP3    H223922   6.859   3.764  15.820  0.3892  0.2670  0.2112
  811TIP3   OH223923   1.583   6.330   5.986 -0.8099  0.0378  0.3932
  811TIP3    H123924   1.600   6.424   5.995 -1.8089  0.1652  1.1272
  811TIP3    H223925   1.488   6.322   5.994 -0.6940 -1.0846  0.8557
  812TIP3   OH223926   0.323   4.788  12.121  0.5043  0.7270 -0.9500
  812TIP3    H123927   0.347   4.733  12.046  0.5137  0.5957 -0.8537
  812TIP3    H223928   0.328   4.728  12.196 -0.3318  0.6464 -0.9503
  813TIP3   OH223929   0.444   1.031  12.857 -0.0298 -0.2342 -0.0174
  813TIP3    H123930   0.469   1.068  12.942  0.0257 -0.4826  0.0756
  813TIP3    H223931   0.421   1.107  12.803 -1.2294 -0.1477  0.5842
  814TIP3   OH223932   1.993   1.132   0.462  0.0292  0.5446  0.5788
  814TIP3    H123933   1.982   1.102   0.552 -0.8523  1.6424  0.8638
  814TIP3    H223934   2.087   1.151   0.455 -0.1495  2.1162  1.8465
  815TIP3   OH223935   1.220   6.623  10.710  0.4481  0.2829  0.0773
  815TIP3    H123936   1.152   6.613  10.775  0.3567 -1.7225 -0.2547
  815TIP3    H223937   1.203   6.554  10.646  2.2582  0.2843 -0.4797
  816TIP3   OH223938   4.286   5.884   4.173 -0.3061  0.1730 -0.2973
  816TIP3    H123939   4.310   5.872   4.081 -0.5378  0.0179 -0.3387
  816TIP3    H223940   4.295   5.797   4.211 -0.7795  0.1172 -0.3095
  817TIP3   OH223941   4.564   0.020   3.748 -0.1375  0.0210  0.1869
  817TIP3    H123942   4.524   0.011   3.834 -0.7851  0.5883 -0.0419
  817TIP3    H223943   4.496   0.061   3.694  1.4112  3.1299  0.3424
  818TIP3   OH223944   4.323   2.483  16.549  0.4376  0.9494  0.1768
  818TIP3    H123945   4.392   2.546  16.527 -0.7755  1.8232 -1.2476
  818TIP3    H223946   4.244   2.519  16.509 -0.1398 -1.9517 -1.5534
  819TIP3   OH223947   5.732   3.634   0.131 -0.6286 -0.1659  0.3586
  819TIP3    H123948   5.660   3.637   0.194  0.0127 -0.8554  1.1600
  819TIP3    H223949   5.733   3.543   0.101 -1.1952  0.2419 -1.0114
  820TIP3   OH223950   0.382   2.861  10.701 -0.6619 -0.4997 -0.4083
  820TIP3    H123951   0.305   2.803  10.702 -0.1682 -1.1938 -1.5138
  820TIP3    H223952   0.349   2.944  10.736 -1.2232 -1.6062  1.9466
  821TIP3   OH223953   2.931   3.218   3.536  0.1383  0.1393 -0.1529
  821TIP3    H123954   2.876   3.205   3.613 -0.6747 -1.3415 -0.9320
  821TIP3    H223955   2.962   3.130   3.513  0.7133  0.6055 -1.2663
  822TIP3   OH223956   5.275   0.265  16.240 -0.3354 -0.0323 -0.0453
  822TIP3    H123957   5.326   0.194  16.202  0.1981  0.3893 -0.1358
  822TIP3    H223958   5.244   0.316  16.165 -1.5466 -0.7182 -0.0272
  823TIP3   OH223959   1.042   0.450   5.988  0.9135  0.5084 -0.3538
  823TIP3    H123960   1.033   0.468   6.082  0.3669  0.0138 -0.3046
  823TIP3    H223961   1.127   0.406   5.980  0.0519 -1.3793  0.2284
  824TIP3   OH223962   2.593   6.624  17.161 -0.2838 -0.3449  0.3246
  824TIP3    H123963   2.601   6.658  17.251 -1.5096 -0.9877  0.6980
  824TIP3    H223964   2.587   6.702  17.107  0.7099  0.0550  0.7666
  825TIP3   OH223965   1.073   5.139   0.434 -0.0637 -0.2698 -0.0241
  825TIP3    H123966   1.034   5.079   0.371 -0.6639 -1.5147  1.4612
  825TIP3    H223967   1.158   5.162   0.397 -0.8592 -0.0512 -1.7972
  826TIP3   OH223968   0.260   4.108  13.808 -0.4072 -0.1708 -0.1142
  826TIP3    H123969   0.329   4.106  13.874  0.4977  0.7994 -0.9837
  826TIP3    H223970   0.296   4.057  13.735 -0.1373  1.2310 -0.9898
  827TIP3   OH223971   3.206   0.150   3.576  0.2080 -0.2092  0.1017
  827TIP3    H123972   3.256   0.216   3.624 -2.5451  0.2119  2.7145
  827TIP3    H223973   3.121   0.191   3.561 -0.7218 -2.2443 -0.5260
  828TIP3   OH223974   0.421   6.692   5.039  0.1312  0.3161  0.1456
  828TIP3    H123975   0.464   6.606   5.037  0.9290  0.6571  1.5037
  828TIP3    H223976   0.491   6.752   5.064 -1.2176  0.7982  3.1648
  829TIP3   OH223977   3.695   4.638  15.317 -0.3518 -0.1632 -0.2098
  829TIP3    H123978   3.764   4.647  15.250 -0.4016  0.0728 -0.2297
  829TIP3    H223979   3.732   4.576  15.380 -0.9044 -1.5789 -1.2275
  830TIP3   OH223980   2.970   5.195   4.289  0.1204  0.0147  0.5060
  830TIP3    H123981   3.047   5.193   4.232  2.3196  2.1665  3.1102
  830TIP3    H223982   2.924   5.114   4.269  1.1058  0.2404 -3.6518
  831TIP3   OH223983   2.020   5.054   5.825 -0.0855 -0.7064  0.6390
  831TIP3    H123984   2.083   4.994   5.864  0.1216 -0.6359  0.4122
  831TIP3    H223985   1.970   5.088   5.900  1.2207  0.4905  0.9993
  832TIP3   OH223986   2.758   0.446   6.059 -0.4225 -0.2789  0.0473
  832TIP3    H123987   2.830   0.430   5.997  0.3997 -0.5534  1.0501
  832TIP3    H223988   2.792   0.512   6.119 -0.6660 -1.0521  1.0656
  833TIP3   OH223989   3.935   0.445   2.957  0.3136 -0.2830  0.2575
  833TIP3    H123990   4.005   0.479   2.901 -0.9364 -0.7777 -1.6957
  833TIP3    H223991   3.981   0.409   3.033  1.9750  1.5539  0.1992
  834TIP3   OH223992   3.788   2.241   6.484  0.9530  0.6364 -0.5107
  834TIP3    H123993   3.840   2.305   6.533  0.6650  0.1299  0.4817
  834TIP3    H223994   3.851   2.176   6.454  1.0663  0.7031 -0.4160
  835TIP3   OH223995   1.439   4.666   0.306 -0.1962 -0.4860 -0.2429
  835TIP3    H123996   1.443   4.754   0.270  1.6884 -0.9815 -1.3984
  835TIP3    H223997   1.404   4.612   0.235  0.4541 -0.9567 -0.2155
  836TIP3   OH223998   5.388   1.951  15.544 -0.4129 -0.7146  0.2052
  836TIP3    H123999   5.457   1.927  15.606 -1.0918 -1.4097  0.7189
  836TIP3    H224000   5.427   2.018  15.488  0.8038 -1.3884  0.2280
  837TIP3   OH224001   2.285   2.011   3.373 -0.5220 -0.0693  0.8616
  837TIP3    H124002   2.221   2.079   3.353 -0.9188 -0.5964  0.2854
  837TIP3    H224003   2.357   2.057   3.417 -0.6724  0.7520  0.2633
  838TIP3   OH224004   4.123   2.998   2.812 -0.9829  0.1866  0.3689
  838TIP3    H124005   4.102   2.906   2.797 -0.3246 -0.0088  0.6054
  838TIP3    H224006   4.060   3.027   2.879 -0.6635 -0.3209  0.8967
  839TIP3   OH224007   3.767   2.086  13.307  0.0867 -0.4254  0.1452
  839TIP3    H124008   3.685   2.125  13.339 -0.7269 -0.1176 -2.1366
  839TIP3    H224009   3.742   2.041  13.226  2.3106  0.2895 -1.0016
  840TIP3   OH224010   1.417   4.001   4.842  1.2337  0.0402 -0.1991
  840TIP3    H124011   1.474   3.970   4.912  0.2404 -0.9777  0.1832
  840TIP3    H224012   1.341   4.040   4.887  0.1918 -1.3656 -0.6667
  841TIP3   OH224013   6.349   1.735  12.452  0.5626 -0.2516  0.6468
  841TIP3    H124014   6.371   1.818  12.494  2.8619 -0.8988  0.8757
  841TIP3    H224015   6.353   1.670  12.522 -0.5833 -0.6679  0.3524
  842TIP3   OH224016   1.937   6.047   3.437 -0.0116 -0.5254  0.4459
  842TIP3    H124017   1.990   6.113   3.392  0.5101 -1.8466 -0.9580
  842TIP3    H224018   1.889   6.096   3.504  1.6586  0.9817  0.5980
  843TIP3   OH224019   4.776   1.063  15.850 -0.3441  0.0701  0.5655
  843TIP3    H124020   4.685   1.081  15.823 -0.7974 -2.2000  0.3983
  843TIP3    H224021   4.767   1.020  15.935  0.6483  0.4399  0.8655
  844TIP3   OH224022   5.769   6.049  17.244  0.1749 -0.6702 -0.1807
  844TIP3    H124023   5.828   6.066  17.318  0.7087 -0.6690 -0.6030
  844TIP3    H224024   5.692   6.103  17.264 -0.5599 -2.2077  1.3865
  845TIP3   OH224025   3.850   6.242   0.797  0.1951  0.3221  0.6443
  845TIP3    H124026   3.805   6.158   0.807  2.5259 -1.2748 -1.0856
  845TIP3    H224027   3.941   6.224   0.822  0.6746  2.4517  0.6176
  846TIP3   OH224028   3.871   4.295   1.361 -0.3179  0.0765  0.2737
  846TIP3    H124029   3.865   4.262   1.272  1.5837 -1.1008  0.5118
  846TIP3    H224030   3.914   4.225   1.410 -0.3144  1.1279  1.8642
  847TIP3   OH224031   2.083   3.379  15.529 -0.5920  0.8873  0.0171
  847TIP3    H124032   2.054   3.336  15.610  1.7674 -1.3937 -0.2465
  847TIP3    H224033   2.011   3.438  15.507 -2.6074 -0.5726  2.1823
  848TIP3   OH224034   3.177   1.795  11.651  0.4409 -0.2724 -0.0240
  848TIP3    H124035   3.174   1.861  11.582 -1.0152  0.3451  0.5729
  848TIP3    H224036   3.269   1.771  11.658  1.1362  2.1935  0.1899
  849TIP3   OH224037   2.711   3.030  14.524  0.2158 -0.1201  0.4002
  849TIP3    H124038   2.699   3.056  14.615  1.7361  0.9256  0.3462
  849TIP3    H224039   2.749   2.942  14.530 -0.7711 -0.5437  0.7160
  850TIP3   OH224040   4.956   0.171   4.251  0.7259  0.0578 -0.0579
  850TIP3    H124041   4.996   0.237   4.195 -1.1470  0.1929 -1.3218
  850TIP3    H224042   4.900   0.121   4.193  0.2719 -1.1246  1.3393
  851TIP3   OH224043   0.925   2.998  11.207  0.4031 -0.0729 -0.1208
  851TIP3    H124044   1.011   3.040  11.211  0.3943 -0.1016  0.4286
  851TIP3    H224045   0.877   3.048  11.140  0.5630  0.4714  0.1638
  852TIP3   OH224046   5.267   3.921   1.177 -0.3582 -0.2476 -0.1035
  852TIP3    H124047   5.200   3.853   1.181 -0.8609  0.2796  0.4182
  852TIP3    H224048   5.268   3.960   1.264 -0.6343  0.9525 -0.6197
  853TIP3   OH224049   0.618   5.482   4.321 -0.1741 -0.6764  0.3827
  853TIP3    H124050   0.544   5.526   4.363  0.7792  0.8354  0.5465
  853TIP3    H224051   0.579   5.407   4.277 -1.8815  0.3590  0.0473
  854TIP3   OH224052   4.517   3.623  16.626 -0.6578 -0.0749 -0.0777
  854TIP3    H124053   4.481   3.559  16.566  0.0264 -0.0818 -0.4951
  854TIP3    H224054   4.508   3.583  16.713  1.5045 -1.6165 -0.4853
  855TIP3   OH224055   0.242   2.930   4.127 -0.3699  0.6453 -0.6270
  855TIP3    H124056   0.267   2.904   4.038  2.1691  2.7888 -0.6654
  855TIP3    H224057   0.152   2.899   4.136 -0.1861 -1.0634 -3.3404
  856TIP3   OH224058   4.908   0.716  14.245  0.0306  0.4517 -0.4197
  856TIP3    H124059   4.874   0.629  14.265 -2.8240  1.2290 -1.3821
  856TIP3    H224060   4.997   0.716  14.281  0.3754 -3.0268 -0.9225
  857TIP3   OH224061   1.399   1.437  15.180 -0.2321  0.4890 -0.3692
  857TIP3    H124062   1.361   1.519  15.148 -0.0307  0.1648 -1.4666
  857TIP3    H224063   1.467   1.415  15.116  1.6741  0.9056  1.3848
  858TIP3   OH224064   3.412   5.781   3.168 -0.1133 -0.5524 -0.9428
  858TIP3    H124065   3.446   5.697   3.139 -1.3768 -0.9582 -1.3319
  858TIP3    H224066   3.455   5.797   3.252  0.7603 -1.1798 -1.2567
  859TIP3   OH224067   1.965   6.211  14.053 -0.5106 -0.2515  0.6578
  859TIP3    H124068   1.955   6.127  14.007  0.5798 -0.6841  1.1848
  859TIP3    H224069   1.895   6.210  14.119 -0.6416 -0.6418  0.5199
  860TIP3   OH224070   5.745   4.050  13.263 -0.0247  0.0775 -0.2201
  860TIP3    H124071   5.744   4.046  13.359  0.6567  2.1491 -0.0754
  860TIP3    H224072   5.652   4.048  13.239 -0.1820 -1.7805  0.3495
  861TIP3   OH224073   0.375   3.427  15.863 -0.0643  0.7155  0.1772
  861TIP3    H124074   0.342   3.452  15.950  0.4644  2.7665 -0.1666
  861TIP3    H224075   0.465   3.400  15.880 -0.2022  0.3501  0.3557
  862TIP3   OH224076   0.830   0.946   0.525 -0.6206 -0.0084 -0.1740
  862TIP3    H124077   0.820   0.961   0.619  0.8434  1.2349 -0.1836
  862TIP3    H224078   0.895   0.876   0.519  0.8009  1.2639 -0.2407
  863TIP3   OH224079   4.875   5.556  11.936 -0.8480 -0.1036  0.1516
  863TIP3    H124080   4.781   5.559  11.952 -0.8679  1.9467 -0.0967
  863TIP3    H224081   4.891   5.627  11.874  0.6951 -1.2828 -0.8935
  864TIP3   OH224082   1.811   0.203  15.336 -0.1677 -0.9841 -1.1537
  864TIP3    H124083   1.728   0.155  15.324 -0.7070  0.1843 -2.2277
  864TIP3    H224084   1.859   0.189  15.254  0.1338 -0.5644 -1.0486
  865TIP3   OH224085   4.283   0.064   3.944 -0.6736 -0.0965 -0.5455
  865TIP3    H124086   4.339  -0.002   3.985  0.7309  0.0964 -2.0646
  865TIP3    H224087   4.241   0.109   4.018  0.4033 -0.9143  0.6018
  866TIP3   OH224088   2.679   5.709   1.321  0.5243  0.3183  0.0099
  866TIP3    H124089   2.714   5.624   1.348 -0.3369 -0.0380  0.0254
  866TIP3    H224090   2.724   5.728   1.238 -1.9766 -1.9584 -2.0372
  867TIP3   OH224091   1.943   3.452   1.680  0.3884 -0.1453 -0.3326
  867TIP3    H124092   1.909   3.519   1.739 -0.2941 -0.0660 -0.8139
  867TIP3    H224093   1.924   3.369   1.724  0.1230 -0.0760 -0.3184
  868TIP3   OH224094   3.091   0.254   0.981  0.1176 -0.0267  0.3488
  868TIP3    H124095   3.137   0.178   1.015  1.2131 -0.3175 -1.6514
  868TIP3    H224096   3.015   0.218   0.935  1.5739 -0.1936 -2.1515
  869TIP3   OH224097   5.835   6.229  13.791 -0.0871 -0.1978 -0.1481
  869TIP3    H124098   5.879   6.209  13.874 -0.2690  1.5255  0.4051
  869TIP3    H224099   5.741   6.229  13.813 -0.1621 -0.1752 -0.4616
  870TIP3   OH224100   0.483   1.060  16.328  0.5525 -0.3669  0.3034
  870TIP3    H124101   0.503   1.135  16.384 -1.3961 -0.0758  0.7015
  870TIP3    H224102   0.400   1.083  16.287  1.3806 -1.0644 -1.8924
  871TIP3   OH224103   4.946   4.380   3.959  0.3333 -0.8070 -0.2191
  871TIP3    H124104   4.972   4.467   3.990  0.3352 -1.5154  1.8725
  871TIP3    H224105   5.028   4.334   3.944  0.3421 -1.1072  0.6873
  872TIP3   OH224106   2.476   1.629   2.488 -0.6822 -0.3416  0.4842
  872TIP3    H124107   2.418   1.573   2.541 -0.9455 -2.9081 -2.2591
  872TIP3    H224108   2.450   1.611   2.398  2.1345  1.0600 -0.7122
  873TIP3   OH224109   0.728   0.400   1.918 -0.4417  0.1921 -0.2046
  873TIP3    H124110   0.809   0.450   1.914 -0.5748  0.3448 -1.9139
  873TIP3    H224111   0.659   0.466   1.923 -0.4683  0.0496  2.0912
  874TIP3   OH224112   2.953   5.586   3.937 -0.0027 -0.7580  0.1097
  874TIP3    H124113   2.974   5.674   3.968 -0.0589 -0.8391  0.3831
  874TIP3    H224114   3.037   5.541   3.934 -0.0496 -0.8754  0.5462
  875TIP3   OH224115   0.189   0.078   2.382 -0.4074 -0.4115  0.1217
  875TIP3    H124116   0.182   0.048   2.472 -0.2895 -1.3476 -0.1705
  875TIP3    H224117   0.274   0.121   2.377 -0.6189  0.0657  0.5740
  876TIP3   OH224118   1.606   2.579   3.169 -0.2984  0.6700  0.6263
  876TIP3    H124119   1.553   2.500   3.169 -0.9860  1.1275  0.6733
  876TIP3    H224120   1.578   2.627   3.247 -0.4368  1.3209  0.1851
  877TIP3   OH224121   6.683   0.554  11.108  0.1145 -0.2838 -0.0772
  877TIP3    H124122   6.625   0.619  11.147  0.4712 -0.2060  0.3364
  877TIP3    H224123   6.628   0.478  11.093 -0.4231  0.2737 -1.0201
  878TIP3   OH224124   2.437   3.549  16.716 -0.4707  0.4946 -0.5608
  878TIP3    H124125   2.485   3.602  16.779 -1.2233  1.1931 -0.5597
  878TIP3    H224126   2.505   3.501  16.669  0.1578  0.7004  0.1195
  879TIP3   OH224127   1.785   1.369   6.049  0.0479  0.6336 -0.3172
  879TIP3    H124128   1.754   1.287   6.087 -0.6971  0.5629 -1.0556
  879TIP3    H224129   1.873   1.381   6.087  0.8246 -1.2830 -1.3534
  880TIP3   OH224130   2.086   3.768  13.292  0.1493  0.2509 -0.0146
  880TIP3    H124131   1.994   3.745  13.300  0.4393 -1.0238 -0.1683
  880TIP3    H224132   2.097   3.794  13.201  0.2458 -1.1354 -0.4258
  881TIP3   OH224133   3.082   6.714  13.669 -0.0449 -0.1666 -0.3094
  881TIP3    H124134   3.066   6.807  13.656 -0.1992 -0.1734 -0.1876
  881TIP3    H224135   3.015   6.688  13.733  0.7480 -0.1008  0.5715
  882TIP3   OH224136   2.874   5.142   1.900  0.1869  0.3416 -0.2348
  882TIP3    H124137   2.782   5.125   1.923 -0.8623  3.2921 -1.6916
  882TIP3    H224138   2.884   5.102   1.813  0.5657 -0.7068  0.2812
  883TIP3   OH224139   5.435   6.536  14.183 -0.6665 -0.1165  0.0432
  883TIP3    H124140   5.502   6.475  14.215 -1.5071 -0.9273  0.2961
  883TIP3    H224141   5.423   6.513  14.091 -2.0212 -1.3478  0.4900
  884TIP3   OH224142   6.203   0.800   5.570  0.0442  0.0838  0.6579
  884TIP3    H124143   6.257   0.784   5.493 -0.1889  0.7694  0.3400
  884TIP3    H224144   6.265   0.807   5.643  0.1790 -1.9295  0.7898
  885TIP3   OH224145   2.927   0.488   4.678 -0.4750 -0.0528 -0.6218
  885TIP3    H124146   2.891   0.427   4.742 -0.8139  1.5413  0.7785
  885TIP3    H224147   3.020   0.496   4.702 -0.3759 -0.2040 -0.9537
  886TIP3   OH224148   5.834   6.476  12.435 -0.0219  0.0033  0.1478
  886TIP3    H124149   5.916   6.517  12.461  0.1939  0.6211 -1.4056
  886TIP3    H224150   5.769   6.513  12.494  0.8080 -0.6182  1.5072
  887TIP3   OH224151   0.570   5.180   0.553  0.0290 -0.3664  0.7292
  887TIP3    H124152   0.645   5.235   0.530  0.9882 -2.2798 -1.0084
  887TIP3    H224153   0.575   5.172   0.648  1.6651  0.0563  0.7123
  888TIP3   OH224154   5.482   0.584  16.194 -0.1223  0.1739  0.7785
  888TIP3    H124155   5.559   0.555  16.144  0.0124  1.1760  0.3826
  888TIP3    H224156   5.408   0.545  16.147  0.0567  0.3770  0.3204
  889TIP3   OH224157   0.434   3.056   5.616  0.8238 -0.2337  0.0848
  889TIP3    H124158   0.363   3.079   5.555  1.3198  1.3193  0.0477
  889TIP3    H224159   0.513   3.087   5.573  1.2693  0.1717  1.1637
  890TIP3   OH224160   4.367   1.903  16.777 -0.1457  0.1269  0.4086
  890TIP3    H124161   4.360   1.811  16.803  0.9826  0.0885  0.6310
  890TIP3    H224162   4.446   1.907  16.722  0.7672  1.2410  1.7401
  891TIP3   OH224163   6.651   6.429  15.565 -0.0446 -0.0855  0.5030
  891TIP3    H124164   6.573   6.422  15.619 -0.4805  1.6130  0.1754
  891TIP3    H224165   6.619   6.425  15.475 -0.3215  3.7785  0.2443
  892TIP3   OH224166   6.664   2.261   3.414  0.3062  0.3320 -0.3832
  892TIP3    H124167   6.706   2.333   3.367  1.3241  0.1039  0.1541
  892TIP3    H224168   6.624   2.208   3.346  1.4274  0.2234 -0.9762
  893TIP3   OH224169   4.749   5.842  11.566 -0.2768  0.1165  0.1573
  893TIP3    H124170   4.768   5.750  11.546  3.2964  0.7618  0.1229
  893TIP3    H224171   4.748   5.886  11.481  0.4637  0.4960  0.3405
  894TIP3   OH224172   5.377   2.642  15.236 -0.0909 -0.3842  0.3277
  894TIP3    H124173   5.325   2.591  15.298 -2.7424  0.4320 -1.0622
  894TIP3    H224174   5.407   2.578  15.171  1.1240 -0.9310  1.3739
  895TIP3   OH224175   5.463   1.503   2.468  0.0262 -0.7065  0.1009
  895TIP3    H124176   5.529   1.435   2.473 -0.5980 -1.3215  0.1362
  895TIP3    H224177   5.384   1.458   2.438 -0.5638 -0.1156  0.7205
  896TIP3   OH224178   4.253   0.605  16.590 -0.0094 -0.7259  0.0874
  896TIP3    H124179   4.329   0.552  16.615  0.2960  0.1612  1.0806
  896TIP3    H224180   4.185   0.540  16.569  0.2900 -1.5310  1.4733
  897TIP3   OH224181   4.093   1.620  13.611  0.2784 -0.2947 -0.3056
  897TIP3    H124182   4.071   1.527  13.607 -1.2241  0.0547 -2.0424
  897TIP3    H224183   4.037   1.660  13.543  0.6724  1.9045  0.5833
  898TIP3   OH224184   2.176   4.027  12.619  0.4882 -0.5890  0.4203
  898TIP3    H124185   2.154   4.061  12.706 -0.6034 -0.2853  0.0317
  898TIP3    H224186   2.136   3.940  12.617 -0.6325 -0.0703 -0.2542
  899TIP3   OH224187   2.754   2.360   3.272 -0.3940  0.0212  0.1286
  899TIP3    H124188   2.734   2.450   3.245  0.5050  0.1655 -0.0775
  899TIP3    H224189   2.683   2.308   3.235  0.9222  0.1475 -2.8527
  900TIP3   OH224190   2.344   4.378   2.491  0.2310 -0.0235 -0.1309
  900TIP3    H124191   2.331   4.331   2.408 -0.7935 -1.5878  0.8744
  900TIP3    H224192   2.397   4.320   2.544  1.0659  1.0646  0.2682
  901TIP3   OH224193   2.583   6.727   0.094  0.5055  0.5685 -0.3310
  901TIP3    H124194   2.527   6.801   0.119 -3.6906 -2.6277  0.8392
  901TIP3    H224195   2.608   6.687   0.177 -0.3971 -1.3222 -0.9279
  902TIP3   OH224196   3.851   3.945   3.322 -0.8451  0.1617 -0.6108
  902TIP3    H124197   3.824   3.952   3.231  2.3609  0.7224 -1.6426
  902TIP3    H224198   3.891   3.859   3.330  0.3100  0.7018 -0.2232
  903TIP3   OH224199   5.890   5.346  11.936 -0.1860 -0.2330 -0.4330
  903TIP3    H124200   5.984   5.330  11.930 -0.1165  0.0929 -0.2415
  903TIP3    H224201   5.856   5.323  11.850  0.4513  2.2214 -1.4036
  904TIP3   OH224202   2.294   3.495  11.490  0.4389  0.2904  0.8317
  904TIP3    H124203   2.247   3.441  11.427  0.2505  1.0003  0.3396
  904TIP3    H224204   2.386   3.475  11.475  0.3536 -0.1413  0.8903
  905TIP3   OH224205   5.220   0.295   2.887 -0.1517  0.0477  0.0594
  905TIP3    H124206   5.160   0.360   2.850 -0.0209  1.1376  1.6799
  905TIP3    H224207   5.163   0.223   2.914 -0.2794 -0.6672 -1.8971
  906TIP3   OH224208   5.632   2.176   6.385 -0.3334  0.1737  0.3650
  906TIP3    H124209   5.572   2.107   6.355  0.4452  0.1294 -1.1914
  906TIP3    H224210   5.655   2.150   6.474 -0.6679 -1.1681  0.0879
  907TIP3   OH224211   3.338   3.120  12.173  0.0497  0.3344 -0.2513
  907TIP3    H124212   3.323   3.123  12.078  0.4066  0.7582 -0.2966
  907TIP3    H224213   3.319   3.030  12.197  0.4327  0.0982 -0.8070
  908TIP3   OH224214   4.175   4.613   4.242  0.2391  0.2832 -0.4524
  908TIP3    H124215   4.173   4.652   4.329  1.8473  0.1489 -0.3223
  908TIP3    H224216   4.096   4.647   4.198 -0.0477  1.1573  0.6986
  909TIP3   OH224217   6.551   2.306   2.812 -0.4179  0.5339  0.2549
  909TIP3    H124218   6.526   2.337   2.725 -1.7835  0.4775  0.6133
  909TIP3    H224219   6.469   2.282   2.854  0.1490  1.1573  1.8043
  910TIP3   OH224220   5.253   3.706  12.425 -0.3141 -0.0321 -1.0429
  910TIP3    H124221   5.205   3.735  12.348 -1.0922  1.2079 -0.1081
  910TIP3    H224222   5.343   3.736  12.409 -0.3458 -0.2417 -1.6792
  911TIP3   OH224223   4.674   1.639  12.809  0.4988 -0.1767  0.2432
  911TIP3    H124224   4.655   1.652  12.716 -0.0094  1.9911  0.5922
  911TIP3    H224225   4.731   1.713  12.832 -1.0415  0.5079  2.0921
  912TIP3   OH224226   1.625   5.097   2.031 -0.0444 -0.0654 -0.7628
  912TIP3    H124227   1.712   5.130   2.055  0.6113 -1.6449 -0.8300
  912TIP3    H224228   1.637   5.057   1.944 -0.9508  0.1157 -0.9868
  913TIP3   OH224229   3.649   2.041  12.201  0.8018 -0.1531 -0.4995
  913TIP3    H124230   3.724   2.064  12.256 -0.7223 -1.0367  2.1524
  913TIP3    H224231   3.601   2.124  12.190 -0.4712 -0.3782  2.2739
  914TIP3   OH224232   6.389   3.596   4.630 -0.1188  0.1359 -0.3196
  914TIP3    H124233   6.321   3.647   4.586 -0.1571  1.1633  0.8955
  914TIP3    H224234   6.470   3.645   4.615 -0.0903  0.3537  0.4992
  915TIP3   OH224235   1.743   4.359  11.974  0.2232  0.0704  0.0497
  915TIP3    H124236   1.764   4.320  12.059  2.8490  0.0067 -0.5304
  915TIP3    H224237   1.675   4.303  11.938 -0.5419 -0.2289  1.8493
  916TIP3   OH224238   0.693   3.033   5.788  0.1625 -0.7184 -0.1802
  916TIP3    H124239   0.746   2.953   5.779  0.0546 -0.7903 -0.1793
  916TIP3    H224240   0.606   3.007   5.759  0.5470 -0.1190 -2.0448
  917TIP3   OH224241   1.315   2.175   1.972  0.8308 -0.3710  0.6870
  917TIP3    H124242   1.384   2.123   1.931 -0.3295 -1.0779 -0.4566
  917TIP3    H224243   1.267   2.213   1.898  0.0672  0.1767  1.4476
  918TIP3   OH224244   5.822   1.250   2.070 -0.0639  0.2671  0.5103
  918TIP3    H124245   5.880   1.207   2.007  1.6952  0.7474  1.7240
  918TIP3    H224246   5.739   1.259   2.023  0.9780  0.0637 -1.5130
  919TIP3   OH224247   2.215   3.751   6.045 -0.0773  0.6567  0.3735
  919TIP3    H124248   2.139   3.807   6.064 -1.2718 -0.1905 -1.5505
  919TIP3    H224249   2.195   3.668   6.088  0.3346  0.8014  0.8491
  920TIP3   OH224250   5.068   3.473   4.890  0.6219  0.7045  0.0963
  920TIP3    H124251   5.163   3.460   4.894  0.3302 -1.6415  1.6911
  920TIP3    H224252   5.039   3.413   4.822  0.0037 -1.4295  2.1123
  921TIP3   OH224253   5.635   5.905   5.636  0.8448  0.0825 -0.3727
  921TIP3    H124254   5.677   5.990   5.623 -0.0607  0.5742 -0.1865
  921TIP3    H224255   5.543   5.920   5.616  0.4017 -0.4892  1.0860
  922TIP3   OH224256   1.280   0.463  13.249  0.2279  0.2435  0.3402
  922TIP3    H124257   1.333   0.488  13.324 -0.1311 -1.2561  1.1225
  922TIP3    H224258   1.295   0.533  13.185  3.2010 -0.1374  0.4884
  923TIP3   OH224259   3.612   6.214   0.605  0.3736 -0.3773  0.0408
  923TIP3    H124260   3.543   6.245   0.664  0.7102 -0.6035  0.5644
  923TIP3    H224261   3.681   6.279   0.613  0.4165 -0.4056 -0.1115
  924TIP3   OH224262   0.878   1.510  14.898  0.6420 -0.3774  0.2222
  924TIP3    H124263   0.797   1.475  14.860  0.5045 -0.6557  0.7697
  924TIP3    H224264   0.873   1.604  14.881  0.4155 -0.4516 -0.1433
  925TIP3   OH224265   3.170   4.088  13.509 -0.1612  0.5672 -0.8111
  925TIP3    H124266   3.176   4.162  13.448 -0.2253  1.4839  0.2562
  925TIP3    H224267   3.176   4.128  13.595  0.4192 -0.7590 -0.2171
  926TIP3   OH224268   0.561   2.355  16.830 -0.5305 -0.2756  0.3976
  926TIP3    H124269   0.578   2.301  16.906 -0.3017  1.0325  1.3138
  926TIP3    H224270   0.466   2.363  16.825 -0.7058 -2.4651 -1.0228
  927TIP3   OH224271   4.354   6.686  13.687 -0.7387  0.1777 -0.7222
  927TIP3    H124272   4.431   6.727  13.726 -1.9512  0.5690  1.4218
  927TIP3    H224273   4.386   6.602  13.654  0.9875  1.1713 -1.7174
  928TIP3   OH224274   3.722   2.120   3.543 -0.1898 -0.0974  0.2890
  928TIP3    H124275   3.780   2.168   3.603  0.7456 -0.6536 -0.1514
  928TIP3    H224276   3.733   2.028   3.568  1.2710 -0.4945 -1.5827
  929TIP3   OH224277   2.816   4.458  16.239 -0.5085  0.2734  0.6797
  929TIP3    H124278   2.832   4.380  16.185  2.3144  0.7011  0.7444
  929TIP3    H224279   2.775   4.520  16.179 -0.1965 -0.2976 -0.1429
  930TIP3   OH224280   1.549   4.257   2.989 -0.2115  0.1075  0.0629
  930TIP3    H124281   1.610   4.331   2.983 -1.1253  0.7969 -1.3499
  930TIP3    H224282   1.479   4.279   2.927 -1.5055 -1.0262  1.0656
  931TIP3   OH224283   0.475   5.298   4.180 -0.3965 -0.2265  0.1584
  931TIP3    H124284   0.426   5.216   4.178  0.5606 -0.8212  0.3413
  931TIP3    H224285   0.509   5.308   4.091  0.6293 -0.7639  0.4678
  932TIP3   OH224286   1.560   2.944  16.782  0.0886 -0.1385 -0.0940
  932TIP3    H124287   1.548   2.947  16.877  0.7170  1.8838 -0.0367
  932TIP3    H224288   1.653   2.922  16.771  0.2981  0.7290 -0.1830
  933TIP3   OH224289   2.815   6.748  15.292 -0.1609  0.4159  0.6138
  933TIP3    H124290   2.745   6.693  15.326 -0.6155  0.8464  0.3853
  933TIP3    H224291   2.856   6.786  15.370 -0.2965  0.3084  0.7366
  934TIP3   OH224292   4.191   2.039   3.813 -0.1418  0.1107 -0.2770
  934TIP3    H124293   4.096   2.028   3.809 -0.1295 -0.3324  0.5477
  934TIP3    H224294   4.226   1.951   3.801  0.0540 -0.3171  2.7865
  935TIP3   OH224295   2.347   2.786  13.618  0.1640 -0.6579  0.1929
  935TIP3    H124296   2.400   2.839  13.558  0.8082 -0.5143  0.8809
  935TIP3    H224297   2.373   2.815  13.705 -1.7581  0.1214  0.5567
  936TIP3   OH224298   4.355   4.154  14.605 -0.1786 -0.4043 -0.3006
  936TIP3    H124299   4.321   4.206  14.532 -0.8179 -0.2839  0.0764
  936TIP3    H224300   4.368   4.217  14.676  1.0603 -0.4084 -0.4989
  937TIP3   OH224301   5.299   0.327   3.155 -0.5970  0.2675  0.2960
  937TIP3    H124302   5.269   0.337   3.064 -0.7878 -0.1839  0.3071
  937TIP3    H224303   5.240   0.383   3.206 -1.6707 -0.8790  0.3615
  938TIP3   OH224304   2.069   4.512   5.265 -0.3061 -0.0063 -0.4248
  938TIP3    H124305   2.159   4.501   5.234 -0.0186 -0.6238  0.5957
  938TIP3    H224306   2.040   4.423   5.287 -0.4259  0.4027  1.2220
  939TIP3   OH224307   0.087   1.616  11.111  0.6083 -0.5278  0.1314
  939TIP3    H124308  -0.005   1.621  11.083  0.1953  1.3123  1.5910
  939TIP3    H224309   0.137   1.622  11.030 -0.5210 -2.0139 -0.7352
  940TIP3   OH224310   4.565   6.309  12.475  0.3071  0.0061  0.6132
  940TIP3    H124311   4.620   6.247  12.427 -1.0655 -0.2270 -0.7282
  940TIP3    H224312   4.585   6.292  12.567  1.9872 -0.4940  0.1952
  941TIP3   OH224313   6.245   2.117  15.570  0.2194 -0.2968  0.1605
  941TIP3    H124314   6.316   2.082  15.623 -0.6310  0.3348  1.7886
  941TIP3    H224315   6.232   2.206  15.603  0.8613  0.8318 -2.3728
  942TIP3   OH224316   2.752   2.370   0.439  0.4728  0.0584 -0.5449
  942TIP3    H124317   2.715   2.414   0.362  0.9924  1.2569 -0.1227
  942TIP3    H224318   2.835   2.334   0.408  0.1506 -0.4597 -0.8307
  943TIP3   OH224319   2.937   2.724  12.401  0.1163  0.2765  0.4939
  943TIP3    H124320   2.987   2.751  12.478 -0.7127  0.1098  1.1003
  943TIP3    H224321   2.874   2.794  12.387  1.3484  1.1346 -1.0693
  944TIP3   OH224322   6.066   6.775   0.274  0.8795  0.4143 -0.2571
  944TIP3    H124323   5.986   6.728   0.249  2.3601 -2.7288  0.4328
  944TIP3    H224324   6.083   6.747   0.364  2.2843  1.7459 -0.0724
  945TIP3   OH224325   4.964   0.254   0.530 -0.2393 -0.0003  0.2436
  945TIP3    H124326   4.934   0.193   0.462  1.1130 -0.4795  0.0564
  945TIP3    H224327   4.914   0.334   0.514 -2.4647 -1.1872  0.8211
  946TIP3   OH224328   2.330   5.297  15.665  0.2046  1.0203  0.2239
  946TIP3    H124329   2.387   5.325  15.737  0.1037  1.4268  0.1499
  946TIP3    H224330   2.378   5.325  15.586 -0.3702  1.9075  0.1748
  947TIP3   OH224331   5.642   5.781   1.536 -0.0670  0.5656 -0.4922
  947TIP3    H124332   5.620   5.871   1.561 -1.0725  0.4484 -0.9335
  947TIP3    H224333   5.628   5.779   1.441 -0.0099 -0.0488 -0.4873
  948TIP3   OH224334   5.077   2.071   4.988  0.3767  0.3229 -0.2624
  948TIP3    H124335   5.003   2.019   4.958  0.5969 -0.4537  0.4860
  948TIP3    H224336   5.055   2.094   5.078  1.3668 -0.5787  0.2401
  949TIP3   OH224337   2.551   0.069   6.316  0.2154 -0.0218  0.3368
  949TIP3    H124338   2.565   0.034   6.404 -2.5297 -3.1869 -0.2912
  949TIP3    H224339   2.578  -0.001   6.257 -0.5997  0.9285 -1.2464
  950TIP3   OH224340   4.368   6.079   0.940  0.0421  0.4142  0.7256
  950TIP3    H124341   4.316   6.118   1.010 -0.8570  2.6023 -1.0680
  950TIP3    H224342   4.458   6.080   0.975 -0.2894  2.0280  1.6381
  951TIP3   OH224343   1.119   4.310   2.401 -0.5797  0.6275  0.0057
  951TIP3    H124344   1.072   4.269   2.328  0.1190  0.9927 -0.6718
  951TIP3    H224345   1.103   4.252   2.476  2.1162 -2.2498 -1.3790
  952TIP3   OH224346   1.520   1.283   4.212  0.0636 -0.1964  0.5414
  952TIP3    H124347   1.480   1.262   4.127 -1.4046 -1.6675  1.5561
  952TIP3    H224348   1.466   1.355   4.246  0.3321  0.0337  0.4908
  953TIP3   OH224349   6.396   3.950  17.147 -0.2666  0.3333 -0.1623
  953TIP3    H124350   6.488   3.975  17.134 -0.2323 -0.7429 -2.4759
  953TIP3    H224351   6.363   3.934  17.058 -2.5998  0.3422  0.6541
  954TIP3   OH224352   1.657   3.230   3.411  0.2841  0.0539  0.0554
  954TIP3    H124353   1.670   3.141   3.378 -1.8424 -0.8557  1.4757
  954TIP3    H224354   1.572   3.256   3.375  0.8633  1.5119 -0.3016
  955TIP3   OH224355   4.916   1.949  14.045 -0.1881  0.0892 -0.2764
  955TIP3    H124356   4.985   1.882  14.039 -1.3280 -1.1747  0.1108
  955TIP3    H224357   4.899   1.958  14.138 -0.6160  0.3181 -0.3735
  956TIP3   OH224358   4.891   2.509  12.881 -0.5907  0.1845  0.0194
  956TIP3    H124359   4.823   2.441  12.887 -0.3954  0.0954  1.9914
  956TIP3    H224360   4.950   2.478  12.812 -0.8677 -1.3433  0.4241
  957TIP3   OH224361   0.452   6.653  11.055  0.3327  0.1834 -0.1382
  957TIP3    H124362   0.486   6.648  10.966  1.1725 -0.1823  0.1895
  957TIP3    H224363   0.378   6.713  11.049  1.3254  1.4169 -0.8034
  958TIP3   OH224364   5.519   4.947   4.473  0.5429  0.2590  0.1608
  958TIP3    H124365   5.612   4.933   4.490  0.8037  0.8064 -0.7556
  958TIP3    H224366   5.513   4.956   4.378 -0.5707 -0.6423  0.1257
  959TIP3   OH224367   5.787   3.052   0.016 -0.6000  0.1140 -0.0746
  959TIP3    H124368   5.878   3.053  -0.012 -0.4202  1.7265  0.4606
  959TIP3    H224369   5.746   3.124  -0.032 -1.0187  0.8842  1.3865
  960TIP3   OH224370   4.841   1.028   2.797  0.2164  0.7978  0.5471
  960TIP3    H124371   4.775   1.022   2.728  0.2184  0.1596  0.5946
  960TIP3    H224372   4.894   1.104   2.773 -1.0432  1.8461  0.9649
  961TIP3   OH224373   2.208   0.286   5.636  0.0303 -0.1677 -0.2084
  961TIP3    H124374   2.244   0.232   5.707  0.0459  1.0580  0.7372
  961TIP3    H224375   2.285   0.321   5.592  0.0163 -0.6324 -0.6081
  962TIP3   OH224376   1.999   3.364  13.607 -0.4273  0.6748 -0.1858
  962TIP3    H124377   1.912   3.358  13.568  0.1256 -3.5685 -1.2989
  962TIP3    H224378   2.059   3.357  13.532  0.8767  1.2915  0.7615
  963TIP3   OH224379   6.531   4.765  15.798  0.2454  0.1802  0.2190
  963TIP3    H124380   6.565   4.704  15.863  0.7964 -1.3326 -1.4159
  963TIP3    H224381   6.584   4.844  15.811  1.1988 -0.5193  0.7787
  964TIP3   OH224382   2.243   2.847  13.239  0.3880 -0.1213  0.3984
  964TIP3    H124383   2.331   2.814  13.219  1.2073  1.9346  0.3676
  964TIP3    H224384   2.197   2.845  13.156  1.8512  2.7697 -0.6226
  965TIP3   OH224385   5.731   3.221   5.146  0.2991 -0.4318  0.2010
  965TIP3    H124386   5.767   3.133   5.153  0.9033 -0.1573  0.7383
  965TIP3    H224387   5.637   3.209   5.136  0.2832 -1.1115  1.0912
  966TIP3   OH224388   5.089   5.249   0.362  0.0572  0.1847 -0.0996
  966TIP3    H124389   5.141   5.238   0.282 -2.2011  1.3770 -1.8677
  966TIP3    H224390   5.022   5.313   0.338 -0.2348  1.2262  3.0527
  967TIP3   OH224391   1.458   6.071  15.402  0.0662 -0.3809 -0.1951
  967TIP3    H124392   1.377   6.095  15.447  0.4880 -0.3898  0.5785
  967TIP3    H224393   1.447   5.978  15.381 -1.1012  0.1261 -2.2054
  968TIP3   OH224394   5.924   3.094  13.700  0.5973  0.3838 -0.3796
  968TIP3    H124395   5.840   3.140  13.687 -1.7216 -3.9270 -3.3191
  968TIP3    H224396   5.938   3.096  13.794 -3.0886  1.0623  0.3351
  969TIP3   OH224397   0.834   1.711   6.636  0.3451 -0.2359  0.8454
  969TIP3    H124398   0.773   1.640   6.613 -1.4716  1.9561 -1.8528
  969TIP3    H224399   0.916   1.667   6.656 -0.5644 -3.1066 -1.0932
  970TIP3   OH224400   2.594   2.565  12.829  0.3708  0.2445 -0.3544
  970TIP3    H124401   2.683   2.575  12.861  0.4062  0.8754 -0.6367
  970TIP3    H224402   2.588   2.625  12.754  0.4876 -1.6667 -1.9772
  971TIP3   OH224403   5.123   2.699   6.234  0.2365 -0.0410 -0.1127
  971TIP3    H124404   5.127   2.613   6.193  0.4580  0.4564 -1.1851
  971TIP3    H224405   5.209   2.712   6.273  0.5076  0.0563 -0.7333
  972TIP3   OH224406   4.328   1.384  11.324  0.4035  0.9127  0.3424
  972TIP3    H124407   4.316   1.312  11.261 -0.2390  0.2488  1.1886
  972TIP3    H224408   4.245   1.431  11.323 -0.0489  0.1857  1.5316
  973TIP3   OH224409   2.597   2.099  13.272 -0.8389 -0.1685 -0.2922
  973TIP3    H124410   2.593   2.079  13.178  2.3547  1.6378 -0.9831
  973TIP3    H224411   2.607   2.014  13.315  1.9139 -0.9186 -2.0868
  974TIP3   OH224412   6.395   6.348   3.851 -0.4192  0.1097  0.0712
  974TIP3    H124413   6.394   6.369   3.945  1.3683 -2.0062  0.6487
  974TIP3    H224414   6.373   6.255   3.847  0.5212 -0.0838 -1.5214
  975TIP3   OH224415   1.847   6.629  16.818 -0.6548 -0.3545 -0.1270
  975TIP3    H124416   1.773   6.683  16.789 -1.1963 -1.9800 -1.9087
  975TIP3    H224417   1.923   6.665  16.772 -1.1381 -1.4945 -1.9004
  976TIP3   OH224418   3.388   5.015  12.182  0.1149 -0.1876 -0.4282
  976TIP3    H124419   3.383   5.020  12.277  1.3674 -2.4622 -0.1526
  976TIP3    H224420   3.482   5.014  12.163 -0.1100 -0.2515 -1.6371
  977TIP3   OH224421   6.287   2.155   0.892 -0.1072 -0.3938 -0.1953
  977TIP3    H124422   6.245   2.086   0.841 -0.1652 -0.0948 -0.5653
  977TIP3    H224423   6.296   2.227   0.829  1.0482 -0.4905 -0.1571
  978TIP3   OH224424   0.349   4.327   2.325 -0.0368 -0.2091  0.2684
  978TIP3    H124425   0.368   4.270   2.400  1.2049 -1.2692 -0.7858
  978TIP3    H224426   0.307   4.269   2.262 -1.1525  0.6948  0.1683
  979TIP3   OH224427   2.309   5.343   4.501 -0.1805 -0.0248 -0.8279
  979TIP3    H124428   2.237   5.286   4.476  1.0877 -1.6153 -0.9904
  979TIP3    H224429   2.374   5.284   4.541  0.1767  1.6261  1.2358
  980TIP3   OH224430   3.740   0.945   3.837 -0.0794 -0.3912 -0.2621
  980TIP3    H124431   3.807   0.967   3.902  1.0609 -0.9215 -1.2181
  980TIP3    H224432   3.663   0.921   3.888  0.1684  1.0906  0.8589
  981TIP3   OH224433   0.602   4.953  16.924 -0.9195 -0.4202  0.4278
  981TIP3    H124434   0.658   4.979  16.851 -0.7798  1.8545  1.2531
  981TIP3    H224435   0.587   5.034  16.973 -0.8550 -1.8622  3.0401
  982TIP3   OH224436   4.892   4.717  16.892  0.2441  0.0716  0.2376
  982TIP3    H124437   4.933   4.803  16.898 -1.1828  0.7694  0.5750
  982TIP3    H224438   4.850   4.704  16.978 -2.0662  0.4181 -0.7464
  983TIP3   OH224439   1.454   5.606   1.271  0.1348 -0.4687  0.1548
  983TIP3    H124440   1.379   5.608   1.330  0.4318 -1.6048  0.6011
  983TIP3    H224441   1.415   5.619   1.184 -0.2435  1.7424  0.5962
  984TIP3   OH224442   6.459   1.736   6.116  0.1665 -0.1072 -0.4706
  984TIP3    H124443   6.535   1.793   6.106 -0.0212  0.0016 -1.3436
  984TIP3    H224444   6.484   1.674   6.184  0.4474  0.8906  0.3631
  985TIP3   OH224445   3.073   0.143  11.839 -0.0579  0.0806  0.1340
  985TIP3    H124446   2.986   0.104  11.831 -0.4333  0.9216 -0.0122
  985TIP3    H224447   3.093   0.137  11.933  0.0590 -0.7973  0.0588
  986TIP3   OH224448   2.472   6.279   4.795 -0.6714  0.3450 -0.0775
  986TIP3    H124449   2.407   6.315   4.735 -0.0754  2.1871  0.3129
  986TIP3    H224450   2.556   6.310   4.761  0.0195 -1.6960 -0.3795
  987TIP3   OH224451   2.561   6.044  15.273 -0.4467  0.0101  0.4367
  987TIP3    H124452   2.509   6.120  15.299 -0.3566  0.1201  0.2965
  987TIP3    H224453   2.531   5.973  15.331 -2.1290 -0.4483 -0.9260
  988TIP3   OH224454   4.452   2.419   6.220  0.0649 -0.4797 -0.0873
  988TIP3    H124455   4.361   2.428   6.195  0.1425  2.1976  0.3220
  988TIP3    H224456   4.497   2.393   6.139 -0.7898  0.1087 -0.7664
  989TIP3   OH224457   1.725   1.893  11.593 -0.1026  0.5219  0.2600
  989TIP3    H124458   1.805   1.861  11.552 -0.9640 -0.7304 -0.5333
  989TIP3    H224459   1.705   1.828  11.661 -1.8801 -0.7893 -1.3787
  990TIP3   OH224460   3.191   2.361   0.640  0.4860  0.3265  0.1869
  990TIP3    H124461   3.159   2.275   0.665  0.4814  0.3083  0.1178
  990TIP3    H224462   3.119   2.420   0.662  0.4091  0.2868  0.0435
  991TIP3   OH224463   2.451   1.662  13.367  0.0210 -1.0040 -0.2793
  991TIP3    H124464   2.477   1.616  13.287 -0.6300 -1.9699  0.0404
  991TIP3    H224465   2.523   1.723  13.385 -0.0538 -0.4126 -1.8617
  992TIP3   OH224466   1.489   5.186  14.587 -0.4420 -0.4340  0.1681
  992TIP3    H124467   1.545   5.167  14.663  0.0372 -0.5071 -0.1978
  992TIP3    H224468   1.415   5.233  14.624  0.6549  1.1423  0.4648
  993TIP3   OH224469   5.106   4.005   0.725 -0.3193 -0.4016  0.0878
  993TIP3    H124470   5.200   3.993   0.712 -0.5577 -0.7734 -1.5909
  993TIP3    H224471   5.068   3.921   0.700 -1.2415  0.4388 -1.5568
  994TIP3   OH224472   6.644   4.312   2.665  0.0694 -0.3316 -0.0956
  994TIP3    H124473   6.630   4.402   2.697  0.2353  0.1297 -1.2675
  994TIP3    H224474   6.556   4.276   2.658 -0.1014  0.1922 -0.8286
  995TIP3   OH224475   2.164   3.230   0.071  0.1723 -0.2103  0.0451
  995TIP3    H124476   2.185   3.314   0.111  0.6957 -0.6273  0.6786
  995TIP3    H224477   2.221   3.168   0.116  1.8330 -0.5171 -2.3504
  996TIP3   OH224478   6.362   2.493   3.411  0.1228 -0.4078  0.7897
  996TIP3    H124479   6.328   2.481   3.500  1.7198 -0.7450  1.3797
  996TIP3    H224480   6.284   2.511   3.358 -0.6762  2.1258  2.6213
  997TIP3   OH224481   5.697   1.255   2.507  0.0165 -0.1832  0.4052
  997TIP3    H124482   5.706   1.179   2.449 -1.4467 -0.8020  0.9448
  997TIP3    H224483   5.787   1.278   2.530  0.4912 -1.7971  0.2722
  998TIP3   OH224484   6.751   1.922   2.405 -0.5563  0.4344  0.0246
  998TIP3    H124485   6.679   1.984   2.420 -0.8838  0.0323  0.1520
  998TIP3    H224486   6.753   1.868   2.484 -2.2803 -1.6958 -1.2498
  999TIP3   OH224487   5.958   5.323  16.207 -0.3492 -0.7324  0.2718
  999TIP3    H124488   6.035   5.267  16.217 -2.0643 -3.0241  1.4119
  999TIP3    H224489   5.894   5.269  16.161 -1.5030  0.9061 -0.1405
 1000TIP3   OH224490   4.764   5.315   5.880 -0.2799 -0.3663  0.3292
 1000TIP3    H124491   4.734   5.382   5.941 -1.3943 -0.8559  0.3421
 1000TIP3    H224492   4.855   5.300   5.904 -0.8781 -1.0602  2.3770
 1001TIP3   OH224493   1.486   0.507   1.926 -0.3163 -0.3694  0.2552
 1001TIP3    H124494   1.518   0.436   1.981  2.9316 -0.1444 -1.1070
 1001TIP3    H224495   1.462   0.464   1.843  3.6032  0.0998 -1.3315
 1002TIP3   OH224496   2.758   2.931   4.001  0.5888  0.3493 -0.1481
 1002TIP3    H124497   2.698   2.860   3.979 -0.2643  1.1023 -0.2926
 1002TIP3    H224498   2.841   2.906   3.960  0.4568 -0.8181  0.2559
 1003TIP3   OH224499   6.205   5.211   1.418  0.0757  0.5652 -0.7510
 1003TIP3    H124500   6.280   5.153   1.425  0.0409  0.5326 -0.6460
 1003TIP3    H224501   6.181   5.231   1.508 -0.5965 -0.1426 -0.7509
 1004TIP3   OH224502   2.578   4.544   4.384  0.0030  0.4477  0.0134
 1004TIP3    H124503   2.603   4.472   4.441  0.0887 -0.2690 -0.9089
 1004TIP3    H224504   2.649   4.607   4.392 -0.2695  0.6387  1.1414
 1005TIP3   OH224505   2.979   2.485   4.182  0.1117  0.4463 -0.2299
 1005TIP3    H124506   2.996   2.394   4.206 -1.3080  0.0641 -0.5791
 1005TIP3    H224507   2.999   2.535   4.262  0.6088 -0.1951  0.0546
 1006TIP3   OH224508   4.453   3.458   5.469  0.1367 -0.3849  0.2147
 1006TIP3    H124509   4.426   3.396   5.401  1.1077  0.3648 -0.8958
 1006TIP3    H224510   4.375   3.509   5.487  0.2254  0.4335 -1.4996
 1007TIP3   OH224511   5.994   6.125  13.003 -0.1375 -0.0061 -0.0572
 1007TIP3    H124512   6.015   6.193  13.067 -1.0599  0.5122 -0.2927
 1007TIP3    H224513   5.917   6.081  13.039  0.1689 -0.6203 -0.1392
 1008TIP3   OH224514   6.707   1.904  13.304  0.3180 -0.4049  0.3933
 1008TIP3    H124515   6.676   1.975  13.249 -0.6326  1.0783  2.7058
 1008TIP3    H224516   6.799   1.925  13.320  0.4708 -0.5894 -0.2013
 1009TIP3   OH224517   0.028   5.851   3.831  0.0358 -0.1000  0.1583
 1009TIP3    H124518  -0.002   5.762   3.811 -3.4090  0.3571  2.4809
 1009TIP3    H224519   0.060   5.846   3.921 -1.2803  1.1985  0.7302
 1010TIP3   OH224520   2.947   3.880  13.123  0.3655 -0.1212 -0.1925
 1010TIP3    H124521   2.913   3.792  13.108 -0.9404  0.1414  1.0185
 1010TIP3    H224522   2.902   3.910  13.201  1.6768  1.1871  0.1071
 1011TIP3   OH224523   3.347   5.238  12.700  0.0846 -0.0317 -0.0694
 1011TIP3    H124524   3.285   5.269  12.634 -0.1574  0.1009  0.2160
 1011TIP3    H224525   3.433   5.256  12.663 -0.0317 -1.0325 -0.8618
 1012TIP3   OH224526   2.499   0.701   0.744 -0.0142 -0.3359 -0.1413
 1012TIP3    H124527   2.500   0.726   0.836  2.9939  0.3317 -0.2622
 1012TIP3    H224528   2.543   0.774   0.699  0.7330 -1.7192 -1.7608
 1013TIP3   OH224529   6.132   0.584  12.052  0.2395 -0.0726  0.0539
 1013TIP3    H124530   6.092   0.517  12.108 -1.0991 -0.2812 -1.0640
 1013TIP3    H224531   6.211   0.542  12.017  0.7458 -0.1592  1.2611
 1014TIP3   OH224532   6.575   2.615  11.683 -0.0926  0.2273  0.5246
 1014TIP3    H124533   6.529   2.631  11.601  1.2929  0.1929 -0.2756
 1014TIP3    H224534   6.527   2.667  11.748  0.6163  2.7286 -0.8573
 1015TIP3   OH224535   1.049   4.597  12.611  0.1877  0.5531 -0.1209
 1015TIP3    H124536   1.074   4.595  12.519  0.7833  2.9619 -0.0726
 1015TIP3    H224537   0.977   4.660  12.615 -0.5582 -0.3332  0.9294
 1016TIP3   OH224538   2.384   2.570  14.419  0.3844  0.0537 -0.2739
 1016TIP3    H124539   2.294   2.604  14.425  0.2287  0.0303 -1.9818
 1016TIP3    H224540   2.437   2.635  14.465 -0.5434 -0.2395  1.3137
 1017TIP3   OH224541   4.959   6.347   0.021 -0.4545  0.0468  0.0937
 1017TIP3    H124542   4.890   6.345  -0.045 -0.1438 -1.1992 -0.2324
 1017TIP3    H224543   4.933   6.280   0.084  0.6028 -0.6771 -0.2140
 1018TIP3   OH224544   0.803   3.743  14.207 -0.5740  0.1632 -0.7996
 1018TIP3    H124545   0.883   3.693  14.223  0.8497  2.6493  0.3841
 1018TIP3    H224546   0.732   3.681  14.222  1.0743 -1.3813  1.0373
 1019TIP3   OH224547   6.748   4.396   5.851 -0.3686 -0.1707 -0.2217
 1019TIP3    H124548   6.742   4.362   5.941 -0.9711 -1.2129 -0.6335
 1019TIP3    H224549   6.728   4.320   5.796 -2.1046  0.9188 -1.1943
 1020TIP3   OH224550   2.486   6.434   2.266  0.7506 -0.2860  0.4035
 1020TIP3    H124551   2.527   6.353   2.236  1.6281 -0.1860  1.2730
 1020TIP3    H224552   2.539   6.503   2.226  0.3672 -0.1476  0.1377
 1021TIP3   OH224553   4.699   3.415   0.932 -0.9315  0.2625 -0.2562
 1021TIP3    H124554   4.632   3.366   0.980 -0.7617  0.4722  0.2032
 1021TIP3    H224555   4.692   3.384   0.842 -0.2583 -1.2517  0.1776
 1022TIP3   OH224556   2.666   3.365   1.808 -0.3760 -0.1530  0.9166
 1022TIP3    H124557   2.604   3.294   1.793 -0.6507 -0.9232  4.7274
 1022TIP3    H224558   2.751   3.328   1.787 -0.6975 -0.9820  1.0350
 1023TIP3   OH224559   6.391   5.543   2.833 -0.0454  0.2814  0.1735
 1023TIP3    H124560   6.441   5.495   2.899 -0.1879  0.6118  0.5195
 1023TIP3    H224561   6.390   5.484   2.757 -0.9155 -0.6104  0.8586
 1024TIP3   OH224562   1.756   6.646  11.516  0.0835 -0.0614 -0.0774
 1024TIP3    H124563   1.686   6.661  11.581  0.0828  0.5102 -0.2040
 1024TIP3    H224564   1.711   6.604  11.443 -0.4258  1.4808 -0.7106
 1025TIP3   OH224565   6.733   5.026  13.548 -0.2664 -0.5107 -0.4322
 1025TIP3    H124566   6.732   5.019  13.644 -0.1757 -0.6056 -0.4384
 1025TIP3    H224567   6.738   4.935  13.518  1.8883 -0.4046 -0.5121
 1026TIP3   OH224568   0.055   5.741   0.733 -0.5645  0.4072  0.6995
 1026TIP3    H124569  -0.015   5.700   0.783 -1.1406  0.2140 -0.2478
 1026TIP3    H224570   0.110   5.783   0.799 -1.8334  0.9808  1.4396
 1027TIP3   OH224571   0.478   1.119  14.858 -0.0016 -0.5233 -0.4851
 1027TIP3    H124572   0.544   1.165  14.805 -1.1587 -0.8801 -2.3012
 1027TIP3    H224573   0.401   1.115  14.802 -0.3008 -3.7767 -0.0285
 1028TIP3   OH224574   2.100   3.960   5.496 -0.0446 -0.1353 -0.6118
 1028TIP3    H124575   2.112   3.990   5.586 -0.8515 -2.1838  0.2402
 1028TIP3    H224576   2.027   4.013   5.463 -0.0517  0.3171  0.1057
 1029TIP3   OH224577   0.086   2.531  13.421 -0.0487 -0.5171  0.2740
 1029TIP3    H124578   0.054   2.613  13.384  0.3387 -0.1270  0.7842
 1029TIP3    H224579   0.083   2.469  13.349  1.6659  0.4784 -0.7222
 1030TIP3   OH224580   0.371   4.710  14.331 -0.1720 -0.1244 -0.4139
 1030TIP3    H124581   0.298   4.737  14.386 -0.4223 -1.4368 -0.0904
 1030TIP3    H224582   0.415   4.793  14.309 -0.8270  0.5430  0.6674
 1031TIP3   OH224583   2.429   0.180  13.303 -0.1515  0.3275  0.4062
 1031TIP3    H124584   2.427   0.242  13.229  0.8330  1.1776  1.0592
 1031TIP3    H224585   2.452   0.234  13.378  1.1419 -0.8995  0.9335
 1032TIP3   OH224586   1.618   6.201  13.223  0.3965 -0.1995  0.1074
 1032TIP3    H124587   1.707   6.167  13.237  0.1356 -0.7749  0.3592
 1032TIP3    H224588   1.615   6.223  13.130  0.6299 -0.6733 -0.0142
 1033TIP3   OH224589   1.323   3.889  16.398  0.3668  0.0448  0.4409
 1033TIP3    H124590   1.360   3.802  16.383  0.5337  0.0787  0.6498
 1033TIP3    H224591   1.329   3.933  16.313  3.3175  1.0064  1.0139
 1034TIP3   OH224592   1.900   5.992  13.910  0.4985 -0.1164  0.3606
 1034TIP3    H124593   1.916   6.057  13.841  1.2579  0.1802  0.8009
 1034TIP3    H224594   1.818   5.950  13.885 -0.8807  2.1250  0.9348
 1035TIP3   OH224595   2.063   3.639  15.275 -0.7050  0.4240  0.6002
 1035TIP3    H124596   2.092   3.720  15.234  0.5034 -0.2816  0.0080
 1035TIP3    H224597   2.000   3.667  15.342  0.9798  1.9904  1.6144
 1036TIP3   OH224598   5.296   5.368   0.780 -0.5622  0.1576  0.5705
 1036TIP3    H124599   5.354   5.301   0.816 -1.6064 -1.0672  0.0493
 1036TIP3    H224600   5.313   5.366   0.686  0.8289  2.0539  0.7328
 1037TIP3   OH224601   5.918   5.538   4.381  0.4825 -0.8028  0.0030
 1037TIP3    H124602   5.933   5.614   4.437  0.0904 -1.6392  1.2763
 1037TIP3    H224603   5.942   5.568   4.293  1.2430  0.4920  0.6264
 1038TIP3   OH224604   3.924   3.569  13.016 -0.6087 -0.0173  0.5347
 1038TIP3    H124605   3.969   3.508  12.958 -1.7731 -0.9986  0.6157
 1038TIP3    H224606   3.926   3.528  13.102  0.0816  0.8826  0.9722
 1039TIP3   OH224607   1.900   1.422  12.309  0.4593 -0.2491 -0.3310
 1039TIP3    H124608   1.962   1.358  12.343 -0.3070 -1.1079 -0.5019
 1039TIP3    H224609   1.926   1.434  12.218 -1.4161 -2.9925 -1.3713
 1040TIP3   OH224610   0.558   1.048   5.700 -0.1943 -0.3126  0.5570
 1040TIP3    H124611   0.463   1.048   5.691 -0.4336  0.5057  2.5179
 1040TIP3    H224612   0.586   0.964   5.664 -1.5726 -0.2627 -0.6987
 1041TIP3   OH224613   1.878   0.037   0.085  0.2096  0.2741  0.4231
 1041TIP3    H124614   1.804   0.008   0.140  0.6024  0.2802  0.9671
 1041TIP3    H224615   1.837   0.075   0.008 -0.3934  1.4516  1.2982
 1042TIP3   OH224616   2.111   4.612  17.162 -0.2371  0.4352 -0.4079
 1042TIP3    H124617   2.072   4.686  17.210 -0.5136 -0.8091  1.3787
 1042TIP3    H224618   2.057   4.603  17.084 -0.5189  1.7970 -0.3958
 1043TIP3   OH224619   0.304   5.899  16.883  0.5192 -0.7008  0.0567
 1043TIP3    H124620   0.360   5.822  16.885  2.8582  0.9022  1.3374
 1043TIP3    H224621   0.223   5.872  16.927  1.3222 -2.3706  0.5846
 1044TIP3   OH224622   5.775   3.511   2.765  0.4571  0.2459 -0.4921
 1044TIP3    H124623   5.756   3.486   2.675  0.2592  0.7776 -0.6047
 1044TIP3    H224624   5.693   3.495   2.812  0.5790 -0.0879 -0.3980
 1045TIP3   OH224625   3.883   2.604   3.190  0.3263  0.0770 -0.0454
 1045TIP3    H124626   3.878   2.522   3.240 -1.8672  0.7163  0.8805
 1045TIP3    H224627   3.860   2.578   3.101  0.4383 -0.4336  0.0663
 1046TIP3   OH224628   6.516   1.925  15.113  0.3481  0.2224  0.3257
 1046TIP3    H124629   6.557   1.887  15.191  0.5156  0.5464  0.3984
 1046TIP3    H224630   6.570   2.001  15.093 -1.9285  2.5122  2.2258
 1047TIP3   OH224631   1.073   2.722   5.548  0.3406  0.1394 -0.0416
 1047TIP3    H124632   1.071   2.738   5.453 -0.6377 -1.4291 -0.3341
 1047TIP3    H224633   0.983   2.737   5.576  0.3589 -0.5797  0.4105
 1048TIP3   OH224634   1.914   1.462   3.229  0.1678  0.6364 -0.3543
 1048TIP3    H124635   2.006   1.441   3.244 -0.3014 -0.1642  1.6392
 1048TIP3    H224636   1.873   1.378   3.213 -0.3769  0.9098 -0.4091
 1049TIP3   OH224637   4.948   0.769   5.292 -0.0898 -0.2279 -0.2064
 1049TIP3    H124638   4.995   0.713   5.353 -0.8139  0.7238  1.2665
 1049TIP3    H224639   4.863   0.725   5.280  0.6489 -1.3068 -1.9192
 1050TIP3   OH224640   5.702   1.633   6.630 -0.4089 -0.3618  0.7238
 1050TIP3    H124641   5.672   1.702   6.688  3.2500  0.8600  1.4413
 1050TIP3    H224642   5.764   1.583   6.682  1.1651 -0.7563 -1.3644
 1051TIP3   OH224643   0.704   4.120  13.552 -0.3474  0.3637  0.0737
 1051TIP3    H124644   0.645   4.116  13.628 -2.6649 -2.8325 -1.6755
 1051TIP3    H224645   0.654   4.166  13.485  0.3356  0.1968 -0.5610
 1052TIP3   OH224646   2.472   3.274   1.525  0.5002  0.8491 -0.3031
 1052TIP3    H124647   2.507   3.350   1.479 -0.1638  1.3645  0.0207
 1052TIP3    H224648   2.377   3.290   1.529  0.4295  0.3136  0.3326
 1053TIP3   OH224649   5.098   0.188  11.636  0.0256 -0.9428 -0.7411
 1053TIP3    H124650   5.029   0.141  11.589  0.4130 -1.1155 -1.1459
 1053TIP3    H224651   5.085   0.280  11.612 -0.4266 -0.9031 -0.3456
 1054TIP3   OH224652   2.267   1.483  12.685 -0.0413 -0.2627  0.2069
 1054TIP3    H124653   2.175   1.509  12.673  0.1772  0.0790 -0.8884
 1054TIP3    H224654   2.263   1.387  12.693 -0.3068 -0.6062 -2.7601
 1055TIP3   OH224655   3.368   1.080  13.512 -0.7019  0.1388  0.0063
 1055TIP3    H124656   3.278   1.048  13.509 -0.9126  0.7838 -0.8177
 1055TIP3    H224657   3.378   1.113  13.601 -1.1230 -0.3587  0.2460
 1056TIP3   OH224658   5.018   1.253   4.060 -0.3577  0.0736  0.3392
 1056TIP3    H124659   5.070   1.192   4.114 -0.6763 -1.6568 -1.2015
 1056TIP3    H224660   5.010   1.331   4.114  0.1806 -1.1903  2.3857
 1057TIP3   OH224661   5.289   3.402   3.459 -0.2872 -0.0975 -0.7220
 1057TIP3    H124662   5.228   3.362   3.520 -2.3918  0.9697 -2.0055
 1057TIP3    H224663   5.339   3.329   3.423 -1.0430 -1.0438  0.1175
 1058TIP3   OH224664   5.064   2.170   2.331 -0.3545 -0.0677  0.2115
 1058TIP3    H124665   5.127   2.101   2.310 -2.1564 -1.1721 -1.9517
 1058TIP3    H224666   5.110   2.252   2.311  0.7056 -0.7898 -0.4051
 1059TIP3   OH224667   6.221   5.138   5.318 -0.7266  0.0608 -0.2208
 1059TIP3    H124668   6.300   5.126   5.370 -1.3019 -1.0846  0.4277
 1059TIP3    H224669   6.173   5.055   5.328 -1.5343  0.3624 -1.4039
 1060TIP3   OH224670   5.051   1.014   3.862  0.1000 -0.1623 -0.2135
 1060TIP3    H124671   5.036   1.086   3.924 -0.7720  0.9886 -1.7129
 1060TIP3    H224672   4.978   1.019   3.801  0.3991 -1.9197 -0.7703
 1061TIP3   OH224673   1.913   5.271  12.928  0.4432 -0.0523  0.8193
 1061TIP3    H124674   1.887   5.289  12.838  0.9958 -0.2796  0.6156
 1061TIP3    H224675   1.830   5.264  12.975  0.1417 -0.2515  0.2683
 1062TIP3   OH224676   0.577   1.383  15.084  0.3956  0.3604 -0.2662
 1062TIP3    H124677   0.560   1.367  14.991 -0.0174 -0.2250 -0.0953
 1062TIP3    H224678   0.510   1.445  15.111  1.4623  1.7450 -0.7232
 1063TIP3   OH224679   4.755   3.496  14.286 -0.1163 -0.4148 -0.5806
 1063TIP3    H124680   4.809   3.572  14.269  1.2023 -1.0223  0.7060
 1063TIP3    H224681   4.752   3.449  14.203  0.3171  0.2627 -0.9789
 1064TIP3   OH224682   1.465   0.561  17.025  0.0708 -0.0697  0.2136
 1064TIP3    H124683   1.552   0.573  17.062 -0.4152  0.0570  1.3469
 1064TIP3    H224684   1.409   0.622  17.073 -0.7987 -0.7298  0.0746
 1065TIP3   OH224685   1.478   1.768  12.722  0.2136  0.2629 -0.1516
 1065TIP3    H124686   1.395   1.809  12.746 -1.2711 -1.7463 -1.4884
 1065TIP3    H224687   1.508   1.817  12.646 -1.5773 -1.0334 -1.7874
 1066TIP3   OH224688   1.018   6.185   5.362 -0.0963 -0.5883 -0.1883
 1066TIP3    H124689   1.014   6.090   5.355  1.7334 -0.6599 -0.7211
 1066TIP3    H224690   1.105   6.203   5.399 -0.6957  0.8507  0.6299
 1067TIP3   OH224691   5.562   3.018   2.419  0.2290  0.3251 -0.0273
 1067TIP3    H124692   5.487   2.985   2.469 -1.0147  1.1354 -1.2798
 1067TIP3    H224693   5.524   3.049   2.337  2.3188 -1.9700 -1.9974
 1068TIP3   OH224694   1.453   0.701   2.858 -0.0762  0.2623 -0.5893
 1068TIP3    H124695   1.396   0.644   2.909 -0.0357  1.2365  0.5706
 1068TIP3    H224696   1.533   0.709   2.910 -0.2799  1.7753 -0.4614
 1069TIP3   OH224697   6.401   1.355   6.417 -0.7081  0.0898 -0.6346
 1069TIP3    H124698   6.421   1.360   6.324 -2.6905  1.3282 -1.0663
 1069TIP3    H224699   6.411   1.445   6.449  1.8796 -0.6303  0.8745
 1070TIP3   OH224700   1.487   4.094  10.511  0.1965 -0.0593  0.3060
 1070TIP3    H124701   1.578   4.093  10.482  0.0526 -2.8500 -0.3682
 1070TIP3    H224702   1.478   4.013  10.562 -1.7069  0.5893  1.0862
 1071TIP3   OH224703   4.823   0.393   5.671  0.6404  0.5722  0.1541
 1071TIP3    H124704   4.903   0.445   5.668 -0.3457  2.1236 -0.2537
 1071TIP3    H224705   4.790   0.404   5.760  0.8564 -0.0485  0.3155
 1072TIP3   OH224706   6.126   2.297  13.476 -0.0864  0.3112  0.2431
 1072TIP3    H124707   6.078   2.317  13.396  0.1780  0.2268  0.0619
 1072TIP3    H224708   6.194   2.365  13.480  0.4049 -0.1627 -0.0280
 1073TIP3   OH224709   4.488   1.344   4.813 -0.5327 -0.3892 -0.3001
 1073TIP3    H124710   4.441   1.417   4.771  2.9976  0.9419 -2.3139
 1073TIP3    H224711   4.499   1.372   4.903 -0.3746  1.0042 -0.7305
 1074TIP3   OH224712   4.221   3.507  13.621 -0.0356 -0.0839 -0.2164
 1074TIP3    H124713   4.159   3.457  13.675  0.7254  0.7968  1.5318
 1074TIP3    H224714   4.225   3.593  13.662  3.1022 -0.4057  0.3439
 1075TIP3   OH224715   4.818   1.962   1.406  0.1525  0.8546  0.3165
 1075TIP3    H124716   4.747   1.910   1.366  1.3044 -1.6570  1.3094
 1075TIP3    H224717   4.866   1.998   1.332 -0.5197  0.2316 -0.4408
 1076TIP3   OH224718   5.292   4.949   5.939 -0.0688 -0.5613 -0.3154
 1076TIP3    H124719   5.378   4.986   5.921  0.3393 -1.6777 -0.6950
 1076TIP3    H224720   5.309   4.869   5.987 -1.0086  0.4917  1.9189
 1077TIP3   OH224721   2.769   5.786   1.035  0.2795  0.3912  0.0856
 1077TIP3    H124722   2.844   5.761   0.980  0.6010  0.6251  0.4098
 1077TIP3    H224723   2.706   5.825   0.975  0.3642  0.0803 -0.2109
 1078TIP3   OH224724   1.396   6.715   1.018 -0.0008 -0.6787 -0.0410
 1078TIP3    H124725   1.406   6.649   0.949 -1.1651 -0.6793 -0.2211
 1078TIP3    H224726   1.338   6.781   0.980  1.1860  0.5137  0.1125
 1079TIP3   OH224727   4.314   2.035   1.072  0.0476 -0.0417 -0.0448
 1079TIP3    H124728   4.391   2.079   1.036  0.5087 -0.9031 -0.1407
 1079TIP3    H224729   4.241   2.066   1.019  0.3881  0.4404 -0.2417
 1080TIP3   OH224730   4.563   4.089  15.418  0.4753  0.2042 -0.4709
 1080TIP3    H124731   4.653   4.058  15.406  0.2313 -1.0199  0.6051
 1080TIP3    H224732   4.557   4.107  15.512 -0.4593  0.0800 -0.5024
 1081TIP3   OH224733   3.404   6.271   0.760 -0.3353 -0.5026  0.0199
 1081TIP3    H124734   3.432   6.289   0.850  1.6535  0.1084 -0.6602
 1081TIP3    H224735   3.336   6.336   0.741 -1.5109 -1.2850  1.3801
 1082TIP3   OH224736   5.507   6.492   4.840  0.7002 -0.0793 -0.4267
 1082TIP3    H124737   5.474   6.581   4.855  2.9454  0.6608  0.5382
 1082TIP3    H224738   5.464   6.439   4.907  0.1396  0.4815 -0.3348
 1083TIP3   OH224739   2.566   2.158  15.142  0.0607  0.2882  0.2004
 1083TIP3    H124740   2.602   2.103  15.072  0.8886 -1.2454  1.7319
 1083TIP3    H224741   2.550   2.242  15.101  2.4093  0.0741 -1.3881
 1084TIP3   OH224742   6.575   5.701  15.383 -0.1118  0.2749 -0.5636
 1084TIP3    H124743   6.598   5.650  15.305  0.9239  0.1072 -0.1656
 1084TIP3    H224744   6.598   5.644  15.456 -0.1498  0.8119 -0.1281
 1085TIP3   OH224745   5.935   2.097  11.803  0.4536 -0.3754  0.4287
 1085TIP3    H124746   5.969   2.024  11.751  1.5846 -0.5829  1.4062
 1085TIP3    H224747   5.958   2.075  11.893  0.2896  0.9133  0.8096
 1086TIP3   OH224748   6.219   2.869   0.279 -0.2053 -0.4652  0.7770
 1086TIP3    H124749   6.176   2.786   0.262 -1.1014  0.1820 -0.2613
 1086TIP3    H224750   6.309   2.846   0.302 -0.5477 -1.7278  0.9143
 1087TIP3   OH224751   5.446   1.953   3.195  0.0324  0.1886 -0.0885
 1087TIP3    H124752   5.403   2.007   3.129  0.1215 -0.0232 -0.3224
 1087TIP3    H224753   5.448   2.008   3.274 -1.3525 -0.0865  0.1566
 1088TIP3   OH224754   4.987   4.473  10.757  0.2042 -0.1472  0.1565
 1088TIP3    H124755   5.026   4.388  10.777  0.8866 -0.4096 -1.9447
 1088TIP3    H224756   4.904   4.474  10.804  0.6190 -1.5814  0.9724
 1089TIP3   OH224757   1.111   2.729  12.557  0.2837  0.7556  0.0755
 1089TIP3    H124758   1.073   2.722  12.645  0.2207 -1.5990 -0.0726
 1089TIP3    H224759   1.130   2.639  12.532  1.5048  1.4808 -1.8293
 1090TIP3   OH224760   4.349   5.133  11.849 -0.3018 -0.1339  0.1163
 1090TIP3    H124761   4.407   5.064  11.816 -0.5313 -0.2219 -0.1029
 1090TIP3    H224762   4.261   5.099  11.835 -0.4651  0.7507 -1.2020
 1091TIP3   OH224763   3.331   0.193   5.265 -0.4031  0.0605 -0.3790
 1091TIP3    H124764   3.380   0.243   5.200 -0.8313  1.7156  0.5184
 1091TIP3    H224765   3.399   0.151   5.318 -0.0428 -0.6463 -1.3530
 1092TIP3   OH224766   6.321   6.577  11.163  0.0328 -0.5297  0.6716
 1092TIP3    H124767   6.237   6.534  11.173 -1.3081  1.2174 -1.9116
 1092TIP3    H224768   6.327   6.597  11.070  3.4621 -0.7766  0.7082
 1093TIP3   OH224769   1.136   1.174   6.495 -0.0075 -0.0024 -0.3160
 1093TIP3    H124770   1.225   1.142   6.508 -0.0075 -0.2380 -0.8760
 1093TIP3    H224771   1.085   1.135   6.567  0.2366 -0.2771 -0.2918
 1094TIP3   OH224772   0.232   0.435   0.081  0.1479 -0.4124  0.4094
 1094TIP3    H124773   0.299   0.494   0.048 -1.1049  1.8912  1.7594
 1094TIP3    H224774   0.272   0.348   0.076  2.6086  0.6884 -0.3197
 1095TIP3   OH224775   1.505   6.562   5.197  0.2027  0.5748 -0.5507
 1095TIP3    H124776   1.577   6.621   5.219 -0.8879  1.4551  0.8272
 1095TIP3    H224777   1.442   6.574   5.268 -1.4189  0.0059 -1.8416
 1096TIP3   OH224778   4.242   5.389  11.186  0.1789  0.3707  0.4280
 1096TIP3    H124779   4.326   5.414  11.226  0.7635 -2.0582  0.8936
 1096TIP3    H224780   4.266   5.323  11.121 -1.3197  0.1980  0.0258
 1097TIP3   OH224781   0.637   4.396   2.966 -0.2132 -0.3942 -0.9905
 1097TIP3    H124782   0.556   4.428   3.005 -1.1269 -0.9375 -2.3910
 1097TIP3    H224783   0.693   4.375   3.041 -2.0242 -1.7126  0.0602
 1098TIP3   OH224784   5.477   2.381  11.525  0.4589  0.0289  0.0507
 1098TIP3    H124785   5.495   2.378  11.431  2.6703  1.5057  0.3417
 1098TIP3    H224786   5.388   2.415  11.531  0.8844  1.5859 -1.5381
 1099TIP3   OH224787   4.740   4.920   1.335  0.2981  0.1571 -0.7210
 1099TIP3    H124788   4.823   4.948   1.376  0.5863 -0.6444 -0.7316
 1099TIP3    H224789   4.728   4.830   1.366 -0.6871  0.3440 -0.5511
 1100TIP3   OH224790   6.756   1.712   5.771  0.1136 -0.5035  0.7478
 1100TIP3    H124791   6.759   1.807   5.759 -0.9274 -0.6223 -0.7611
 1100TIP3    H224792   6.774   1.699   5.864  3.5446  0.9276  0.4373
 1101TIP3   OH224793   2.256   1.137  15.752 -0.0711  0.2589  0.2982
 1101TIP3    H124794   2.278   1.228  15.733  1.5717  0.1631  1.4915
 1101TIP3    H224795   2.318   1.086  15.699 -1.3561 -0.2111 -0.8077
 1102TIP3   OH224796   2.052   2.302   3.733  0.5337  0.5571  0.1333
 1102TIP3    H124797   2.021   2.215   3.708 -2.3341  1.2534  0.8539
 1102TIP3    H224798   2.058   2.350   3.650 -0.5261  0.4101 -0.0444
 1103TIP3   OH224799   4.353   6.290  15.341  0.5011  0.4873  0.0708
 1103TIP3    H124800   4.273   6.244  15.367 -0.1856  1.7018  0.2293
 1103TIP3    H224801   4.368   6.353  15.412  0.2174  1.9053 -1.0717
 1104TIP3   OH224802   0.910   1.371  14.523  0.0772 -0.0053 -0.2665
 1104TIP3    H124803   0.945   1.440  14.579 -0.9402  0.7793 -0.5678
 1104TIP3    H224804   0.833   1.410  14.482  0.1662 -0.9262 -1.3680
 1105TIP3   OH224805   5.127   0.130  16.989 -0.1506 -0.3227 -0.2720
 1105TIP3    H124806   5.184   0.207  16.986 -1.2333  0.5165 -3.4742
 1105TIP3    H224807   5.064   0.148  17.059  0.9776  0.5977  0.5398
 1106TIP3   OH224808   6.112   2.603   5.900 -0.5042 -0.3977  0.0313
 1106TIP3    H124809   6.060   2.684   5.901  0.1213  0.0511  2.9267
 1106TIP3    H224810   6.074   2.549   5.969  0.2859 -1.8468 -0.6138
 1107TIP3   OH224811   1.601   3.548   3.694 -0.0973 -0.0745  0.7485
 1107TIP3    H124812   1.616   3.621   3.634  2.3982 -0.1141  1.2231
 1107TIP3    H224813   1.518   3.568   3.736 -0.5752  1.3246 -0.7559
 1108TIP3   OH224814   2.992   0.263   5.161  0.4728  0.5686 -0.6026
 1108TIP3    H124815   2.921   0.239   5.221 -0.3062  2.4518 -0.7065
 1108TIP3    H224816   3.038   0.181   5.145  0.0933 -0.1853  1.7626
 1109TIP3   OH224817   6.519   0.998   3.758 -0.3299 -0.4266  0.2527
 1109TIP3    H124818   6.607   0.962   3.765  0.6454  1.6628 -0.6597
 1109TIP3    H224819   6.462   0.923   3.777  1.5987 -1.9101  0.5604
 1110TIP3   OH224820   5.372   4.976   4.792 -0.5305  0.0373  0.4566
 1110TIP3    H124821   5.385   5.051   4.849  0.7477 -1.6697  2.5870
 1110TIP3    H224822   5.277   4.963   4.789 -0.7092  1.2276  0.7216
 1111TIP3   OH224823   5.085   4.310   0.749 -0.1698 -0.0874  0.1533
 1111TIP3    H124824   5.162   4.364   0.767 -0.3057  0.1605 -0.0029
 1111TIP3    H224825   5.121   4.222   0.734 -0.0140 -0.1840  1.0749
 1112TIP3   OH224826   5.526   3.975  17.099 -0.2139  0.0633  0.0285
 1112TIP3    H124827   5.535   3.947  17.008 -0.2998  0.7760 -0.2113
 1112TIP3    H224828   5.475   4.056  17.093 -0.0107  0.2439  0.6933
 1113TIP3   OH224829   4.286   3.911  16.745 -0.0683  0.0254 -0.5874
 1113TIP3    H124830   4.368   3.929  16.792  0.1780  1.3946 -1.4838
 1113TIP3    H224831   4.260   3.824  16.775  2.3300 -0.9648 -1.1200
 1114TIP3   OH224832   3.413   5.557   2.084 -0.5290 -0.2012  0.3261
 1114TIP3    H124833   3.401   5.490   2.016  2.3393 -0.1217 -0.3879
 1114TIP3    H224834   3.324   5.584   2.107 -1.6637 -1.0241 -2.5971
 1115TIP3   OH224835   4.352   4.039  14.330  0.6013 -0.3084  0.3377
 1115TIP3    H124836   4.345   4.048  14.425  0.1351  1.7165  0.1795
 1115TIP3    H224837   4.430   4.089  14.306 -0.2446  0.6773 -0.4705
 1116TIP3   OH224838   2.685   3.731   5.145 -0.5801 -0.7528 -0.7619
 1116TIP3    H124839   2.733   3.772   5.217 -0.5536  0.7661 -1.6092
 1116TIP3    H224840   2.593   3.748   5.165 -0.6161 -1.0687 -0.6569
 1117TIP3   OH224841   0.865   1.143  12.784  0.5271  0.1870  0.0784
 1117TIP3    H124842   0.806   1.139  12.709  0.1569 -0.6117  0.4057
 1117TIP3    H224843   0.904   1.056  12.789 -0.3217 -0.1502  1.4973
 1118TIP3   OH224844   3.123   5.311  17.099  0.5560  0.3255 -0.0839
 1118TIP3    H124845   3.078   5.322  17.182 -0.0645 -2.2601  0.0182
 1118TIP3    H224846   3.206   5.358  17.109 -0.2871  1.5826  1.2863
 1119TIP3   OH224847   5.846   4.785  17.097 -0.5092 -0.2337 -0.3404
 1119TIP3    H124848   5.902   4.748  17.165 -1.0723 -0.0187  0.2585
 1119TIP3    H224849   5.856   4.880  17.108 -1.9290 -0.1639  0.6077
 1120TIP3   OH224850   2.101   6.186  12.413  0.3107 -0.0054 -0.5923
 1120TIP3    H124851   2.088   6.107  12.361  1.2170 -1.6467  1.4867
 1120TIP3    H224852   2.174   6.165  12.471  1.7855  3.0432 -1.1353
 1121TIP3   OH224853   2.676   1.318   4.414 -0.1958 -0.1249 -0.2717
 1121TIP3    H124854   2.616   1.279   4.350 -0.5525  1.2534 -0.8076
 1121TIP3    H224855   2.710   1.396   4.371 -0.9506  1.2114  1.4367
 1122TIP3   OH224856   3.079   5.142  13.694 -0.0733 -0.0476  0.2058
 1122TIP3    H124857   3.064   5.141  13.788 -0.1782  1.5965  0.2373
 1122TIP3    H224858   3.103   5.233  13.674 -3.6485  0.6461 -1.8753
 1123TIP3   OH224859   4.656   5.526   5.754  0.2905  0.5390 -0.1793
 1123TIP3    H124860   4.702   5.602   5.788  1.5498  0.1220 -0.8741
 1123TIP3    H224861   4.680   5.455   5.813  0.0247  0.4526 -0.1762
 1124TIP3   OH224862   1.614   2.450   1.940  0.0071  0.8808  0.1268
 1124TIP3    H124863   1.628   2.501   1.861 -0.3736 -1.6472 -1.6612
 1124TIP3    H224864   1.691   2.394   1.948 -2.2859 -3.0425 -1.9201
 1125TIP3   OH224865   4.086   6.378  14.067  0.6375 -0.2668 -0.6219
 1125TIP3    H124866   4.121   6.321  13.999  1.4488  1.2385 -1.5206
 1125TIP3    H224867   4.110   6.466  14.039  2.7223  0.3424  2.4932
 1126TIP3   OH224868   4.388   6.171  15.632 -0.0283  0.2075 -0.3301
 1126TIP3    H124869   4.389   6.169  15.727  1.7456  1.6532 -0.2642
 1126TIP3    H224870   4.299   6.146  15.608 -0.8374  0.9328  1.7382
 1127TIP3   OH224871   4.887   6.490  14.176 -0.0615 -0.1796  0.2550
 1127TIP3    H124872   4.970   6.535  14.184 -0.3351  0.3564  0.1037
 1127TIP3    H224873   4.908   6.398  14.192  0.4058  0.0695  1.1126
 1128TIP3   OH224874   0.825   4.352  11.043 -0.1603  0.2516 -0.0308
 1128TIP3    H124875   0.745   4.305  11.018  1.0335 -1.3393 -1.0491
 1128TIP3    H224876   0.862   4.383  10.959  0.8716 -0.0194  0.3139
 1129TIP3   OH224877   5.460   1.811  12.992  0.3970 -0.3367  0.1708
 1129TIP3    H124878   5.485   1.719  12.995 -2.2840 -1.4018 -3.0401
 1129TIP3    H224879   5.527   1.853  12.937  0.2993 -0.9884 -0.4603
 1130TIP3   OH224880   5.073   3.209   2.712  0.2825  0.4376  0.0190
 1130TIP3    H124881   5.140   3.271   2.684  0.4414  0.7961  1.1329
 1130TIP3    H224882   5.037   3.174   2.631  2.2820 -0.2894 -0.6345
 1131TIP3   OH224883   4.435   6.098  15.179 -0.4949 -0.0755  0.2835
 1131TIP3    H124884   4.461   6.045  15.255 -0.0955  0.6689  0.6711
 1131TIP3    H224885   4.411   6.183  15.215 -1.7335 -0.1639 -0.2725
 1132TIP3   OH224886   4.931   2.349   4.683 -0.6913 -0.2922 -0.2941
 1132TIP3    H124887   4.838   2.342   4.705 -0.9024  0.3988 -0.9139
 1132TIP3    H224888   4.972   2.388   4.761 -1.3020  1.4553 -0.7980
 1133TIP3   OH224889   1.156   2.877  16.151 -0.2950 -0.0396  0.4061
 1133TIP3    H124890   1.075   2.834  16.124 -0.2097  0.8040 -1.3577
 1133TIP3    H224891   1.136   2.912  16.238 -2.1738  0.8950 -0.3155
 1134TIP3   OH224892   6.776   3.380   4.701  1.0376 -0.1009 -0.4373
 1134TIP3    H124893   6.774   3.399   4.608  0.8213  0.3143 -0.3485
 1134TIP3    H224894   6.689   3.404   4.733  0.7072 -1.3477 -0.3409
 1135TIP3   OH224895   3.503   3.862   3.123  0.0588 -0.0420 -0.1982
 1135TIP3    H124896   3.484   3.802   3.052 -0.1576 -1.4464  0.9981
 1135TIP3    H224897   3.595   3.886   3.111  0.1236 -0.5500 -0.7417
 1136TIP3   OH224898   5.112   2.014  13.207 -0.1352  0.3946  0.1110
 1136TIP3    H124899   5.064   1.932  13.209  1.9108 -0.8799 -0.3578
 1136TIP3    H224900   5.046   2.081  13.224 -2.1169 -1.2100 -0.9053
 1137TIP3   OH224901   2.442   5.235   0.699  0.0196  0.0827 -0.4905
 1137TIP3    H124902   2.372   5.279   0.650  0.6673  0.3726 -1.1662
 1137TIP3    H224903   2.448   5.285   0.781  1.1460  1.6882 -1.4839
 1138TIP3   OH224904   2.869   5.562  12.942  0.2090  0.2652 -0.1777
 1138TIP3    H124905   2.934   5.498  12.971  1.2759  1.6175  0.4732
 1138TIP3    H224906   2.919   5.626  12.891 -0.5482  1.4928  0.5909
 1139TIP3   OH224907   6.603   2.706   2.558 -0.6680 -0.4050  0.1143
 1139TIP3    H124908   6.695   2.726   2.574 -0.2965 -1.1258 -1.0343
 1139TIP3    H224909   6.568   2.784   2.516 -0.4827 -0.2800  0.1907
 1140TIP3   OH224910   0.955   1.484   2.698  0.4414 -0.0759 -0.2375
 1140TIP3    H124911   0.926   1.496   2.608  0.5380 -1.2941 -0.4447
 1140TIP3    H224912   1.043   1.448   2.691  1.1742  1.5289  0.3739
 1141TIP3   OH224913   3.544   6.715  12.068 -0.8413  0.1134 -0.3046
 1141TIP3    H124914   3.479   6.785  12.071 -0.9545  0.0811 -1.3596
 1141TIP3    H224915   3.506   6.643  12.118 -1.0423  0.5502  0.1713
 1142TIP3   OH224916   2.157   4.776   5.347 -0.4613  0.0431  0.0745
 1142TIP3    H124917   2.103   4.810   5.275 -1.3721 -1.5927 -0.0508
 1142TIP3    H224918   2.094   4.749   5.413  0.3369  0.5993  1.0990
 1143TIP3   OH224919   1.814   5.311   0.571 -0.6727 -0.1636  0.2358
 1143TIP3    H124920   1.870   5.253   0.623 -0.5072 -1.6648 -1.5070
 1143TIP3    H224921   1.726   5.297   0.606 -0.4525 -0.4691  0.6830
 1144TIP3   OH224922   4.483   2.447  15.318  0.0439  0.0795 -0.1676
 1144TIP3    H124923   4.520   2.410  15.398  0.8907 -0.4897 -0.8104
 1144TIP3    H224924   4.439   2.373  15.276  0.4166  0.1533 -0.6931
 1145TIP3   OH224925   0.314   5.353  15.426 -0.5471  0.5881 -0.5896
 1145TIP3    H124926   0.306   5.368  15.520  0.4553  2.8146 -0.7800
 1145TIP3    H224927   0.268   5.271  15.410 -1.5762  0.6524  1.6864
 1146TIP3   OH224928   1.667   4.514   5.127 -0.1562  0.4233 -0.0288
 1146TIP3    H124929   1.640   4.542   5.040  2.2198  0.0388 -0.9707
 1146TIP3    H224930   1.601   4.550   5.186 -1.1735  1.7004 -1.8698
 1147TIP3   OH224931   3.911   0.925  12.359 -0.4993 -0.1218 -0.4124
 1147TIP3    H124932   3.962   0.892  12.433 -2.5968 -1.0377  0.7219
 1147TIP3    H224933   3.947   1.012  12.342  0.2209  0.0038  1.5297
 1148TIP3   OH224934   0.306   2.701   3.093  0.1600 -0.2690 -0.6756
 1148TIP3    H124935   0.371   2.674   3.028 -1.1520 -1.1645 -1.6749
 1148TIP3    H224936   0.302   2.628   3.155  0.9152  0.2876  0.0481
 1149TIP3   OH224937   5.785   6.551   1.841 -0.3220 -0.6279 -0.3630
 1149TIP3    H124938   5.738   6.563   1.758  1.8116 -2.3225 -1.9276
 1149TIP3    H224939   5.758   6.625   1.895 -1.3682  0.8500 -2.7567
 1150TIP3   OH224940   2.150   2.189  12.799  0.5868  0.2214  0.2164
 1150TIP3    H124941   2.097   2.118  12.837 -0.7174 -0.1598 -2.0942
 1150TIP3    H224942   2.211   2.213  12.868 -1.0679 -0.9500  2.2203
 1151TIP3   OH224943   4.630   2.202  14.099  0.4499  0.2425  0.5590
 1151TIP3    H124944   4.624   2.170  14.009  2.3962 -0.0360  0.4815
 1151TIP3    H224945   4.582   2.285  14.098  1.0876  0.6312 -0.9406
 1152TIP3   OH224946   6.310   0.884  11.490  0.2859 -0.6105 -0.0965
 1152TIP3    H124947   6.336   0.902  11.580 -1.1965 -0.3335  0.2875
 1152TIP3    H224948   6.392   0.889  11.441  0.8314  1.3284  0.9034
 1153TIP3   OH224949   2.328   5.202   0.139  0.1671  0.0126  0.1383
 1153TIP3    H124950   2.387   5.227   0.068 -0.1993 -0.0409 -0.1860
 1153TIP3    H224951   2.386   5.191   0.215  0.2711  2.7491  0.5460
 1154TIP3   OH224952   3.833   0.342   1.390 -0.1680  0.1678 -0.1577
 1154TIP3    H124953   3.922   0.323   1.420 -1.2407 -0.5345  2.8749
 1154TIP3    H224954   3.843   0.419   1.334  2.4520 -0.5668 -0.8504
 1155TIP3   OH224955   0.137   1.082  14.855  0.3464  0.6974  0.6063
 1155TIP3    H124956   0.082   1.152  14.890  0.7470  0.9421  0.7607
 1155TIP3    H224957   0.084   1.041  14.787  0.5307  1.8982 -0.2914
 1156TIP3   OH224958   1.192   0.410   6.492  0.4738 -0.1792 -0.1631
 1156TIP3    H124959   1.181   0.317   6.474 -1.9888  0.0405 -0.1724
 1156TIP3    H224960   1.242   0.443   6.418  2.5515 -1.6771  0.4995
 1157TIP3   OH224961   3.226   2.811  13.321  0.0620 -0.0766 -0.7394
 1157TIP3    H124962   3.178   2.728  13.325 -0.1119  0.0581  0.3111
 1157TIP3    H224963   3.282   2.811  13.398  2.3163 -0.5171 -2.2771
 1158TIP3   OH224964   0.421   3.534   5.301 -0.0288 -0.4786  0.3774
 1158TIP3    H124965   0.502   3.565   5.342 -1.2836  1.4244  1.6023
 1158TIP3    H224966   0.442   3.528   5.208  1.6606 -0.5335  0.7288
 1159TIP3   OH224967   2.247   3.907   0.013 -0.3772 -0.1399  0.5012
 1159TIP3    H124968   2.170   3.887  -0.041 -0.7163 -0.5852  1.1434
 1159TIP3    H224969   2.271   3.996  -0.012 -0.9262 -0.1041  0.0851
 1160TIP3   OH224970   2.160   2.788  16.568 -0.3499  0.2056 -0.3033
 1160TIP3    H124971   2.183   2.857  16.506  0.7666  0.7590  0.6863
 1160TIP3    H224972   2.111   2.833  16.637 -0.9970 -0.2859 -0.4298
 1161TIP3   OH224973   6.318   6.543   2.780  0.5873 -0.3219 -0.4240
 1161TIP3    H124974   6.265   6.519   2.855 -0.5264  0.7790 -0.8219
 1161TIP3    H224975   6.406   6.556   2.815 -0.0855  1.0198  0.8733
 1162TIP3   OH224976   1.714   2.969   3.677 -0.8429  0.4388  0.0982
 1162TIP3    H124977   1.677   2.881   3.688  1.6934 -0.9308 -1.4261
 1162TIP3    H224978   1.688   2.995   3.589  0.8842 -0.1191 -0.6072
 1163TIP3   OH224979   2.988   3.894  15.914 -0.0581 -0.0691 -0.2189
 1163TIP3    H124980   2.971   3.800  15.908  1.8342 -0.6405  2.1396
 1163TIP3    H224981   2.962   3.917  16.003  1.4766  1.1781 -0.0672
 1164TIP3   OH224982   5.491   0.473  16.443 -0.0460  0.1346  0.0570
 1164TIP3    H124983   5.471   0.500  16.353 -0.9759  0.6577  0.4082
 1164TIP3    H224984   5.515   0.380  16.435 -1.5621 -0.2291 -0.5505
 1165TIP3   OH224985   1.682   6.710   4.729  0.1080  0.4713  0.2909
 1165TIP3    H124986   1.619   6.665   4.785  0.9753  1.2265  1.9216
 1165TIP3    H224987   1.650   6.693   4.640 -1.2296 -0.8689  0.9735
 1166TIP3   OH224988   2.217   5.646  11.032  0.3290  0.1693 -0.1927
 1166TIP3    H124989   2.222   5.716  10.967  0.9795 -0.8182 -1.2410
 1166TIP3    H224990   2.182   5.571  10.984 -0.6362 -0.1560  0.9786
 1167TIP3   OH224991   0.895   1.116   3.096  0.4033  0.1219  0.0985
 1167TIP3    H124992   0.879   1.056   3.023  0.0053 -3.0375  2.5838
 1167TIP3    H224993   0.990   1.114   3.107  0.2503 -2.4170  1.8387
 1168TIP3   OH224994   3.689   2.681   5.321 -0.3388 -0.4382  0.0325
 1168TIP3    H124995   3.687   2.642   5.408  0.3161 -0.4720  0.0356
 1168TIP3    H224996   3.621   2.748   5.323 -1.0474 -1.1383  0.2326
 1169TIP3   OH224997   2.374   0.278   3.240 -0.5699  0.5665  0.1654
 1169TIP3    H124998   2.419   0.280   3.325 -0.9372 -0.3423  0.3922
 1169TIP3    H224999   2.445   0.284   3.176 -0.3593  2.3604  0.5158
 1170TIP3   OH225000   4.046   4.600   1.965  0.3256 -0.2904  0.2288
 1170TIP3    H125001   4.029   4.682   1.920  0.0124 -0.5497 -0.1366
 1170TIP3    H225002   4.014   4.614   2.054 -0.7127 -0.3577 -0.1142
 1171TIP3   OH225003   6.782   3.182   0.838  0.1535  0.8792  0.0722
 1171TIP3    H125004   6.726   3.162   0.912  0.6445  0.0337  0.2263
 1171TIP3    H225005   6.868   3.200   0.877  1.2676 -2.6724 -0.4119
 1172TIP3   OH225006   0.402   0.943  11.759 -0.4240 -0.1215  0.0999
 1172TIP3    H125007   0.440   0.940  11.672 -0.1127 -0.0433  0.2328
 1172TIP3    H225008   0.345   1.021  11.758 -1.3716 -0.7993 -0.4176
 1173TIP3   OH225009   2.194   3.896   4.240 -0.4500 -0.0513 -0.3955
 1173TIP3    H125010   2.268   3.837   4.230 -0.9024 -0.8628  0.7089
 1173TIP3    H225011   2.121   3.839   4.265 -1.2685  0.8047 -0.7600
 1174TIP3   OH225012   1.598   1.200   5.816  0.1265  0.1491  0.1251
 1174TIP3    H125013   1.633   1.169   5.732  0.7407 -1.6144  0.9822
 1174TIP3    H225014   1.508   1.227   5.795  1.0753  2.2912 -1.5960
 1175TIP3   OH225015   2.923   1.511   3.533  0.1493  0.1817  0.2785
 1175TIP3    H125016   2.887   1.596   3.559 -2.6782 -0.9230  0.3229
 1175TIP3    H225017   2.976   1.530   3.456 -0.7720  1.9327  0.0309
 1176TIP3   OH225018   0.937   3.428  16.860 -0.4355  0.5297 -0.3642
 1176TIP3    H125019   1.014   3.484  16.848 -0.1082  0.5409  1.5648
 1176TIP3    H225020   0.938   3.405  16.953 -1.6582 -1.0999 -0.7146
 1177TIP3   OH225021   6.548   4.441  15.592 -0.2985  0.3680 -0.8826
 1177TIP3    H125022   6.639   4.433  15.562 -0.3226  1.0473 -1.1473
 1177TIP3    H225023   6.548   4.396  15.677  0.0322 -0.5565 -1.3621
 1178TIP3   OH225024   4.494   2.673  11.870 -0.0168  0.0407 -0.3187
 1178TIP3    H125025   4.434   2.726  11.923  2.0510  2.0684  0.1614
 1178TIP3    H225026   4.471   2.695  11.779 -0.3959  0.2965 -0.1655
 1179TIP3   OH225027   2.841   0.678  15.915 -0.3608 -0.3024 -0.5590
 1179TIP3    H125028   2.775   0.683  15.846 -0.1783  1.5483 -0.6610
 1179TIP3    H225029   2.920   0.649  15.870 -0.1593  1.2014 -1.2593
 1180TIP3   OH225030   2.816   2.200  16.144 -0.6089  0.3250  0.1200
 1180TIP3    H125031   2.793   2.254  16.069 -2.4970 -0.4245  0.1056
 1180TIP3    H225032   2.909   2.181  16.132 -0.6066  1.1223 -1.4211
 1181TIP3   OH225033   0.541   5.289   1.546 -0.1667 -0.1697  0.7668
 1181TIP3    H125034   0.610   5.337   1.593  0.7029 -0.1310 -0.4993
 1181TIP3    H225035   0.561   5.303   1.453 -2.1874  0.2673  0.3413
 1182TIP3   OH225036   1.166   2.200   3.228 -0.7936 -0.2082  0.6311
 1182TIP3    H125037   1.165   2.158   3.314 -0.6876  1.2880  1.3939
 1182TIP3    H225038   1.098   2.267   3.234  0.9094  1.6122  0.4680
 1183TIP3   OH225039   1.320   1.720  10.308  0.5611 -0.7484 -0.4474
 1183TIP3    H125040   1.335   1.735  10.215 -1.0625  0.9832 -0.4917
 1183TIP3    H225041   1.231   1.685  10.312 -2.2756  5.3099  0.6548
 1184TIP3   OH225042   0.154   4.241  16.733 -0.6524 -0.0325 -0.1332
 1184TIP3    H125043   0.207   4.320  16.728 -1.8851  0.9061  0.7704
 1184TIP3    H225044   0.217   4.169  16.728  0.5743  1.0064 -0.1818
 1185TIP3   OH225045   5.243   3.695   0.881  0.1174  0.4216 -0.4880
 1185TIP3    H125046   5.183   3.713   0.953  0.2806 -0.0856 -0.2186
 1185TIP3    H225047   5.312   3.641   0.920  2.0993  2.9723 -0.1783
 1186TIP3   OH225048   3.999   4.750   4.438 -0.4558 -0.0705 -0.2951
 1186TIP3    H125049   3.934   4.734   4.370 -1.7019 -0.4643  0.9468
 1186TIP3    H225050   3.953   4.803   4.503  0.2580 -0.8934  0.9240
 1187TIP3   OH225051   2.465   1.407   1.103 -0.2181 -0.1146  0.0931
 1187TIP3    H125052   2.466   1.322   1.145  1.7925  0.7631  1.9961
 1187TIP3    H225053   2.454   1.470   1.175 -1.7217  1.2742 -1.2529
 1188TIP3   OH225054   0.957   5.412  16.431  0.0289 -0.0026 -0.2835
 1188TIP3    H125055   0.970   5.457  16.514  1.9804 -1.0108  0.0133
 1188TIP3    H225056   1.046   5.399  16.397 -0.6180 -1.5010 -1.4974
 1189TIP3   OH225057   6.650   2.890   3.058 -0.3721  0.5105  0.0183
 1189TIP3    H125058   6.728   2.880   3.004 -0.3265  1.2779 -0.0641
 1189TIP3    H225059   6.680   2.871   3.147 -0.6717 -1.7784 -0.3224
 1190TIP3   OH225060   4.095   0.483  17.201  0.1958  0.2507 -0.8850
 1190TIP3    H125061   4.096   0.562  17.147  3.5868  1.5923  0.8205
 1190TIP3    H225062   4.159   0.425  17.160  2.5584  1.1482  1.2959
 1191TIP3   OH225063   5.863   3.291  12.179 -0.4923 -0.3384 -0.1090
 1191TIP3    H125064   5.895   3.250  12.099 -0.3842 -0.6659  0.0996
 1191TIP3    H225065   5.917   3.370  12.188  2.0892 -2.1146  1.5549
 1192TIP3   OH225066   0.464   4.339  16.482 -0.4043 -0.4617 -0.1155
 1192TIP3    H125067   0.459   4.434  16.481  1.7290 -0.3002 -0.7824
 1192TIP3    H225068   0.503   4.316  16.398 -0.4873 -1.8924  0.2118
 1193TIP3   OH225069   3.683   6.550   2.659 -0.2015  0.0074 -0.3820
 1193TIP3    H125070   3.680   6.627   2.716  0.4407 -0.7519  0.6950
 1193TIP3    H225071   3.767   6.509   2.677 -0.5482 -0.9767 -0.9250
 1194TIP3   OH225072   0.694   0.828  12.112  0.3208 -0.7169 -0.2070
 1194TIP3    H125073   0.736   0.896  12.165  0.8391 -2.3043  1.5197
 1194TIP3    H225074   0.758   0.807  12.044  0.3568  0.1516 -0.4504
 1195TIP3   OH225075   5.893   3.796  10.702  0.4758  0.6244 -0.2603
 1195TIP3    H125076   5.969   3.842  10.737  0.1276  0.6203  0.5166
 1195TIP3    H225077   5.874   3.840  10.619  1.8449  0.0696 -0.8974
 1196TIP3   OH225078   3.742   1.467  12.752  0.2944  0.4439 -0.5693
 1196TIP3    H125079   3.653   1.498  12.766 -0.1661 -1.7175  1.9905
 1196TIP3    H225080   3.796   1.546  12.757 -1.4202  1.8452 -2.5515
 1197TIP3   OH225081   1.518   6.395   0.514 -0.6012  0.4067 -0.1394
 1197TIP3    H125082   1.520   6.487   0.542 -0.9317  0.5798 -0.6691
 1197TIP3    H225083   1.434   6.386   0.470  0.0497  0.2348 -1.3805
 1198TIP3   OH225084   6.819   5.292  11.486  0.2144 -0.1403 -0.1403
 1198TIP3    H125085   6.913   5.311  11.492  0.3640 -0.9585  0.2459
 1198TIP3    H225086   6.777   5.377  11.501  0.8885  0.2123 -0.1939
 1199TIP3   OH225087   1.663   6.329  11.695  0.0586  0.2868  0.3289
 1199TIP3    H125088   1.737   6.349  11.637  0.4738  2.2155  1.4105
 1199TIP3    H225089   1.700   6.334  11.783 -1.1364  0.2080  0.8536
 1200TIP3   OH225090   1.731   5.476  16.647  0.2081 -0.2984 -0.0907
 1200TIP3    H125091   1.658   5.420  16.673  0.0940 -1.7706 -3.0871
 1200TIP3    H225092   1.806   5.442  16.695 -0.5694 -0.5026  1.0243
 1201TIP3   OH225093   4.623   3.489  11.210 -0.3675  0.1287  0.4160
 1201TIP3    H125094   4.572   3.438  11.273  0.6218 -2.0034 -0.4328
 1201TIP3    H225095   4.558   3.527  11.151 -1.0611 -2.1929 -0.4061
 1202TIP3   OH225096   5.007   6.653  13.697 -0.1435 -0.3398 -0.5514
 1202TIP3    H125097   5.065   6.640  13.622 -1.2753  0.6709 -1.6440
 1202TIP3    H225098   5.047   6.724  13.747 -0.3469  0.2530 -1.2189
 1203TIP3   OH225099   3.181   5.809   3.650 -0.6940 -0.2716 -0.3871
 1203TIP3    H125100   3.142   5.752   3.584  0.6626 -2.5286  0.6584
 1203TIP3    H225101   3.275   5.801   3.638 -0.4331  1.5355  0.0345
 1204TIP3   OH225102   6.609   4.040  17.023 -0.0948  0.3915  0.0944
 1204TIP3    H125103   6.692   4.085  17.008  0.3394 -0.7429 -1.0487
 1204TIP3    H225104   6.609   3.966  16.962 -1.5637 -0.1454  0.6761
 1205TIP3   OH225105   3.042   0.765  14.360  0.0981 -0.0230  0.4722
 1205TIP3    H125106   3.031   0.859  14.379  0.1293  0.2985 -0.9725
 1205TIP3    H225107   2.971   0.745  14.299  0.7876 -0.6398 -0.1508
 1206TIP3   OH225108   0.651   0.870  11.104 -0.1405 -0.0801  0.1474
 1206TIP3    H125109   0.557   0.861  11.093  0.0766 -1.1536 -1.0230
 1206TIP3    H225110   0.661   0.936  11.173 -1.7637 -2.0296  2.4305
 1207TIP3   OH225111   3.777   2.175  16.516  0.0145  0.2645  0.1384
 1207TIP3    H125112   3.692   2.178  16.472 -0.5910 -2.0575  0.9872
 1207TIP3    H225113   3.756   2.171  16.609  1.1194  1.1145  0.4413
 1208TIP3   OH225114   2.575   4.167   0.902 -0.4195  0.2073 -0.4586
 1208TIP3    H125115   2.654   4.181   0.954 -0.4531 -2.3848  0.4338
 1208TIP3    H225116   2.531   4.094   0.944 -1.1783 -1.1414 -3.3167
 1209TIP3   OH225117   0.414   2.449   2.678  0.3952 -1.0155  0.8077
 1209TIP3    H125118   0.443   2.361   2.704  0.3719 -1.2432  0.0710
 1209TIP3    H225119   0.478   2.507   2.719  1.1036 -1.4415  0.3278
 1210TIP3   OH225120   4.968   0.362  16.177  0.0199  0.2399  0.2453
 1210TIP3    H125121   4.882   0.359  16.219  0.7674 -1.3700  1.7730
 1210TIP3    H225122   5.016   0.430  16.224  0.3949 -0.6076  1.1194
 1211TIP3   OH225123   6.129   5.618   5.701 -0.4358 -0.0432  0.0684
 1211TIP3    H125124   6.059   5.555   5.686  0.4623 -0.7442 -1.3279
 1211TIP3    H225125   6.085   5.703   5.694 -1.4894 -0.4692  1.1183
 1212TIP3   OH225126   5.440   1.781  14.645  0.6177 -0.0917  0.5879
 1212TIP3    H125127   5.442   1.777  14.741 -1.2708  0.9037  0.7107
 1212TIP3    H225128   5.410   1.870  14.625  0.2482 -0.5269 -0.9088
 1213TIP3   OH225129   6.766   5.726  14.862 -0.0520 -0.0098  0.1500
 1213TIP3    H125130   6.675   5.753  14.879  0.5430  1.8918  0.5299
 1213TIP3    H225131   6.758   5.635  14.833 -1.7889 -1.0089  3.3238
 1214TIP3   OH225132   6.321   5.549   3.176 -0.0108 -0.3580  0.6188
 1214TIP3    H125133   6.325   5.601   3.256  2.6114  1.1136 -0.3499
 1214TIP3    H225134   6.398   5.576   3.126 -1.5329 -1.2424 -2.4210
 1215TIP3   OH225135   0.532   0.654  14.185  0.3086 -0.5575 -0.1799
 1215TIP3    H125136   0.586   0.576  14.168  0.9811  0.0604 -0.9906
 1215TIP3    H225137   0.550   0.676  14.276  0.1285 -1.3414  0.0463
 1216TIP3   OH225138   2.012   3.242  16.362  0.5791 -0.1544  0.4443
 1216TIP3    H125139   2.106   3.258  16.373  0.9194  0.2595 -2.3199
 1216TIP3    H225140   1.998   3.246  16.267 -2.2906  0.1001  0.7868
 1217TIP3   OH225141   0.091   5.799   4.441  0.3061  0.7310 -0.5869
 1217TIP3    H125142   0.146   5.854   4.498  1.7379 -1.4394  0.2806
 1217TIP3    H225143   0.132   5.805   4.355  2.4871 -1.3469  0.1750
 1218TIP3   OH225144   3.774   6.322   5.350 -0.7973 -0.0550 -0.0802
 1218TIP3    H125145   3.687   6.299   5.383  0.3362 -2.1791  1.7537
 1218TIP3    H225146   3.832   6.255   5.387  1.8487  2.0500 -0.1038
 1219TIP3   OH225147   0.768   0.325   1.638  0.2934  0.0683 -0.3665
 1219TIP3    H125148   0.679   0.293   1.622 -0.0042  0.9720 -0.5346
 1219TIP3    H225149   0.761   0.375   1.719  0.2019  1.8583 -1.4397
 1220TIP3   OH225150   2.733   1.578  15.759  0.0560 -0.2550 -0.0965
 1220TIP3    H125151   2.802   1.558  15.696 -0.8527  0.5085 -1.3748
 1220TIP3    H225152   2.702   1.492  15.788  1.4169 -0.6083  0.3881
 1221TIP3   OH225153   6.780   2.471  11.420  0.0915 -0.2234  0.5785
 1221TIP3    H125154   6.757   2.534  11.353  2.8416 -1.8307 -2.1716
 1221TIP3    H225155   6.715   2.401  11.411  1.0195 -0.9200 -1.2927
 1222TIP3   OH225156   1.640   2.761   2.387  0.6717  0.0328 -0.5278
 1222TIP3    H125157   1.702   2.759   2.314  1.6428  2.6186  0.1122
 1222TIP3    H225158   1.557   2.733   2.349  1.5579 -0.5481 -2.1382
 1223TIP3   OH225159   3.690   4.507   1.175  0.4123  0.0899  0.8444
 1223TIP3    H125160   3.760   4.492   1.111 -0.0632  3.2848 -0.6438
 1223TIP3    H225161   3.624   4.440   1.154  1.3918 -0.5560 -0.2940
 1224TIP3   OH225162   0.255   1.140   3.773  0.2725  0.5329  0.4061
 1224TIP3    H125163   0.327   1.116   3.716 -0.2500  1.2055 -0.5701
 1224TIP3    H225164   0.255   1.236   3.774  0.0418  0.5366  1.2404
 1225TIP3   OH225165   3.142   3.660  11.774 -0.5614  0.3198  0.1544
 1225TIP3    H125166   3.052   3.691  11.784  0.5019  3.6173  0.9821
 1225TIP3    H225167   3.161   3.672  11.681 -0.8095  0.1151  0.0749
 1226TIP3   OH225168   1.877   6.687   2.718  0.4862  0.1820 -0.0414
 1226TIP3    H125169   1.930   6.714   2.643 -1.4464  0.2074 -1.4861
 1226TIP3    H225170   1.794   6.659   2.679 -0.4829 -0.0746  2.0847
 1227TIP3   OH225171   3.527   4.762   5.181  0.2841 -0.2672  0.1907
 1227TIP3    H125172   3.446   4.778   5.230  0.0928 -0.2587 -0.1288
 1227TIP3    H225173   3.531   4.666   5.173  0.9510 -0.3473  1.2930
 1228TIP3   OH225174   2.484   5.415   5.476  0.1430  0.1032 -0.5310
 1228TIP3    H125175   2.472   5.453   5.389 -0.1062  1.9681  0.2755
 1228TIP3    H225176   2.397   5.419   5.516  0.5722  0.8227  0.3753
 1229TIP3   OH225177   6.583   4.121   1.726  0.9889 -0.1210 -0.9793
 1229TIP3    H125178   6.556   4.030   1.729  2.0346 -0.4470 -0.9294
 1229TIP3    H225179   6.616   4.134   1.637 -0.5057  0.6277 -1.4478
 1230TIP3   OH225180   3.948   5.838  17.275 -0.3860  0.5202 -0.3380
 1230TIP3    H125181   4.010   5.879  17.215  1.0206  0.3399  0.9531
 1230TIP3    H225182   3.886   5.793  17.217  0.1531  1.4309 -1.6763
 1231TIP3   OH225183   2.754   1.536  12.948 -0.6791  0.5473  0.0225
 1231TIP3    H125184   2.700   1.504  12.876  1.5358 -2.0007 -0.6623
 1231TIP3    H225185   2.757   1.464  13.011  3.1383 -0.2572 -0.7841
 1232TIP3   OH225186   2.761   3.884   3.880  0.0155 -0.2033 -0.2782
 1232TIP3    H125187   2.672   3.888   3.914 -0.3738 -1.3744 -1.1193
 1232TIP3    H225188   2.795   3.799   3.909  0.9472  0.3133  0.2087
 1233TIP3   OH225189   2.099   0.993  12.716  1.2317  0.0293 -0.1802
 1233TIP3    H125190   2.151   1.000  12.796  3.7094  0.1236 -1.6912
 1233TIP3    H225191   2.163   0.998  12.645 -0.7642 -0.9563 -2.1818
 1234TIP3   OH225192   0.492   6.205  15.386  0.1640  0.3189 -0.2472
 1234TIP3    H125193   0.484   6.286  15.437  0.2854 -0.4649  1.0735
 1234TIP3    H225194   0.403   6.169  15.385  0.1356  0.3976 -0.7220
 1235TIP3   OH225195   2.576   2.469  15.568 -0.1530  0.4060  0.3754
 1235TIP3    H125196   2.591   2.473  15.474 -1.4915  0.7016  0.1569
 1235TIP3    H225197   2.569   2.560  15.596 -0.0377  0.3132  0.7172
 1236TIP3   OH225198   1.487   6.611  15.034  0.1566  0.2029 -0.4561
 1236TIP3    H125199   1.447   6.634  15.118 -0.6960 -0.1766 -0.7469
 1236TIP3    H225200   1.465   6.684  14.976  2.5446  1.5195  0.1635
 1237TIP3   OH225201   4.442   0.930  11.313  0.6155 -0.0177  0.1849
 1237TIP3    H125202   4.506   0.867  11.281 -0.1987 -0.0796 -1.3785
 1237TIP3    H225203   4.435   0.995  11.244  0.7513  1.3102  1.3759
 1238TIP3   OH225204   4.810   3.351   5.168 -0.5452 -0.0893 -0.2326
 1238TIP3    H125205   4.899   3.320   5.152 -0.3339  0.1178  0.4948
 1238TIP3    H225206   4.754   3.276   5.149 -0.3311  0.1394 -1.9110
 1239TIP3   OH225207   2.010   5.987   1.308  0.4129 -0.4908 -0.0918
 1239TIP3    H125208   1.946   6.048   1.271 -0.8918 -1.2333  0.8714
 1239TIP3    H225209   2.066   6.042   1.362  0.5647  0.1635 -0.8895
 1240TIP3   OH225210   2.481   3.352  15.240 -0.0899 -0.0905  0.4337
 1240TIP3    H125211   2.388   3.372  15.242 -0.1082 -0.0187 -0.5581
 1240TIP3    H225212   2.500   3.333  15.148  0.6470 -1.1817  0.7807
 1241TIP3   OH225213   1.597   1.392  12.650 -0.4720 -0.1071 -0.2205
 1241TIP3    H125214   1.653   1.452  12.601 -0.4594  0.5666  0.5900
 1241TIP3    H225215   1.642   1.380  12.734 -0.4368 -1.3243 -0.3928
 1242TIP3   OH225216   0.520   2.051   2.431  0.7916 -0.5545  0.5157
 1242TIP3    H125217   0.463   1.984   2.393  2.0556 -0.0636 -2.5181
 1242TIP3    H225218   0.480   2.134   2.405 -1.3178  0.1874  5.0400
 1243TIP3   OH225219   0.450   4.710  16.176  0.0883  0.1906 -0.5175
 1243TIP3    H125220   0.499   4.632  16.148 -0.7112 -0.1731 -0.9682
 1243TIP3    H225221   0.371   4.675  16.217  0.6788  0.7496  1.1499
 1244TIP3   OH225222   2.082   6.514  14.635  0.2052 -0.1924 -0.1904
 1244TIP3    H125223   2.151   6.550  14.579 -0.5342  1.5423 -0.0482
 1244TIP3    H225224   2.002   6.523  14.583  0.1072 -2.7436 -0.5921
 1245TIP3   OH225225   4.227   4.246   2.855 -0.5552 -0.1970  0.1641
 1245TIP3    H125226   4.193   4.265   2.768 -0.2715 -0.2217  0.0460
 1245TIP3    H225227   4.205   4.323   2.907 -2.4957 -1.0023  0.6013
 1246TIP3   OH225228   4.082   2.238  15.747  0.0563  0.3021 -0.5814
 1246TIP3    H125229   3.998   2.233  15.793  0.4402  0.2123  0.1279
 1246TIP3    H225230   4.076   2.173  15.678 -1.2061  1.6354 -1.8028
 1247TIP3   OH225231   5.005   5.263  14.555  0.4777 -0.5467  0.0642
 1247TIP3    H125232   4.942   5.330  14.529  0.2401 -1.1388 -0.9730
 1247TIP3    H225233   4.979   5.186  14.504 -0.1455 -1.8843  2.2679
 1248TIP3   OH225234   2.210   6.317   1.200  0.4125 -1.0849 -0.0297
 1248TIP3    H125235   2.160   6.349   1.276 -0.2522 -1.9991 -0.0697
 1248TIP3    H225236   2.168   6.358   1.125  0.2462 -1.1921  0.0030
 1249TIP3   OH225237   0.952   2.883  14.558 -0.9650 -0.1036 -0.2833
 1249TIP3    H125238   1.001   2.857  14.480 -0.0241  0.0526  0.2358
 1249TIP3    H225239   0.942   2.802  14.608  2.4820  0.4613  1.6177
 1250TIP3   OH225240   1.715   5.193  15.157 -0.5199 -0.2880  0.2699
 1250TIP3    H125241   1.645   5.231  15.210  0.1847  1.1534  0.2062
 1250TIP3    H225242   1.767   5.142  15.219 -0.4003  0.4049  0.7547
 1251TIP3   OH225243   4.822   4.388  13.989 -0.2194  0.1550  0.2581
 1251TIP3    H125244   4.847   4.342  13.908  1.0786  1.3049 -0.0279
 1251TIP3    H225245   4.733   4.418  13.973 -0.3590 -0.5369 -0.3229
 1252TIP3   OH225246   3.842   1.937   1.121 -0.3312  0.1352 -0.2595
 1252TIP3    H125247   3.907   1.907   1.184 -0.3342 -1.0511 -0.7942
 1252TIP3    H225248   3.770   1.970   1.174 -0.3941 -0.9822  0.3817
 1253TIP3   OH225249   4.271   2.763  12.045 -0.4026 -0.3745  0.0106
 1253TIP3    H125250   4.248   2.730  12.132 -2.1063  0.3139 -0.1287
 1253TIP3    H225251   4.186   2.779  12.003  0.3341  2.3070 -0.6243
 1254TIP3   OH225252   2.430   6.297   4.100  0.1155 -0.1900  0.4700
 1254TIP3    H125253   2.443   6.238   4.174 -0.6892  0.0093  0.7904
 1254TIP3    H225254   2.480   6.376   4.123  2.2964 -1.1919 -0.5717
 1255TIP3   OH225255   2.946   3.995  16.710 -0.6607  0.7065  0.0291
 1255TIP3    H125256   2.991   4.028  16.788  0.3429  0.0326 -0.2420
 1255TIP3    H225257   2.859   3.970  16.740 -0.9179  2.1509  0.5495
 1256TIP3   OH225258   5.333   6.727   2.632 -0.0574 -0.0522  0.2238
 1256TIP3    H125259   5.353   6.733   2.726  0.2684 -0.7140  0.2034
 1256TIP3    H225260   5.238   6.727   2.628 -0.1261 -1.9193  0.7237
 1257TIP3   OH225261   1.296   2.550   4.285  0.8266 -0.0389 -0.5589
 1257TIP3    H125262   1.206   2.560   4.255  0.4883 -0.0821  0.3929
 1257TIP3    H225263   1.288   2.497   4.365  1.5617  1.0596  0.2693
 1258TIP3   OH225264   1.554   5.832   4.467  0.6642  0.3144 -0.2688
 1258TIP3    H125265   1.550   5.872   4.381 -0.9073 -0.4016 -0.5553
 1258TIP3    H225266   1.465   5.839   4.502  1.0363 -0.2935  0.8809
 1259TIP3   OH225267   6.801   3.509  14.333 -0.2802 -0.4213  0.0825
 1259TIP3    H125268   6.710   3.482  14.316 -0.6806  0.3322  0.9538
 1259TIP3    H225269   6.834   3.444  14.395 -0.4492 -0.3176  0.2844
 1260TIP3   OH225270   1.728   5.301  17.252 -0.1010 -0.1227  0.2143
 1260TIP3    H125271   1.821   5.316  17.272 -0.0598 -1.5011  1.2280
 1260TIP3    H225272   1.699   5.381  17.209  1.5154  0.4057  0.0429
 1261TIP3   OH225273   4.870   1.723   3.341 -0.0239  0.3627 -0.4741
 1261TIP3    H125274   4.958   1.752   3.320  0.7711 -1.9391 -0.5315
 1261TIP3    H225275   4.880   1.670   3.420 -1.2127 -0.7087 -1.0079
 1262TIP3   OH225276   1.070   1.019   5.537  0.2560  0.6418  0.1094
 1262TIP3    H125277   1.165   1.032   5.530  0.8433 -1.9445  1.6435
 1262TIP3    H225278   1.036   1.101   5.571  2.1081  1.3030  0.4671
 1263TIP3   OH225279   5.483   1.220  16.540 -0.5366 -0.0461  0.3108
 1263TIP3    H125280   5.397   1.178  16.542 -0.5284 -0.0645  2.6455
 1263TIP3    H225281   5.533   1.169  16.477 -1.9415 -0.6005 -0.4057
 1264TIP3   OH225282   6.319   6.081  10.445 -0.2241  0.1574  0.0560
 1264TIP3    H125283   6.242   6.053  10.395  0.3839 -1.1157 -0.1971
 1264TIP3    H225284   6.312   6.035  10.529  0.0035  0.4241  0.2253
 1265TIP3   OH225285   6.719   4.317   4.289 -0.0130 -0.1987  0.3545
 1265TIP3    H125286   6.810   4.314   4.317  0.2669  1.0674 -0.3350
 1265TIP3    H225287   6.674   4.371   4.355 -0.0834 -0.1401  0.2601
 1266TIP3   OH225288   2.850   2.776  10.927 -0.2644 -0.2366  0.1645
 1266TIP3    H125289   2.889   2.745  10.845 -0.4402  1.3222 -0.5346
 1266TIP3    H225290   2.829   2.696  10.975 -0.4919 -1.1890 -1.4607
 1267TIP3   OH225291   1.932   6.804  15.512 -0.2754  0.0876 -0.2758
 1267TIP3    H125292   1.955   6.895  15.496 -0.2648 -0.1811 -1.8890
 1267TIP3    H225293   1.849   6.809  15.561  0.6546  0.9579  1.2899
 1268TIP3   OH225294   4.155   5.117  14.055  0.0450  0.0051 -0.0793
 1268TIP3    H125295   4.216   5.140  14.125  1.3148 -2.0291 -0.4334
 1268TIP3    H225296   4.205   5.058  13.999 -2.4390 -2.2614 -0.0647
 1269TIP3   OH225297   1.085   1.829  15.427 -0.3286  0.1099  0.1111
 1269TIP3    H125298   1.139   1.874  15.493 -1.3260  2.7173 -0.7463
 1269TIP3    H225299   1.148   1.775  15.378  0.7985 -0.1056  1.7048
 1270TIP3   OH225300   1.956   0.286  12.414 -0.2490  0.5239  0.3447
 1270TIP3    H125301   1.890   0.308  12.480 -0.8338 -1.2896  0.4159
 1270TIP3    H225302   2.039   0.288  12.462 -0.6101 -0.2220  1.0388
 1271TIP3   OH225303   3.113   3.577  15.332  0.7064  0.5603  0.1994
 1271TIP3    H125304   3.179   3.549  15.268 -0.6383 -0.5916 -0.7484
 1271TIP3    H225305   3.056   3.501  15.342  0.4700  0.9641  2.2786
 1272TIP3   OH225306   1.129   1.848   4.008 -0.1276 -0.3402  0.3315
 1272TIP3    H125307   1.170   1.796   3.939 -0.4952  0.1586 -0.2830
 1272TIP3    H225308   1.099   1.927   3.963  0.3202  0.3476  1.2268
 1273TIP3   OH225309   3.372   6.306  15.922  0.6149 -0.5112 -0.3995
 1273TIP3    H125310   3.322   6.352  15.989  0.3894  0.9112 -1.4736
 1273TIP3    H225311   3.446   6.364  15.903  0.5416 -0.7599 -1.5302
 1274TIP3   OH225312   4.251   0.352   6.403 -0.0519  0.4142 -0.6336
 1274TIP3    H125313   4.307   0.419   6.443 -2.9529  2.2522  0.7035
 1274TIP3    H225314   4.267   0.273   6.453  0.3017  1.2935  0.6942
 1275TIP3   OH225315   1.764   2.622  12.645  0.1606 -0.0469  0.0715
 1275TIP3    H125316   1.818   2.555  12.687 -0.0412  0.5906  1.4116
 1275TIP3    H225317   1.799   2.705  12.678  0.4469  0.5388 -1.5988
 1276TIP3   OH225318   2.092   5.424   1.591  0.4065  0.0901  0.0430
 1276TIP3    H125319   2.078   5.439   1.684 -0.4419 -1.9343  0.2852
 1276TIP3    H225320   2.012   5.454   1.549  0.4159  0.1346  0.0563
 1277TIP3   OH225321   1.268   1.739  16.649  0.5737 -0.4681  0.4459
 1277TIP3    H125322   1.291   1.740  16.742  0.8884 -1.1285  0.3863
 1277TIP3    H225323   1.326   1.673  16.611 -0.9158 -1.6570  0.1464
 1278TIP3   OH225324   3.179   5.633  14.554 -0.4583 -0.4715 -0.1763
 1278TIP3    H125325   3.257   5.579  14.550 -0.0665  0.1344 -1.1975
 1278TIP3    H225326   3.106   5.571  14.558  0.0012 -1.0591 -0.7835
 1279TIP3   OH225327   6.066   4.750   2.181  0.0868  0.3078 -0.1472
 1279TIP3    H125328   6.095   4.840   2.194 -1.8182  0.7005  2.1246
 1279TIP3    H225329   6.011   4.754   2.103  0.3825  1.0250 -0.3271
 1280TIP3   OH225330   6.298   0.720   6.501  0.1453  0.1736 -0.5634
 1280TIP3    H125331   6.301   0.810   6.467 -0.4519  0.5169  0.2520
 1280TIP3    H225332   6.205   0.697   6.497  0.3194 -0.4824 -0.9283
 1281TIP3   OH225333   2.234   5.542  14.419 -0.1701 -0.0448 -0.2596
 1281TIP3    H125334   2.173   5.483  14.374 -0.9625  0.8961 -0.4571
 1281TIP3    H225335   2.291   5.575  14.349 -0.6483  0.5096 -0.4000
 1282TIP3   OH225336   1.886   2.636  16.663  0.0651  0.0076 -0.4259
 1282TIP3    H125337   1.906   2.728  16.682 -0.7707  0.2125 -0.4948
 1282TIP3    H225338   1.826   2.639  16.588 -0.6042 -0.5384  0.0712
 1283TIP3   OH225339   1.943   2.189  15.016 -0.1579  0.4062 -0.3554
 1283TIP3    H125340   2.006   2.184  15.088  0.5114  0.0085 -0.9552
 1283TIP3    H225341   1.930   2.283  15.001  2.2696  0.5960 -1.8727
 1284TIP3   OH225342   5.643   2.149   2.217 -0.3198 -0.2595  0.3237
 1284TIP3    H125343   5.702   2.121   2.147 -1.2533 -0.1557 -0.5283
 1284TIP3    H225344   5.699   2.197   2.278  0.6220 -0.8762 -0.0345
 1285TIP3   OH225345   3.177   5.187   4.094 -0.4077  0.4886  0.2405
 1285TIP3    H125346   3.212   5.117   4.149  0.1496  1.1287  0.7303
 1285TIP3    H225347   3.165   5.147   4.008 -1.0909 -0.4767  0.7683
 1286TIP3   OH225348   0.436   4.955   1.002 -0.0571 -0.2067 -0.5482
 1286TIP3    H125349   0.427   4.950   1.097 -0.3344  0.0041 -0.5643
 1286TIP3    H225350   0.508   5.017   0.989 -0.6636  0.5203 -0.4961
 1287TIP3   OH225351   6.079   3.294   4.880 -0.0214  0.9518 -0.3873
 1287TIP3    H125352   6.105   3.332   4.964 -0.0866  0.6007 -0.2048
 1287TIP3    H225353   6.135   3.216   4.871 -0.3404  0.7306 -0.4484
 1288TIP3   OH225354   2.530   1.147   6.469 -0.4371 -0.4084  0.2874
 1288TIP3    H125355   2.487   1.089   6.407 -0.8047  0.4007 -0.2309
 1288TIP3    H225356   2.520   1.235   6.432 -1.5839  0.2281  1.9824
 1289TIP3   OH225357   2.999   2.681   5.927  0.2643  0.6163 -0.1236
 1289TIP3    H125358   3.026   2.759   5.975 -1.7045  0.8832  0.6654
 1289TIP3    H225359   3.066   2.616   5.946  1.2608  1.7314  0.2592
 1290TIP3   OH225360   2.901   4.064   3.314 -0.3782 -0.1979 -0.1799
 1290TIP3    H125361   2.828   4.007   3.292 -1.0711  0.3883  0.5590
 1290TIP3    H225362   2.956   4.012   3.372  0.6425 -1.1928 -1.9383
 1291TIP3   OH225363   3.257   2.837   2.054 -0.0584  0.5335 -0.1533
 1291TIP3    H125364   3.167   2.863   2.073  0.2177  1.0269  0.4807
 1291TIP3    H225365   3.278   2.881   1.971 -0.3601  0.4923 -0.2545
 1292TIP3   OH225366   6.019   6.706  12.180  0.3039 -0.5203 -0.1326
 1292TIP3    H125367   5.926   6.697  12.160 -0.1191 -1.4089  1.9221
 1292TIP3    H225368   6.023   6.696  12.276  2.6889 -2.3163 -0.3345
 1293TIP3   OH225369   5.068   6.131   5.805  0.0601  0.4599 -0.1116
 1293TIP3    H125370   5.040   6.167   5.721 -0.8442 -1.1228 -0.5472
 1293TIP3    H225371   5.119   6.053   5.782 -0.6604 -0.3070  0.8040
 1294TIP3   OH225372   0.131   5.355   2.788  0.4032 -0.2732  0.0450
 1294TIP3    H125373   0.100   5.270   2.821  2.6823 -0.3096  2.4589
 1294TIP3    H225374   0.061   5.386   2.731 -1.0522 -3.1993  0.0477
 1295TIP3   OH225375   5.262   6.754  13.002  0.0183  0.4733  0.8404
 1295TIP3    H125376   5.285   6.663  13.022 -0.3993  0.6204  2.1120
 1295TIP3    H225377   5.297   6.804  13.076  0.1080  1.3246  0.2288
 1296TIP3   OH225378   3.821   0.749  17.149 -0.0097 -0.1062 -0.1746
 1296TIP3    H125379   3.761   0.678  17.172  0.6680 -0.1823  1.5647
 1296TIP3    H225380   3.790   0.824  17.200 -0.4670  0.7597 -1.6757
 1297TIP3   OH225381   4.794   3.223  16.897  0.1174 -0.2818  0.2256
 1297TIP3    H125382   4.708   3.225  16.939 -0.3948 -3.0394 -0.4946
 1297TIP3    H225383   4.789   3.148  16.838  2.7678 -0.0059 -0.4344
 1298TIP3   OH225384   5.356   0.211   5.504 -0.2031  0.2662 -0.2564
 1298TIP3    H125385   5.353   0.184   5.596  0.7924 -0.4967 -0.4268
 1298TIP3    H225386   5.292   0.154   5.461  0.6464 -0.6642 -0.3243
 1299TIP3   OH225387   0.032   4.950  14.582  0.1288 -0.0103  0.3973
 1299TIP3    H125388  -0.039   4.984  14.638 -0.7087  0.8240 -1.0926
 1299TIP3    H225389   0.112   4.981  14.625 -0.4669  0.4249  1.2494
 1300TIP3   OH225390   0.808   4.325   1.932  0.0916  0.0784 -0.7025
 1300TIP3    H125391   0.883   4.379   1.957  0.4793  0.0253 -1.7030
 1300TIP3    H225392   0.771   4.369   1.855 -0.5915 -0.1764 -0.5280
 1301TIP3   OH225393   6.139   5.478  14.531 -0.1406  0.3216  0.7342
 1301TIP3    H125394   6.111   5.398  14.575 -0.6123  0.9260  1.5795
 1301TIP3    H225395   6.101   5.548  14.584  1.4501  1.1365  0.8527
 1302TIP3   OH225396   5.304   1.951  15.841 -0.7912 -0.4423 -0.0553
 1302TIP3    H125397   5.257   1.916  15.766 -0.2405 -0.5445 -0.3638
 1302TIP3    H225398   5.381   1.895  15.849 -1.5118 -1.2633  1.4197
 1303TIP3   OH225399   4.987   0.608   5.766 -0.0628 -0.0126  0.0499
 1303TIP3    H125400   4.919   0.669   5.738  1.4907  1.6513 -0.3244
 1303TIP3    H225401   4.959   0.579   5.852 -0.8405  1.2986  0.2785
 1304TIP3   OH225402   6.010   4.978  14.404  0.1676 -0.2642  0.1776
 1304TIP3    H125403   6.099   4.944  14.410  0.5503  0.4228 -1.1254
 1304TIP3    H225404   5.956   4.915  14.451  1.1256 -1.5397 -0.3739
 1305TIP3   OH225405   1.022   1.648   2.006  0.4458  0.0955 -0.1149
 1305TIP3    H125406   1.055   1.569   2.050 -0.5902 -0.0510  0.4286
 1305TIP3    H225407   0.991   1.704   2.077 -0.0920  0.4004 -0.5799
 1306TIP3   OH225408   6.432   4.527  11.646 -0.3131  0.2143  0.0740
 1306TIP3    H125409   6.369   4.570  11.703 -0.9040  1.9493 -1.7745
 1306TIP3    H225410   6.506   4.506  11.703 -2.1759 -1.2256  2.1543
 1307TIP3   OH225411   3.694   5.270  15.901 -0.5663  0.6683 -0.2290
 1307TIP3    H125412   3.656   5.319  15.974  0.0242 -3.2918  3.1451
 1307TIP3    H225413   3.622   5.262  15.838 -2.7313  0.4768  2.0835
 1308TIP3   OH225414   2.176   6.153   5.977  0.3597 -0.1401  0.0191
 1308TIP3    H125415   2.119   6.227   5.954  0.4782 -0.2556 -0.6769
 1308TIP3    H225416   2.116   6.080   5.990  0.1871  0.2208  1.3588
 1309TIP3   OH225417   3.211   0.191   6.798  0.6729  0.6956 -0.6173
 1309TIP3    H125418   3.190   0.142   6.719  0.3788  0.6625 -0.5200
 1309TIP3    H225419   3.128   0.231   6.824  1.1034  2.0434 -1.2409
 1310TIP3   OH225420   1.399   5.538  11.341 -0.1755 -0.3817  0.2168
 1310TIP3    H125421   1.493   5.556  11.335 -0.6113  1.8651 -0.8384
 1310TIP3    H225422   1.394   5.448  11.372  2.3610 -1.2649 -1.5821
 1311TIP3   OH225423   2.546   0.018   4.870 -0.9133 -0.1349 -0.3974
 1311TIP3    H125424   2.502   0.099   4.843 -1.6731 -0.7299 -0.9969
 1311TIP3    H225425   2.630   0.047   4.905 -1.1717  0.9129 -0.6015
 1312TIP3   OH225426   2.734   1.304   4.869 -0.0867  0.2275 -0.5422
 1312TIP3    H125427   2.641   1.296   4.845  0.7361 -0.5562 -4.0182
 1312TIP3    H225428   2.781   1.290   4.787  3.1775 -0.2554  1.2451
 1313TIP3   OH225429   5.933   0.646   3.082 -1.0666  0.2125  0.5520
 1313TIP3    H125430   5.985   0.571   3.054 -1.3091  0.8785 -1.9970
 1313TIP3    H225431   5.998   0.714   3.101 -0.9143  0.1934  0.1182
 1314TIP3   OH225432   3.500   0.528   4.513  0.5424 -0.5269 -0.0758
 1314TIP3    H125433   3.554   0.606   4.499  0.1651 -0.1431  0.5455
 1314TIP3    H225434   3.410   0.559   4.503  0.3878 -0.8801  0.1708
 1315TIP3   OH225435   6.024   4.074  15.306  0.0190  0.1609 -0.3276
 1315TIP3    H125436   5.997   3.982  15.305 -0.5253  0.3171 -1.1656
 1315TIP3    H225437   5.942   4.123  15.317  0.1485  0.5828 -1.1433
 1316TIP3   OH225438   1.573   6.125   5.418 -0.7631 -0.1618 -0.5436
 1316TIP3    H125439   1.643   6.185   5.393  0.2998 -1.2500 -0.3126
 1316TIP3    H225440   1.565   6.136   5.513 -2.2780  1.3528 -0.8129
 1317TIP3   OH225441   1.581   1.828  15.647 -0.2214  0.0277 -0.1441
 1317TIP3    H125442   1.585   1.916  15.685  1.4707  0.4186 -1.1431
 1317TIP3    H225443   1.602   1.770  15.720 -0.1118  0.5474  0.2493
 1318TIP3   OH225444   0.542   5.975   2.220 -1.0095  0.5813  0.0977
 1318TIP3    H125445   0.605   6.005   2.154 -0.8745  1.0809  0.4439
 1318TIP3    H225446   0.476   6.045   2.224 -0.7365  0.8079  0.8608
 1319TIP3   OH225447   1.042   6.380   2.263 -0.2660  0.5476 -0.9703
 1319TIP3    H125448   1.029   6.403   2.355  1.2051  0.7285 -0.7857
 1319TIP3    H225449   1.096   6.300   2.265 -1.1734 -0.1075 -1.6683
 1320TIP3   OH225450   1.080   1.277  16.118  0.0305 -0.1183  0.1316
 1320TIP3    H125451   1.048   1.208  16.060 -0.5270  0.9099 -0.8421
 1320TIP3    H225452   1.060   1.246  16.206  0.4460 -1.5036 -0.2299
 1321TIP3   OH225453   2.121   5.925   0.775 -0.1868  0.8660 -0.6031
 1321TIP3    H125454   2.097   5.943   0.865 -0.8293 -0.8632 -0.3893
 1321TIP3    H225455   2.156   6.008   0.742  0.0391  1.5304  1.2099
 1322TIP3   OH225456   6.590   4.768   5.039  0.3788  0.3294 -0.0314
 1322TIP3    H125457   6.584   4.677   5.069  1.1127  0.2386 -0.1426
 1322TIP3    H225458   6.681   4.779   5.014  0.2660  1.0644 -0.1433
 1323TIP3   OH225459   3.028   1.135   5.396 -1.1199 -0.3325 -0.2796
 1323TIP3    H125460   3.066   1.065   5.343  0.4196  0.7462 -0.6620
 1323TIP3    H225461   2.971   1.089   5.459  1.2290 -2.1296  0.6970
 1324TIP3   OH225462   2.005   3.009  12.276  0.8704  0.0497 -0.3747
 1324TIP3    H125463   2.006   2.920  12.239  1.8992  0.6676 -1.9365
 1324TIP3    H225464   1.992   3.066  12.200 -0.3558  1.2372  0.6692
 1325TIP3   OH225465   4.063   1.380  11.041 -0.3248 -0.1691  0.1117
 1325TIP3    H125466   4.041   1.447  11.106 -1.3518  0.5107 -0.8943
 1325TIP3    H225467   4.129   1.326  11.084  0.6873  1.6032  0.8949
 1326TIP3   OH225468   4.507   0.433  15.405 -0.1524  0.2837  0.6701
 1326TIP3    H125469   4.497   0.528  15.400 -2.4007  0.1181  1.0632
 1326TIP3    H225470   4.487   0.411  15.496  3.2738 -0.3451  1.3947
 1327TIP3   OH225471   3.349   3.412  13.556  0.6777 -0.3751  0.3840
 1327TIP3    H125472   3.348   3.317  13.570 -1.4385 -0.3387  0.7499
 1327TIP3    H225473   3.428   3.428  13.503  1.0373 -2.3266  0.2714
 1328TIP3   OH225474   1.167   4.058  15.526  0.2337  0.5160 -0.0736
 1328TIP3    H125475   1.096   4.016  15.574  0.9779 -0.2900  0.3566
 1328TIP3    H225476   1.246   4.034  15.575  0.7120  2.2945  0.0826
 1329TIP3   OH225477   2.814   3.820  12.065 -0.4561 -0.3068 -0.1298
 1329TIP3    H125478   2.735   3.779  12.102  0.7531 -1.3113  1.4917
 1329TIP3    H225479   2.834   3.892  12.125  0.1092 -0.3513 -0.2590
 1330TIP3   OH225480   5.183   0.049   0.191 -0.3322  0.2265 -0.2189
 1330TIP3    H125481   5.221   0.030   0.277  0.3005 -0.1909 -0.5842
 1330TIP3    H225482   5.222  -0.017   0.133 -2.6743 -1.1725 -0.3410
 1331TIP3   OH225483   4.725   6.801  15.313  0.2208 -0.2012  0.2110
 1331TIP3    H125484   4.646   6.776  15.265  1.1805  0.7690 -2.0214
 1331TIP3    H225485   4.715   6.895  15.328  0.6632 -0.1934  0.4625
 1332TIP3   OH225486   3.464   4.526   1.528  0.4003 -0.0400 -0.4676
 1332TIP3    H125487   3.516   4.447   1.517  0.0920 -0.4733  1.0070
 1332TIP3    H225488   3.422   4.516   1.613 -1.9840  0.3531 -1.4952
 1333TIP3   OH225489   6.045   1.057  16.178 -0.1610  0.1594  0.6633
 1333TIP3    H125490   6.041   1.142  16.134  2.1488  0.2129  0.4534
 1333TIP3    H225491   6.037   0.993  16.107  3.7385  0.2418 -0.0651
 1334TIP3   OH225492   3.112   4.784  12.166 -0.6072 -0.0627 -0.1470
 1334TIP3    H125493   3.144   4.763  12.254 -0.1119  0.7125 -0.1357
 1334TIP3    H225494   3.135   4.877  12.154 -1.4849  0.0878 -0.7342
 1335TIP3   OH225495   0.202   6.611  14.587  0.0500 -0.5244 -0.0379
 1335TIP3    H125496   0.281   6.611  14.532 -0.7941 -0.5703 -1.2900
 1335TIP3    H225497   0.157   6.530  14.563  0.9010 -1.9019  2.6394
 1336TIP3   OH225498   5.340   1.419   3.970 -0.1150 -0.1945 -0.2616
 1336TIP3    H125499   5.323   1.330   3.999 -0.4301 -0.0670 -0.0517
 1336TIP3    H225500   5.294   1.474   4.033  0.1615  0.1199 -0.3308
 1337TIP3   OH225501   5.293   1.166  13.851 -0.0112  0.0719 -0.4003
 1337TIP3    H125502   5.249   1.085  13.874 -0.4742  0.2115 -0.7912
 1337TIP3    H225503   5.254   1.232  13.908  1.4031 -0.2157  0.9949
 1338TIP3   OH225504   5.382   5.191  11.229 -0.2018 -0.1839 -0.2113
 1338TIP3    H125505   5.468   5.217  11.195  0.0596  0.5055  0.9046
 1338TIP3    H225506   5.324   5.194  11.153  0.4793  0.7024 -0.7173
 1339TIP3   OH225507   0.807   1.968  16.441 -0.5955  0.2334 -0.0991
 1339TIP3    H125508   0.775   2.007  16.359  1.2870 -1.5504 -1.8209
 1339TIP3    H225509   0.900   1.993  16.443  0.4468 -3.1111 -0.7807
 1340TIP3   OH225510   0.718   6.464  11.911 -0.1378  0.6784 -0.1488
 1340TIP3    H125511   0.641   6.485  11.858  0.1673  0.1767 -0.8169
 1340TIP3    H225512   0.696   6.493  11.999 -1.7603 -0.8870  0.0296
 1341TIP3   OH225513   0.876   6.663  16.084  0.1286  0.0359 -0.0041
 1341TIP3    H125514   0.825   6.744  16.087 -0.9076 -0.5908 -0.1397
 1341TIP3    H225515   0.967   6.692  16.079 -0.2402  1.1904 -0.3544
 1342TIP3   OH225516   3.498   5.438  14.226 -0.3728  0.0401 -0.2319
 1342TIP3    H125517   3.584   5.396  14.222 -0.5717 -0.3560 -0.4815
 1342TIP3    H225518   3.509   5.509  14.289  0.4363  0.6886 -1.0651
 1343TIP3   OH225519   5.962   3.187   2.415 -0.3796 -0.1202 -0.0383
 1343TIP3    H125520   6.025   3.259   2.420 -2.8329  2.1109  2.3500
 1343TIP3    H225521   6.000   3.118   2.469  1.5127 -0.2318 -1.4308
 1344TIP3   OH225522   5.828   4.944  12.015 -0.3434 -0.1517  0.4918
 1344TIP3    H125523   5.777   5.025  12.027  0.7790  0.3982  1.7016
 1344TIP3    H225524   5.869   4.929  12.099  0.5018 -1.2888 -0.1053
 1345TIP3   OH225525   3.059   5.555   6.149 -0.7158 -0.0309  0.3483
 1345TIP3    H125526   3.060   5.628   6.088 -0.5021 -1.0282 -0.8783
 1345TIP3    H225527   3.150   5.546   6.178 -0.4924 -0.6000 -0.4955
 1346TIP3   OH225528   1.305   0.849  11.958 -0.1247  0.1118 -0.0970
 1346TIP3    H125529   1.330   0.940  11.940 -0.1809  0.0534 -0.4675
 1346TIP3    H225530   1.210   0.852  11.969 -0.3509 -0.1617 -1.7506
 1347TIP3   OH225531   4.469   0.276  13.204  0.2732 -0.2581 -0.2576
 1347TIP3    H125532   4.455   0.370  13.219 -0.1746 -0.7085  2.9411
 1347TIP3    H225533   4.381   0.240  13.195  0.2241 -0.6983  1.5493
 1348TIP3   OH225534   5.600   6.399  16.733 -0.6410  0.2394 -0.1388
 1348TIP3    H125535   5.651   6.447  16.668 -0.0910  0.4095  0.4117
 1348TIP3    H225536   5.663   6.339  16.773 -1.3323 -1.0145 -0.8764
 1349TIP3   OH225537   6.005   0.662  10.795 -0.1684  0.1057 -0.0563
 1349TIP3    H125538   5.992   0.574  10.831 -4.4568  1.1759  1.6589
 1349TIP3    H225539   6.013   0.719  10.872 -1.7537  1.6253 -0.9327
 1350TIP3   OH225540   4.145   4.963  15.102  0.1143 -0.0570 -0.6035
 1350TIP3    H125541   4.068   4.953  15.158  1.4023 -0.9885  1.0931
 1350TIP3    H225542   4.169   5.055  15.111 -0.4357  0.1003 -0.6712
 1351TIP3   OH225543   6.140   5.710   2.276 -0.0638 -0.1900 -0.0779
 1351TIP3    H125544   6.227   5.737   2.306 -0.8768  0.9514  1.4067
 1351TIP3    H225545   6.132   5.619   2.304 -0.4094  0.5444  2.4621
 1352TIP3   OH225546   1.010   4.904   4.869  0.2145 -0.3785 -0.1527
 1352TIP3    H125547   0.963   4.836   4.822 -0.3786  0.3688 -0.6604
 1352TIP3    H225548   1.099   4.870   4.878 -0.2959 -1.6283  0.4507
 1353TIP3   OH225549   0.091   1.281  15.889 -0.6827 -0.5481  0.0649
 1353TIP3    H125550   0.149   1.304  15.962 -1.9520 -0.9306  1.2275
 1353TIP3    H225551   0.105   1.187  15.876  1.1988 -0.1066 -1.7363
 1354TIP3   OH225552   1.087   0.011  11.391 -0.0605  0.9331 -0.0010
 1354TIP3    H125553   1.086  -0.085  11.393 -2.2231  0.8340 -1.7295
 1354TIP3    H225554   1.077   0.037  11.482  3.5715 -0.3239  0.9456
 1355TIP3   OH225555   2.658   6.801   2.909 -0.0577 -0.6280 -0.2399
 1355TIP3    H125556   2.587   6.775   2.850 -1.0009 -0.6355  0.8627
 1355TIP3    H225557   2.680   6.890   2.883 -0.1301 -0.7953 -0.8985
 1356TIP3   OH225558   5.922   5.049  17.134  0.0332 -0.3973  0.3288
 1356TIP3    H125559   5.902   5.029  17.226  1.5899 -3.6186  0.1103
 1356TIP3    H225560   6.017   5.056  17.131  0.0396 -0.7485 -1.1060
 1357TIP3   OH225561   5.219   3.244   3.691 -0.0610  0.3059  0.4108
 1357TIP3    H125562   5.126   3.264   3.690 -0.1922 -0.2592 -0.8124
 1357TIP3    H225563   5.225   3.156   3.729 -0.1493 -0.1147 -0.5177
 1358TIP3   OH225564   5.973   4.430   0.853  0.5287  0.1213  0.6232
 1358TIP3    H125565   6.016   4.347   0.830  1.8570  0.7437  0.7785
 1358TIP3    H225566   5.990   4.441   0.946  1.2675  1.0814  0.3807
 1359TIP3   OH225567   3.705   2.795  13.811  0.7717  0.2764 -0.7341
 1359TIP3    H125568   3.788   2.783  13.764  1.0040  1.2024 -0.5652
 1359TIP3    H225569   3.724   2.862  13.876  0.1831 -0.3119  0.0524
 1360TIP3   OH225570   5.398   3.526  12.932 -0.4135  0.7210 -0.1118
 1360TIP3    H125571   5.423   3.517  12.841 -2.4367  0.3211 -0.6889
 1360TIP3    H225572   5.473   3.494  12.982 -0.2224 -1.5477 -1.7063
 1361TIP3   OH225573   2.455   6.437   1.231  0.1238 -0.2230 -0.9044
 1361TIP3    H125574   2.411   6.477   1.306  2.0897 -0.9214  0.7049
 1361TIP3    H225575   2.406   6.356   1.215 -0.9594  0.4544 -1.1024
 1362TIP3   OH225576   4.753   4.854  13.282 -0.8580 -0.3018  0.1186
 1362TIP3    H125577   4.714   4.941  13.284  0.4482  0.3405 -1.0050
 1362TIP3    H225578   4.780   4.837  13.372 -2.0035  0.0119  0.5383
 1363TIP3   OH225579   1.515   5.268   6.021  0.2818 -0.4070 -0.4044
 1363TIP3    H125580   1.430   5.227   6.038 -0.4256  1.0379 -0.2734
 1363TIP3    H225581   1.519   5.340   6.084  0.8721  0.5304 -1.4786
 1364TIP3   OH225582   3.180   6.104   1.918  0.0766 -0.1027  0.0366
 1364TIP3    H125583   3.109   6.106   1.853  0.5128  1.8249 -0.4368
 1364TIP3    H225584   3.213   6.014   1.913 -1.0632 -0.5050 -1.1212
 1365TIP3   OH225585   0.546   3.096   2.963 -0.3846 -0.5809  0.2769
 1365TIP3    H125586   0.555   3.145   3.045 -1.5491 -0.3783  0.3032
 1365TIP3    H225587   0.616   3.031   2.966  1.9418  1.7269 -0.2755
 1366TIP3   OH225588   0.219   6.350   2.772 -0.3028  0.0542 -0.4409
 1366TIP3    H125589   0.216   6.266   2.727  1.0307  0.1520 -0.7362
 1366TIP3    H225590   0.311   6.374   2.774 -0.5149  0.9167  0.7537
 1367TIP3   OH225591   0.539   2.331   6.707 -0.0433  0.4791  0.0293
 1367TIP3    H125592   0.475   2.393   6.742  0.1115  1.0281 -0.6406
 1367TIP3    H225593   0.491   2.282   6.640  0.2984  1.0761 -0.6649
 1368TIP3   OH225594   1.657   5.487  12.759  0.6064  0.1363  0.5402
 1368TIP3    H125595   1.566   5.484  12.789  0.0247 -1.9927 -1.1894
 1368TIP3    H225596   1.695   5.406  12.793  1.1912 -0.1005 -0.6531
 1369TIP3   OH225597   4.331   3.887  16.353  0.3364 -0.2390  0.1259
 1369TIP3    H125598   4.256   3.851  16.400 -1.1042 -1.1294 -2.6550
 1369TIP3    H225599   4.344   3.828  16.279  2.1649  1.3400 -0.9036
 1370TIP3   OH225600   5.374   1.919   0.135  0.4553 -0.5192 -0.0678
 1370TIP3    H125601   5.318   1.859   0.186  0.8805 -3.5127 -2.8163
 1370TIP3    H225602   5.312   1.968   0.081  0.1604  1.1053  1.6406
 1371TIP3   OH225603   6.427   5.854   3.210  0.3221  0.0406  0.4079
 1371TIP3    H125604   6.466   5.824   3.127 -0.0808  1.3263 -0.2721
 1371TIP3    H225605   6.489   5.824   3.277  0.0532 -2.0768 -0.2169
 1372TIP3   OH225606   0.710   1.966   4.713 -0.0831  0.1056  0.1619
 1372TIP3    H125607   0.675   2.022   4.783 -2.2392 -3.0731  1.8770
 1372TIP3    H225608   0.666   1.997   4.634 -1.4552  0.6581  1.0995
 1373TIP3   OH225609   2.634   6.181  12.509 -0.1826 -0.3400 -0.8833
 1373TIP3    H125610   2.562   6.119  12.516 -1.4745  1.0807 -0.9629
 1373TIP3    H225611   2.643   6.217  12.597  1.7863 -1.9040 -0.3931
 1374TIP3   OH225612   6.709   5.540  12.771  0.2566  0.2705 -0.3005
 1374TIP3    H125613   6.711   5.631  12.742  0.9779  0.1833 -0.5580
 1374TIP3    H225614   6.767   5.537  12.846  0.7757 -0.1007 -0.7022
 1375TIP3   OH225615   6.569   1.484   2.881 -0.3316 -0.4066 -0.2168
 1375TIP3    H125616   6.648   1.519   2.922 -1.4017  3.4467 -1.0514
 1375TIP3    H225617   6.509   1.469   2.953 -0.2732  0.8238  0.1069
 1376TIP3   OH225618   0.155   4.176   0.899 -0.2761 -0.1057 -0.0113
 1376TIP3    H125619   0.064   4.149   0.914  0.1299 -1.8646 -0.4056
 1376TIP3    H225620   0.170   4.248   0.960 -1.9700  0.2958 -0.0358
 1377TIP3   OH225621   4.667   4.307   3.290  0.1576 -1.0302 -0.1862
 1377TIP3    H125622   4.595   4.306   3.226  0.7833  0.1878 -0.9462
 1377TIP3    H225623   4.683   4.400   3.307  1.1063 -1.3001  0.4831
 1378TIP3   OH225624   1.270   5.297   4.014  0.5217  0.7569 -0.0958
 1378TIP3    H125625   1.229   5.362   4.071  1.1104  0.8359  0.2451
 1378TIP3    H225626   1.360   5.326   4.005  0.0670  1.7439 -2.5123
 1379TIP3   OH225627   1.097   1.980  14.337 -0.4373  0.4570  0.5492
 1379TIP3    H125628   1.119   2.030  14.258 -2.2175 -0.5698 -0.6803
 1379TIP3    H225629   1.182   1.956  14.374  0.4487  2.3542 -0.1091
 1380TIP3   OH225630   3.921   5.111  12.135 -0.3658  0.3009  0.5281
 1380TIP3    H125631   3.961   5.164  12.067 -2.6302 -0.8078 -1.8233
 1380TIP3    H225632   3.976   5.126  12.212  1.9209  2.1474 -1.3057
 1381TIP3   OH225633   0.094   0.117  12.701  0.4191 -0.5443 -0.5092
 1381TIP3    H125634   0.045   0.129  12.620  0.2069 -1.0453 -0.4615
 1381TIP3    H225635   0.027   0.115  12.770  0.6908  1.1317 -0.1719
 1382TIP3   OH225636   0.783   2.291  15.780  0.1665 -0.3774  0.9380
 1382TIP3    H125637   0.698   2.248  15.788  0.5642 -1.0338  1.6326
 1382TIP3    H225638   0.831   2.237  15.718  0.2520 -0.2602  0.9009
 1383TIP3   OH225639   0.966   3.589  12.818 -0.1986  0.5768  0.2613
 1383TIP3    H125640   1.017   3.637  12.883 -0.8615  2.9808 -0.8852
 1383TIP3    H225641   1.026   3.574  12.746  0.4001 -1.6798  1.1214
 1384TIP3   OH225642   5.219   0.396   5.007  0.6101  0.2293  0.4325
 1384TIP3    H125643   5.156   0.468   4.999 -0.1517 -0.4159  0.4711
 1384TIP3    H225644   5.191   0.333   4.941  0.9944 -0.2336  0.7057
 1385TIP3   OH225645   5.796   4.808   0.375  0.1349  0.6964  0.9470
 1385TIP3    H125646   5.866   4.829   0.437 -0.4371  1.4802  1.3518
 1385TIP3    H225647   5.806   4.715   0.358  1.0772  0.7283  1.2452
 1386TIP3   OH225648   6.200   3.555   3.967  0.6938 -0.2676 -0.2801
 1386TIP3    H125649   6.247   3.544   3.885  0.7366  1.4029 -0.5334
 1386TIP3    H225650   6.122   3.501   3.958  2.0264 -2.2821 -0.2642
 1387TIP3   OH225651   3.774   3.472  13.248  0.0751  0.3022  0.2539
 1387TIP3    H125652   3.747   3.554  13.208 -1.4307 -0.0702  0.4662
 1387TIP3    H225653   3.700   3.445  13.302  1.3958 -0.0721  1.9874
 1388TIP3   OH225654   6.538   2.479   5.757  0.2397 -0.2096 -0.1469
 1388TIP3    H125655   6.455   2.523   5.738  0.1422 -0.1638  0.3821
 1388TIP3    H225656   6.598   2.510   5.688 -0.1097 -0.0467 -0.3785
 1389TIP3   OH225657   4.703   0.721   0.948 -0.2393 -0.1430  0.7446
 1389TIP3    H125658   4.637   0.676   0.896 -1.0220 -2.6465  3.5899
 1389TIP3    H225659   4.776   0.734   0.888 -1.4960 -1.6817 -1.2608
 1390TIP3   OH225660   3.516   4.710   1.330  0.0380 -0.3655  0.3687
 1390TIP3    H125661   3.583   4.654   1.291  1.7191  0.5629  1.7637
 1390TIP3    H225662   3.483   4.660   1.405 -0.8701 -0.8315 -0.3306
 1391TIP3   OH225663   5.719   5.846   4.965  0.2937  0.0740  0.0507
 1391TIP3    H125664   5.697   5.934   4.997  0.3103  0.3074 -0.5739
 1391TIP3    H225665   5.741   5.858   4.873  0.4660 -0.5619  0.0014
 1392TIP3   OH225666   0.236   3.423   3.726  0.5009 -0.5289 -0.6903
 1392TIP3    H125667   0.328   3.441   3.744  0.8729  0.2028 -2.9570
 1392TIP3    H225668   0.192   3.506   3.740  0.5653 -0.3134 -1.7398
 1393TIP3   OH225669   6.420   6.253   0.304  0.0762  0.5915  0.0370
 1393TIP3    H125670   6.484   6.314   0.268 -1.1861  1.7972 -0.2325
 1393TIP3    H225671   6.410   6.280   0.395 -0.2716  0.5807  0.0011
 1394TIP3   OH225672   5.196   2.552  15.492 -0.6145 -0.1509  0.4471
 1394TIP3    H125673   5.264   2.493  15.524  1.0052  1.1592 -0.4426
 1394TIP3    H225674   5.190   2.621  15.558 -2.1046 -0.9282  1.1980
 1395TIP3   OH225675   1.530   1.382   3.613  0.5962 -0.1126  0.1312
 1395TIP3    H125676   1.545   1.386   3.708 -2.5086 -2.3699  0.8834
 1395TIP3    H225677   1.565   1.296   3.588 -0.0906 -0.2328 -0.4285
 1396TIP3   OH225678   4.819   6.703  11.091  0.6091 -0.5084 -0.4184
 1396TIP3    H125679   4.806   6.691  10.997  1.8208 -0.8193 -0.5707
 1396TIP3    H225680   4.833   6.798  11.100 -1.8069 -0.1225 -0.2045
 1397TIP3   OH225681   3.715   5.075   4.633 -0.1522  0.1832  0.5136
 1397TIP3    H125682   3.632   5.041   4.666 -0.9311  0.0808 -1.4516
 1397TIP3    H225683   3.714   5.168   4.656 -4.2048  2.1161 -5.3120
 1398TIP3   OH225684   5.040   1.804   5.241  0.2603  0.4796 -0.5283
 1398TIP3    H125685   4.973   1.782   5.175  0.3357  0.0860 -0.4744
 1398TIP3    H225686   5.082   1.883   5.206  0.4278  0.1693 -1.0540
 1399TIP3   OH225687   2.842   2.907  16.784 -0.0071 -0.1881  0.2478
 1399TIP3    H125688   2.777   2.957  16.736  1.2715  0.1690 -1.2080
 1399TIP3    H225689   2.897   2.973  16.826 -0.5350 -0.4806  1.4283
 1400TIP3   OH225690   0.215   0.949  17.144  0.1301  0.1533  0.6375
 1400TIP3    H125691   0.278   0.918  17.209  1.0168  0.4360 -0.0651
 1400TIP3    H225692   0.230   1.043  17.139  1.7298 -0.1164 -1.5977
 1401TIP3   OH225693   6.661   5.882  16.044 -0.4329  0.0637  0.1997
 1401TIP3    H125694   6.634   5.791  16.058  0.4836 -0.0863  1.0704
 1401TIP3    H225695   6.756   5.882  16.058 -0.3545  1.0795 -0.2101
 1402TIP3   OH225696   1.260   0.940   4.209  0.4766 -0.3798 -0.1457
 1402TIP3    H125697   1.200   0.890   4.155 -0.8635 -0.4359  1.3329
 1402TIP3    H225698   1.254   1.030   4.176  0.0250 -0.4958 -0.3802
 1403TIP3   OH225699   5.712   4.319  11.735  0.3859 -0.1113 -0.1616
 1403TIP3    H125700   5.717   4.318  11.831 -1.3719 -0.2762 -0.0387
 1403TIP3    H225701   5.712   4.411  11.712  0.5947 -0.0676  0.0034
 1404TIP3   OH225702   3.610   5.339   2.825  0.0187 -0.0657  0.0694
 1404TIP3    H125703   3.544   5.359   2.891  0.9513  1.7348  0.5431
 1404TIP3    H225704   3.619   5.421   2.776  0.8067 -0.7503 -0.9503
 1405TIP3   OH225705   5.481   5.652   4.918  0.0804  0.0796 -0.0930
 1405TIP3    H125706   5.518   5.732   4.880 -0.3492 -0.1754 -1.0805
 1405TIP3    H225707   5.489   5.664   5.013  1.9514  0.3869 -0.2428
 1406TIP3   OH225708   5.412   6.167   2.923  0.2898  0.0338  0.0658
 1406TIP3    H125709   5.452   6.184   3.008  0.5181  1.4889 -0.3198
 1406TIP3    H225710   5.348   6.097   2.941 -0.1620  0.7903  1.5726
 1407TIP3   OH225711   3.395   5.294  11.928 -0.3828 -0.0708 -0.0404
 1407TIP3    H125712   3.488   5.313  11.911 -0.1355  0.6380  1.7769
 1407TIP3    H225713   3.356   5.283  11.842  1.9595 -3.3486 -0.8571
 1408TIP3   OH225714   1.364   2.420   2.060  0.2956 -0.4430  0.6252
 1408TIP3    H125715   1.460   2.420   2.056  0.2555 -0.1042 -2.3825
 1408TIP3    H225716   1.341   2.328   2.045  0.1515 -0.3696  0.3979
 1409TIP3   OH225717   5.630   4.912   3.278 -0.6091 -0.2692 -0.0915
 1409TIP3    H125718   5.639   4.850   3.351  0.3506 -1.2923 -1.0471
 1409TIP3    H225719   5.601   4.858   3.204  0.9849  0.2458 -1.1438
 1410TIP3   OH225720   0.994   6.378  15.097  0.1789 -0.6131 -0.0806
 1410TIP3    H125721   0.966   6.371  15.188 -0.4845 -0.4806 -0.2687
 1410TIP3    H225722   1.090   6.375  15.100  0.2320  1.2483  0.7727
 1411TIP3   OH225723   2.412   1.289   0.685 -0.3049 -0.5033  0.6030
 1411TIP3    H125724   2.498   1.265   0.721  1.1082  0.8384 -1.5988
 1411TIP3    H225725   2.386   1.366   0.735  0.3861 -0.1913  0.4966
 1412TIP3   OH225726   3.745   0.114  15.342  0.6277 -0.0513  0.7975
 1412TIP3    H125727   3.818   0.136  15.400  0.0558  0.8919  1.1821
 1412TIP3    H225728   3.736   0.019  15.351  1.9185 -0.2140  0.5945
 1413TIP3   OH225729   2.948   5.960   3.753 -0.7413 -0.2526  0.2423
 1413TIP3    H125730   2.987   6.047   3.760 -2.6491  0.5741  1.2490
 1413TIP3    H225731   3.021   5.903   3.730  0.7523  1.4494  0.5483
 1414TIP3   OH225732   6.093   5.986   0.968  0.4201  0.6121 -0.4320
 1414TIP3    H125733   6.071   6.075   0.940 -0.1312  0.2646 -1.1541
 1414TIP3    H225734   6.156   5.956   0.902 -1.4765 -0.4974 -1.8544
 1415TIP3   OH225735   0.338   4.825  15.102  0.2727  0.0150  0.3588
 1415TIP3    H125736   0.263   4.869  15.062 -0.4149 -2.3469 -1.1118
 1415TIP3    H225737   0.398   4.897  15.126 -0.7811  1.7317 -1.8234
 1416TIP3   OH225738   2.925   3.235   0.792 -0.1963  0.0036 -0.5758
 1416TIP3    H125739   2.929   3.237   0.888 -1.1898 -0.2200 -0.5143
 1416TIP3    H225740   3.015   3.218   0.764  0.2585  0.8940  0.2830
 1417TIP3   OH225741   5.631   0.489   3.591 -0.3149  0.1011 -0.2469
 1417TIP3    H125742   5.617   0.574   3.634  0.4336  0.2843 -0.3462
 1417TIP3    H225743   5.549   0.471   3.546 -0.9706  0.1149  0.9004
 1418TIP3   OH225744   5.618   6.386   5.132  0.5921  0.3184 -0.0883
 1418TIP3    H125745   5.524   6.397   5.116  0.2512 -2.0832 -0.0217
 1418TIP3    H225746   5.627   6.395   5.227  0.3149 -0.2212 -0.0119
 1419TIP3   OH225747   5.383   0.610   0.363  1.0109 -0.0842 -0.0266
 1419TIP3    H125748   5.449   0.632   0.297 -0.7576 -2.0327 -2.6823
 1419TIP3    H225749   5.396   0.517   0.379  0.3601  0.0211  1.1647
 1420TIP3   OH225750   1.388   2.174  13.206 -0.4550  0.2502 -0.2398
 1420TIP3    H125751   1.447   2.237  13.246 -1.5680  0.9825  0.3151
 1420TIP3    H225752   1.411   2.090  13.246 -0.6094  0.7381  0.9161
 1421TIP3   OH225753   4.356   5.225   5.244 -0.1406  0.4766  0.0279
 1421TIP3    H125754   4.439   5.198   5.203 -0.1457 -0.5664  0.6563
 1421TIP3    H225755   4.378   5.238   5.336 -0.6721  0.1916  0.2000
 1422TIP3   OH225756   2.932   6.340  15.144  0.3432  0.1671  0.4271
 1422TIP3    H125757   2.925   6.280  15.071  1.1086 -0.1395  0.5911
 1422TIP3    H225758   2.845   6.340  15.185  0.8112 -2.3646  1.6002
 1423TIP3   OH225759   0.125   2.102   1.250 -0.2147  0.9471 -0.2109
 1423TIP3    H125760   0.084   2.150   1.178  1.3135  1.2626 -0.9325
 1423TIP3    H225761   0.197   2.054   1.209 -0.9973 -1.0933  0.6857
 1424TIP3   OH225762   4.585   4.005   1.376  0.4088  0.1276 -0.1902
 1424TIP3    H125763   4.540   3.973   1.298  1.5511 -2.6271  0.1463
 1424TIP3    H225764   4.658   4.056   1.342  1.2631 -1.5524 -1.0315
 1425TIP3   OH225765   6.186   1.920   1.981 -0.0526  0.5872  0.3503
 1425TIP3    H125766   6.104   1.876   1.959 -0.4151  1.2761  0.2961
 1425TIP3    H225767   6.194   1.990   1.916  0.9359  0.1009 -0.0802
 1426TIP3   OH225768   1.088   3.991  14.192  0.3590  0.0452  0.3025
 1426TIP3    H125769   1.034   3.986  14.113 -0.7765 -1.3325  1.1113
 1426TIP3    H225770   1.085   4.083  14.218 -0.6563  0.2057 -0.3202
 1427TIP3   OH225771   0.218   1.199   2.846 -0.0676 -0.6555 -0.2262
 1427TIP3    H125772   0.182   1.286   2.832 -1.3129 -1.3111 -1.3182
 1427TIP3    H225773   0.310   1.214   2.869  0.4779  0.8495 -2.9487
 1428TIP3   OH225774   2.870   6.038  11.847 -0.5556  0.0915  0.0704
 1428TIP3    H125775   2.840   5.947  11.857 -0.6849  0.1630  0.3694
 1428TIP3    H225776   2.965   6.032  11.841 -0.1901  0.1627  3.6644
 1429TIP3   OH225777   2.726   2.909  12.435 -0.0744 -0.4385 -0.4037
 1429TIP3    H125778   2.677   2.867  12.365  0.1602 -1.6095  0.1203
 1429TIP3    H225779   2.660   2.927  12.502  0.1423 -1.8106  0.2074
 1430TIP3   OH225780   3.065   1.689  15.145 -0.0568 -0.2034  0.2975
 1430TIP3    H125781   3.018   1.772  15.153 -0.0172 -0.1218 -0.2523
 1430TIP3    H225782   3.017   1.640  15.078  0.9496  0.1116 -0.6764
 1431TIP3   OH225783   3.115   0.093   5.816  0.3054  0.0660 -0.2698
 1431TIP3    H125784   3.116   0.009   5.769 -0.7301  1.0127 -2.1075
 1431TIP3    H225785   3.120   0.068   5.908 -1.5525 -2.1453 -0.6558
 1432TIP3   OH225786   2.316   2.644  14.819  0.0484 -0.1825 -0.2379
 1432TIP3    H125787   2.329   2.706  14.747  1.0633  0.4237  0.4368
 1432TIP3    H225788   2.388   2.582  14.810  0.0507 -0.2338  0.1334
 1433TIP3   OH225789   6.045   5.483   3.187  0.0171  0.1840  0.0620
 1433TIP3    H125790   5.993   5.480   3.107 -1.4625 -0.2041  1.0054
 1433TIP3    H225791   6.128   5.522   3.160  0.2030 -1.4553 -2.0062
 1434TIP3   OH225792   3.910   0.656  15.427 -0.0224 -0.5784  0.4720
 1434TIP3    H125793   3.967   0.733  15.428 -0.2593 -0.3859 -0.2360
 1434TIP3    H225794   3.947   0.599  15.360  1.3326 -2.0225  2.3617
 1435TIP3   OH225795   4.232   4.894  12.980  0.1139  0.2369  0.0989
 1435TIP3    H125796   4.273   4.851  12.905  1.4091  2.1607 -0.3681
 1435TIP3    H225797   4.140   4.871  12.973  0.6880 -2.3645 -0.1372
 1436TIP3   OH225798   5.026   1.425   4.284  0.1143  0.0299 -0.6491
 1436TIP3    H125799   5.012   1.430   4.379 -1.5026  3.5632 -0.8891
 1436TIP3    H225800   4.941   1.450   4.246  0.4521 -2.1449 -3.1102
 1437TIP3   OH225801   6.744   5.287  16.219  0.3083  0.8735 -0.0314
 1437TIP3    H125802   6.780   5.220  16.276  1.1679 -0.0696 -1.6456
 1437TIP3    H225803   6.651   5.265  16.212 -0.2782  2.1056  2.4469
 1438TIP3   OH225804   2.843   5.308  11.022  0.3776 -0.3158  0.8074
 1438TIP3    H125805   2.878   5.395  11.003  0.8981 -0.7861 -0.5318
 1438TIP3    H225806   2.900   5.248  10.973 -0.4190 -1.3515  1.1039
 1439TIP3   OH225807   4.875   0.261   0.785  0.2041  0.3685  0.0222
 1439TIP3    H125808   4.891   0.239   0.693  0.1758  1.2853 -0.2107
 1439TIP3    H225809   4.783   0.240   0.799  0.7017 -1.7391  0.4353
 1440TIP3   OH225810   1.191   0.094   3.150 -0.0519 -0.4983  0.2385
 1440TIP3    H125811   1.158   0.005   3.161 -1.4927 -0.3438 -2.1761
 1440TIP3    H225812   1.127   0.148   3.196  0.7257 -0.6686  1.5526
 1441TIP3   OH225813   1.422   0.292   3.011  0.0790 -0.5407  0.3552
 1441TIP3    H125814   1.355   0.253   3.066 -1.1410 -0.4490 -0.9973
 1441TIP3    H225815   1.394   0.383   2.998  0.1128 -0.6664 -0.7148
 1442TIP3   OH225816   1.330   4.984   4.442  0.3862 -0.3279  0.5840
 1442TIP3    H125817   1.294   4.956   4.526 -0.4149  0.7508  0.6228
 1442TIP3    H225818   1.358   5.074   4.457 -1.9405  0.7107 -0.8953
 1443TIP3   OH225819   3.675   6.360  13.347 -0.3430 -0.4186  0.1878
 1443TIP3    H125820   3.749   6.409  13.381 -0.6458 -0.3469  0.7606
 1443TIP3    H225821   3.598   6.408  13.377 -0.6208 -0.1022 -0.9929
 1444TIP3   OH225822   0.549   4.044   4.537 -0.6928 -0.0360 -0.2648
 1444TIP3    H125823   0.564   3.996   4.618 -1.2547  0.9492  0.4422
 1444TIP3    H225824   0.634   4.083   4.516 -0.7622  0.4847  0.3816
 1445TIP3   OH225825   3.514   4.426   4.474 -0.1163 -0.1372 -0.1529
 1445TIP3    H125826   3.561   4.507   4.494  1.3594 -1.2610  1.1336
 1445TIP3    H225827   3.518   4.375   4.555 -0.6202 -1.6955 -1.0656
 1446TIP3   OH225828   5.765   5.630   0.349 -0.2871 -0.0280 -0.7229
 1446TIP3    H125829   5.687   5.621   0.295 -1.3518 -0.2427  0.7684
 1446TIP3    H225830   5.820   5.555   0.325 -1.9231 -1.6570  0.3046
 1447TIP3   OH225831   3.218   5.514   3.989  0.1629  0.1151 -0.3671
 1447TIP3    H125832   3.206   5.454   3.915 -0.2225  0.4606 -0.5901
 1447TIP3    H225833   3.304   5.554   3.973 -0.8711  1.8455 -1.8547
 1448TIP3   OH225834   2.886   3.757   2.270 -0.0663  0.4745  0.4332
 1448TIP3    H125835   2.962   3.736   2.325 -0.3593  2.6361  1.7907
 1448TIP3    H225836   2.813   3.713   2.313  0.3228 -1.5126 -0.8100
 1449TIP3   OH225837   2.442   1.798   0.111 -0.2858 -0.6064 -0.5890
 1449TIP3    H125838   2.471   1.707   0.103  0.4213 -0.5441  0.9217
 1449TIP3    H225839   2.357   1.791   0.155 -0.8101 -0.5724 -1.5542
 1450TIP3   OH225840   2.815   0.614   4.446 -0.5478 -0.3820  0.3326
 1450TIP3    H125841   2.857   0.567   4.518  2.5310  2.5346  0.7491
 1450TIP3    H225842   2.836   0.563   4.368  3.7300  0.5558  0.5885
 1451TIP3   OH225843   1.298   5.748   0.509 -0.3154 -0.7111  0.1418
 1451TIP3    H125844   1.340   5.690   0.572  0.7894  0.7373  0.7986
 1451TIP3    H225845   1.355   5.746   0.432  0.0960 -0.0291  0.4132
 1452TIP3   OH225846   4.943   5.430  13.889 -0.2970 -0.5477 -0.2278
 1452TIP3    H125847   4.942   5.339  13.921 -2.4263 -0.9410 -1.2391
 1452TIP3    H225848   4.868   5.471  13.932  0.5539  0.7163  0.0955
 1453TIP3   OH225849   3.615   1.795  11.808  0.8664 -0.6125  1.0061
 1453TIP3    H125850   3.641   1.846  11.731  1.5710 -1.6517  0.5368
 1453TIP3    H225851   3.674   1.824  11.878  2.0549 -1.5897  0.4387
 1454TIP3   OH225852   6.500   1.813  14.829 -0.0268  0.1619  0.3097
 1454TIP3    H125853   6.434   1.869  14.789 -0.6459 -0.1307  0.9034
 1454TIP3    H225854   6.496   1.833  14.923 -1.1678 -1.7540  0.7335
 1455TIP3   OH225855   5.229   0.676   2.148  0.6699  0.1671  0.1936
 1455TIP3    H125856   5.269   0.624   2.219 -0.1873 -0.0942  0.4968
 1455TIP3    H225857   5.136   0.654   2.152  0.6142  0.1153 -1.0518
 1456TIP3   OH225858   1.754   1.873  13.079 -0.5813  0.5350  0.7651
 1456TIP3    H125859   1.809   1.931  13.133 -0.7550  0.6957  0.7709
 1456TIP3    H225860   1.803   1.864  12.997 -1.1035  1.6604  0.2988
 1457TIP3   OH225861   1.620   5.648  15.882  0.4072 -0.3134  0.3020
 1457TIP3    H125862   1.597   5.566  15.840  2.2769 -0.6877 -0.0392
 1457TIP3    H225863   1.675   5.694  15.819 -0.2554  1.0399  0.6526
 1458TIP3   OH225864   6.624   3.001   6.085 -0.4265  0.7045  0.4361
 1458TIP3    H125865   6.556   2.999   6.151 -0.0998 -2.0635  0.7973
 1458TIP3    H225866   6.601   2.931   6.024  1.3718  0.5771 -0.1682
 1459TIP3   OH225867   6.443   4.817   5.647  0.7107 -0.6402  0.1340
 1459TIP3    H125868   6.485   4.753   5.705  1.3634 -0.1320  0.2384
 1459TIP3    H225869   6.392   4.873   5.707  0.9884 -0.4215  0.1724
 1460TIP3   OH225870   1.609   6.822  17.197  0.0792  0.8405 -0.1910
 1460TIP3    H125871   1.534   6.854  17.248  0.5531  0.4187  0.7929
 1460TIP3    H225872   1.580   6.738  17.163 -0.0463  0.8720 -0.1641
 1461TIP3   OH225873   0.032   5.877   0.343 -0.1265 -0.2164  0.3021
 1461TIP3    H125874  -0.058   5.867   0.375 -0.0933 -1.1224  0.1513
 1461TIP3    H225875   0.086   5.859   0.420 -0.0573  2.0757  0.8533
 1462TIP3   OH225876   5.838   5.795  11.834  0.0550 -0.1527  0.3378
 1462TIP3    H125877   5.785   5.766  11.759  0.4536 -1.9536  0.6971
 1462TIP3    H225878   5.798   5.750  11.909  1.3143 -0.5494  0.7877
 1463TIP3   OH225879   4.984   3.630   5.947 -0.1973 -0.1481 -0.8842
 1463TIP3    H125880   5.040   3.696   5.988 -1.9772 -0.0470  1.6188
 1463TIP3    H225881   5.011   3.547   5.988 -1.1225 -0.2555 -0.4797
 1464TIP3   OH225882   3.995   5.536  15.190  0.5344  0.0705  0.1020
 1464TIP3    H125883   3.957   5.505  15.272  0.7705 -0.4179  0.0275
 1464TIP3    H225884   3.920   5.553  15.133  0.0955  3.6240  1.4849
 1465TIP3   OH225885   5.216   1.749  12.562 -0.3147 -0.8931 -0.3035
 1465TIP3    H125886   5.122   1.734  12.562 -0.6069  0.7618 -0.4552
 1465TIP3    H225887   5.239   1.757  12.470 -0.2844  0.1102 -0.2167
 1466TIP3   OH225888   4.498   6.758   4.423  0.3571  0.4051  0.0204
 1466TIP3    H125889   4.469   6.804   4.344  1.9201 -0.1717 -0.9351
 1466TIP3    H225890   4.529   6.828   4.481  0.9109  0.7248 -0.6384
 1467TIP3   OH225891   4.815   5.387  15.980  0.3658  0.1671  0.4876
 1467TIP3    H125892   4.804   5.367  15.887 -0.6131  0.3950  0.5460
 1467TIP3    H225893   4.884   5.453  15.982  0.4067  0.1459 -0.0708
 1468TIP3   OH225894   0.563   2.048   1.827  0.0654 -0.0711 -0.1462
 1468TIP3    H125895   0.634   2.084   1.880  0.5500 -0.8058 -0.2769
 1468TIP3    H225896   0.489   2.042   1.888  0.2657  0.2014  0.1299
 1469TIP3   OH225897   2.323   2.156   3.039 -0.3126 -0.4737  0.3238
 1469TIP3    H125898   2.230   2.140   3.058 -0.4631  1.8586  2.1595
 1469TIP3    H225899   2.362   2.069   3.033 -1.8692 -1.6103  3.8527
 1470TIP3   OH225900   4.025   1.980   5.126 -0.3257  0.2424 -0.6647
 1470TIP3    H125901   4.030   2.048   5.193  0.0456 -0.2970 -0.1287
 1470TIP3    H225902   3.997   1.902   5.174 -0.9637  0.0624 -1.3088
 1471TIP3   OH225903   3.622   2.623  16.182  0.1824 -0.3320 -0.7961
 1471TIP3    H125904   3.699   2.614  16.126  1.5856 -0.2853  1.0039
 1471TIP3    H225905   3.648   2.688  16.248 -2.1966  1.3068 -1.3347
 1472TIP3   OH225906   5.388   1.572  10.929  0.0360  0.5039  0.8715
 1472TIP3    H125907   5.355   1.493  10.888 -0.0516  1.3241 -0.7159
 1472TIP3    H225908   5.383   1.555  11.023 -1.4711 -0.7561  0.5895
 1473TIP3   OH225909   5.541   5.617  12.781  0.1349 -0.0916  0.1980
 1473TIP3    H125910   5.485   5.667  12.722 -1.3727 -1.6780  0.2020
 1473TIP3    H225911   5.481   5.563  12.832  1.3699  1.0889  3.1633
 1474TIP3   OH225912   3.533   6.118  11.537  0.8757  0.2332 -0.0400
 1474TIP3    H125913   3.494   6.072  11.611 -0.1851  3.5230  1.6498
 1474TIP3    H225914   3.628   6.107  11.549  0.7302  0.7507  1.8865
 1475TIP3   OH225915   6.261   5.014  11.990  0.0760  0.5238 -0.1937
 1475TIP3    H125916   6.235   4.971  12.072  0.9278  0.0415 -0.1640
 1475TIP3    H225917   6.292   5.101  12.017  1.0690  0.0942  0.1061
 1476TIP3   OH225918   5.973   2.470  13.009  0.5043 -0.2038 -0.3225
 1476TIP3    H125919   5.925   2.546  13.038  0.7781  0.7609 -2.2144
 1476TIP3    H225920   5.925   2.395  13.045 -0.1986  0.8149  0.9275
 1477TIP3   OH225921   0.973   6.255  12.198 -0.1741 -0.1213  0.4025
 1477TIP3    H125922   0.995   6.345  12.225 -1.3522  0.4880 -0.5579
 1477TIP3    H225923   0.885   6.241  12.234  0.2667 -1.1500  1.1095
 1478TIP3   OH225924   3.532   6.231  14.508 -0.1767 -0.0588  0.3287
 1478TIP3    H125925   3.522   6.219  14.603  1.0473 -1.7009  0.2926
 1478TIP3    H225926   3.627   6.231  14.494 -0.2754  2.0752 -0.7232
 1479TIP3   OH225927   3.985   2.684   3.719 -0.0489 -0.0170  0.0685
 1479TIP3    H125928   4.039   2.757   3.687 -0.7593  0.4281 -0.1357
 1479TIP3    H225929   3.900   2.697   3.678  0.1868 -1.7464 -1.0566
 1480TIP3   OH225930   3.110   6.660  15.493 -0.0141  0.0493 -0.0220
 1480TIP3    H125931   3.056   6.739  15.498 -0.4176 -0.2166 -0.1471
 1480TIP3    H225932   3.095   6.625  15.405  1.3693  0.6762 -0.5456
 1481TIP3   OH225933   3.924   6.543  14.233  0.0635 -0.4436  0.1307
 1481TIP3    H125934   3.944   6.623  14.184  2.2997 -1.0004  0.0267
 1481TIP3    H225935   3.962   6.473  14.179 -1.0995 -1.5050  0.6477
 1482TIP3   OH225936   6.611   5.696  11.309 -0.2558 -0.2866  0.0034
 1482TIP3    H125937   6.575   5.774  11.266 -1.3977 -0.6010  0.3515
 1482TIP3    H225938   6.705   5.711  11.312 -0.5285  1.5212  0.9113
 1483TIP3   OH225939   4.193   6.590  15.402  0.0664 -0.2128 -0.4699
 1483TIP3    H125940   4.253   6.650  15.358 -0.2054  1.3206  1.1433
 1483TIP3    H225941   4.246   6.548  15.470 -0.1197 -0.6830 -0.6047
 1484TIP3   OH225942   1.286   6.431   3.528 -0.2356 -0.2483  0.2572
 1484TIP3    H125943   1.240   6.423   3.612  0.4303 -0.5095  0.6005
 1484TIP3    H225944   1.233   6.493   3.478 -0.5766  0.0009  0.9116
 1485TIP3   OH225945   5.439   5.799  11.945  0.3405  0.1054  0.1684
 1485TIP3    H125946   5.464   5.747  11.869  1.1347  1.4521 -0.5385
 1485TIP3    H225947   5.518   5.803  11.999  0.3725  0.7909  0.0776
 1486TIP3   OH225948   3.535   3.304  15.021 -0.9337 -0.2756 -0.5993
 1486TIP3    H125949   3.612   3.255  14.992  0.4627  1.7645 -0.6047
 1486TIP3    H225950   3.485   3.319  14.940 -0.8675 -0.8411 -0.7482
 1487TIP3   OH225951   1.883   0.789  11.784  0.0791 -0.0736  0.0344
 1487TIP3    H125952   1.824   0.853  11.824  0.9564  0.2825  0.7868
 1487TIP3    H225953   1.929   0.748  11.857 -0.3784 -1.4960 -0.4508
 1488TIP3   OH225954   5.650   2.386  12.627  0.5295 -0.4048 -0.2717
 1488TIP3    H125955   5.580   2.409  12.566 -0.6736  0.4314  1.3460
 1488TIP3    H225956   5.667   2.466  12.677  3.2551 -0.3323 -1.1241
 1489TIP3   OH225957   3.921   2.042   2.467  0.6482 -0.5266 -0.0245
 1489TIP3    H125958   3.831   2.011   2.473  0.8138 -0.8318  1.0980
 1489TIP3    H225959   3.951   2.048   2.558  0.9053  2.1531 -0.2003
 1490TIP3   OH225960   5.121   0.484  11.218  0.1862 -0.2449  0.3247
 1490TIP3    H125961   5.074   0.513  11.139  1.3942  0.5754 -0.1222
 1490TIP3    H225962   5.174   0.560  11.243  1.5864 -1.2684  0.5620
 1491TIP3   OH225963   1.845   1.263   5.709 -0.0589  0.6059 -0.8919
 1491TIP3    H125964   1.919   1.320   5.730  0.2892 -0.1765  0.1093
 1491TIP3    H225965   1.775   1.293   5.767  0.5771 -0.8806  0.7357
 1492TIP3   OH225966   2.711   0.916  16.874 -0.3216  0.4433 -0.7602
 1492TIP3    H125967   2.721   0.994  16.819 -1.9315  0.5566 -0.9303
 1492TIP3    H225968   2.741   0.844  16.819  2.6814  1.0366 -0.0783
 1493TIP3   OH225969   4.439   1.205   5.934 -0.2932 -0.6348 -0.0592
 1493TIP3    H125970   4.497   1.279   5.947 -1.5503  1.4035 -4.3391
 1493TIP3    H225971   4.358   1.243   5.900 -1.3759 -3.8454 -1.4933
 1494TIP3   OH225972   1.596   5.827  13.610 -0.0844 -1.1153  0.5916
 1494TIP3    H125973   1.552   5.755  13.564  1.5480 -0.9476 -1.3524
 1494TIP3    H225974   1.669   5.851  13.553 -0.4298  1.9567  1.2692
 1495TIP3   OH225975   0.547   3.180   0.359 -0.2573  0.3545  0.1513
 1495TIP3    H125976   0.520   3.136   0.279  1.3793  0.7158 -0.6475
 1495TIP3    H225977   0.483   3.153   0.424 -2.3620  1.0353 -1.5380
 1496TIP3   OH225978   6.451   0.655  11.217  0.1541  0.0714  0.3382
 1496TIP3    H125979   6.364   0.614  11.222  0.0276  0.3811  0.7923
 1496TIP3    H225980   6.432   0.748  11.202  0.3650  0.3099  1.4168
 1497TIP3   OH225981   2.334   3.818   2.892  0.2385 -0.4573  0.3175
 1497TIP3    H125982   2.284   3.738   2.876  0.9699 -0.8382 -0.0916
 1497TIP3    H225983   2.401   3.792   2.956 -0.4953  0.2153  1.4012
 1498TIP3   OH225984   4.239   6.424   4.043  0.1882  0.0480 -0.3033
 1498TIP3    H125985   4.244   6.464   4.130  0.2588  1.4939 -0.9425
 1498TIP3    H225986   4.214   6.333   4.060 -0.7760  0.5488  1.1718
 1499TIP3   OH225987   5.930   0.235   6.620 -0.3161  0.1267  0.4250
 1499TIP3    H125988   5.948   0.327   6.638 -0.7271 -0.0770  2.0088
 1499TIP3    H225989   5.913   0.232   6.526  0.2428  1.5667  0.2460
 1500TIP3   OH225990   0.531   0.750   5.032 -0.3678  0.2184  0.2068
 1500TIP3    H125991   0.545   0.768   5.125 -1.4799 -1.8808  0.8669
 1500TIP3    H225992   0.555   0.658   5.022 -0.2791  0.4014 -1.5946
 1501TIP3   OH225993   1.711   6.712   6.258  0.3230 -0.8305  0.3354
 1501TIP3    H125994   1.708   6.701   6.353 -1.9844  1.4617  0.6387
 1501TIP3    H225995   1.785   6.770   6.243 -0.6917  0.7539  1.0843
 1502TIP3   OH225996   1.829   2.196  12.861 -0.0040 -0.0220  0.0161
 1502TIP3    H125997   1.875   2.183  12.778  1.3730  1.1799  0.5345
 1502TIP3    H225998   1.816   2.290  12.866  0.7497  0.0263  1.5568
 1503TIP3   OH225999   4.883   1.839   4.901 -0.0826 -0.2579 -0.4039
 1503TIP3    H126000   4.833   1.761   4.875 -0.4518 -0.7075  1.5279
 1503TIP3    H226001   4.816   1.904   4.923  0.1222 -0.6852  1.6746
 1504TIP3   OH226002   1.092   5.684  16.435 -0.4496 -0.3472 -0.0811
 1504TIP3    H126003   1.127   5.754  16.490 -0.3631  1.8017 -2.6601
 1504TIP3    H226004   1.086   5.609  16.493  1.0985  1.3078  2.4244
 1505TIP3   OH226005   5.525   4.136  16.240  0.4340 -0.3356  0.1955
 1505TIP3    H126006   5.465   4.207  16.218  0.5579 -0.5253 -0.7895
 1505TIP3    H226007   5.474   4.056  16.223  1.2430 -0.5210 -1.5798
 1506TIP3   OH226008   3.114   0.727  12.706  0.3447 -0.0516  0.1209
 1506TIP3    H126009   3.113   0.687  12.793  0.9458  0.0654  0.1839
 1506TIP3    H226010   3.035   0.692  12.663  1.9151 -3.0839 -0.6123
 1507TIP3   OH226011   4.173   6.217  14.854 -0.2918  0.1010  0.0246
 1507TIP3    H126012   4.202   6.215  14.945  0.5754  1.9198 -0.1710
 1507TIP3    H226013   4.120   6.296  14.846  1.5559  1.2727 -1.5419
 1508TIP3   OH226014   6.296   4.142   1.012 -0.7174 -0.0016  0.0106
 1508TIP3    H126015   6.302   4.121   0.919 -1.2591  0.9849 -0.2540
 1508TIP3    H226016   6.315   4.235   1.018  0.2405 -0.2355  1.0105
 1509TIP3   OH226017   5.324   4.803   5.277  0.0749  0.2284  0.6166
 1509TIP3    H126018   5.402   4.759   5.244  0.1907  1.3831 -0.7572
 1509TIP3    H226019   5.259   4.791   5.208  0.0745  2.0594  0.2544
 1510TIP3   OH226020   3.906   0.098   3.294 -0.1851 -0.2909  0.0081
 1510TIP3    H126021   3.846   0.082   3.367  0.3812 -1.6524  0.1974
 1510TIP3    H226022   3.848   0.113   3.219 -0.7826 -1.3666  0.2330
 1511TIP3   OH226023   1.431   4.563  16.771  0.5171 -0.0178  0.8000
 1511TIP3    H126024   1.435   4.470  16.794 -0.7991 -0.7817 -1.6893
 1511TIP3    H226025   1.386   4.604  16.844 -1.3168 -1.8314  0.7642
 1512TIP3   OH226026   6.043   1.953  14.091  0.2062 -0.4949 -0.4591
 1512TIP3    H126027   5.950   1.935  14.080 -0.0357  0.2641  0.2310
 1512TIP3    H226028   6.078   1.951  14.002 -1.1540  2.6974 -1.2253
 1513TIP3   OH226029   2.008   2.594  16.058 -0.2418  0.3781 -0.1684
 1513TIP3    H126030   2.101   2.583  16.080 -0.7137 -0.3049  1.6743
 1513TIP3    H226031   1.979   2.665  16.116 -0.3000  2.4977 -2.6336
 1514TIP3   OH226032   6.715   3.514   1.998  0.4929 -0.1021  0.2042
 1514TIP3    H126033   6.635   3.545   2.041 -0.7406  0.1449 -2.1362
 1514TIP3    H226034   6.714   3.419   2.011 -1.0152 -0.2953 -1.0281
 1515TIP3   OH226035   2.899   1.062  15.459 -0.2691 -0.5140  0.2622
 1515TIP3    H126036   2.833   0.993  15.455 -1.2453  0.4826 -2.2525
 1515TIP3    H226037   2.982   1.015  15.469 -1.0473 -1.9411  0.2422
 1516TIP3   OH226038   3.172   1.283   1.666 -0.6208 -0.5460 -0.1089
 1516TIP3    H126039   3.149   1.195   1.695 -0.6795 -0.3865  0.3338
 1516TIP3    H226040   3.160   1.281   1.571 -1.9116 -0.6305  0.0386
 1517TIP3   OH226041   0.742   5.152  14.339 -0.2553  0.6621 -0.5179
 1517TIP3    H126042   0.649   5.127  14.338 -0.1252 -0.0267  1.3061
 1517TIP3    H226043   0.742   5.245  14.319 -1.2827  0.5423 -1.1752
 1518TIP3   OH226044   2.887   2.637  16.820 -0.1708  0.0602 -0.3172
 1518TIP3    H126045   2.883   2.733  16.819 -1.2673  0.0328 -0.7115
 1518TIP3    H226046   2.864   2.613  16.910 -0.3739  0.1540 -0.3436
 1519TIP3   OH226047   6.166   0.696   0.574 -0.3814  0.7058  0.4753
 1519TIP3    H126048   6.156   0.782   0.532 -0.1142  1.6332  2.2195
 1519TIP3    H226049   6.078   0.657   0.570 -0.5340  1.1093 -0.2291
 1520TIP3   OH226050   0.642   5.470  17.266  0.2926 -0.1814  0.1287
 1520TIP3    H126051   0.702   5.519  17.210  0.0695 -0.8466 -0.7014
 1520TIP3    H226052   0.616   5.533  17.333  0.3877  0.6912 -0.6390
 1521TIP3   OH226053   0.409   5.271   2.232  0.1283  0.1234  0.4645
 1521TIP3    H126054   0.348   5.263   2.305  0.1424  2.4458  0.8029
 1521TIP3    H226055   0.476   5.331   2.263  1.3412 -0.5704 -0.7207
 1522TIP3   OH226056   4.538   1.855  12.640  0.4292  0.2507 -0.5380
 1522TIP3    H126057   4.551   1.926  12.704 -0.0582  1.3937 -1.6723
 1522TIP3    H226058   4.582   1.885  12.561  0.8775 -1.0789 -0.8172
 1523TIP3   OH226059   0.340   0.259  12.835  0.2287 -0.5575 -0.1847
 1523TIP3    H126060   0.274   0.190  12.847  0.5835 -0.9961 -0.6645
 1523TIP3    H226061   0.344   0.304  12.919 -0.5241 -0.6700 -0.0838
 1524TIP3   OH226062   4.757   3.750   4.114 -0.1888  0.2053  0.5234
 1524TIP3    H126063   4.844   3.712   4.096 -0.6537 -0.0507 -1.4393
 1524TIP3    H226064   4.704   3.676   4.143 -0.2945 -0.0840 -0.3703
 1525TIP3   OH226065   4.008   2.730  11.947  0.1588  0.4918 -0.6275
 1525TIP3    H126066   3.973   2.714  11.860  0.9268  1.0761 -1.0585
 1525TIP3    H226067   3.940   2.700  12.007 -1.3690  2.1898 -1.4375
 1526TIP3   OH226068   0.615   0.980  17.177 -0.1590 -0.6632 -0.1392
 1526TIP3    H126069   0.677   0.943  17.114  0.6421  0.9877 -0.3664
 1526TIP3    H226070   0.666   0.992  17.257 -0.6452 -0.8821  0.2096
 1527TIP3   OH226071   0.179   4.845   0.314  0.3160  0.0857  0.6927
 1527TIP3    H126072   0.120   4.785   0.269  0.7090  0.5899 -0.5638
 1527TIP3    H226073   0.124   4.918   0.341  0.0215 -0.3572  1.2931
 1528TIP3   OH226074   2.753   2.845   2.058 -0.3863 -0.0426  0.0743
 1528TIP3    H126075   2.698   2.767   2.068  0.4111 -0.6114  0.1891
 1528TIP3    H226076   2.746   2.867   1.965 -0.3186 -0.4847 -0.0399
 1529TIP3   OH226077   6.701   2.653   0.887  0.3073 -0.5479  0.7581
 1529TIP3    H126078   6.783   2.630   0.931  1.7026 -0.8518 -1.8095
 1529TIP3    H226079   6.702   2.748   0.883  0.5040 -0.5498  0.7569
 1530TIP3   OH226080   3.472   1.358  14.797 -0.1607 -0.0490  0.3366
 1530TIP3    H126081   3.386   1.324  14.772 -0.3758  0.3153  0.5603
 1530TIP3    H226082   3.527   1.280  14.807 -0.0229 -0.2002 -1.3792
 1531TIP3   OH226083   1.268   3.675  13.868 -0.2348  0.0272  0.3143
 1531TIP3    H126084   1.242   3.766  13.849 -0.9692 -0.5927 -1.9865
 1531TIP3    H226085   1.239   3.626  13.792  2.0776 -1.8094  0.5092
 1532TIP3   OH226086   1.776   1.250   4.615  0.2499 -0.6417 -0.7535
 1532TIP3    H126087   1.868   1.268   4.632 -0.0484 -1.2886  2.0707
 1532TIP3    H226088   1.775   1.163   4.576  0.7934 -1.8160  1.6440
 1533TIP3   OH226089   5.395   2.796   3.701  0.1687  0.1923  0.2209
 1533TIP3    H126090   5.467   2.733   3.694  0.4312  0.5112 -0.0096
 1533TIP3    H226091   5.380   2.825   3.611  1.1172  1.6265  0.4777
 1534TIP3   OH226092   3.510   2.495   3.255  0.4285  0.4947  0.2426
 1534TIP3    H126093   3.504   2.433   3.183 -0.5913 -0.7440  1.3306
 1534TIP3    H226094   3.539   2.576   3.215  2.5263 -0.8437 -1.1239
 1535TIP3   OH226095   0.476   1.605  12.065  0.1131 -0.3732  0.6156
 1535TIP3    H126096   0.435   1.612  11.979  2.9089 -3.1267 -1.1502
 1535TIP3    H226097   0.534   1.680  12.070  0.2704 -0.4372 -0.1344
 1536TIP3   OH226098   5.660   3.928   3.834 -0.5527 -0.1397  0.1309
 1536TIP3    H126099   5.713   4.007   3.824 -1.8258  0.7534  0.2517
 1536TIP3    H226100   5.590   3.953   3.894 -0.3506 -1.6963  1.0799
 1537TIP3   OH226101   6.083   5.381  17.021 -0.2394 -0.2317  0.5110
 1537TIP3    H126102   6.030   5.312  16.980  0.1106 -0.6196  0.7111
 1537TIP3    H226103   6.172   5.347  17.021 -0.1109  0.0908  0.8886
 1538TIP3   OH226104   6.653   0.798   4.068 -0.0211 -0.9069 -0.3712
 1538TIP3    H126105   6.572   0.765   4.030  0.3516 -1.1386 -0.9877
 1538TIP3    H226106   6.636   0.891   4.085 -0.1307 -0.7466 -1.3127
 1539TIP3   OH226107   5.851   5.698   1.722 -0.7142 -0.2693  0.0252
 1539TIP3    H126108   5.779   5.652   1.765 -1.2484  0.1728 -0.3922
 1539TIP3    H226109   5.819   5.716   1.634 -0.6545  1.2379  0.2919
 1540TIP3   OH226110   4.023   2.228   5.726  0.6554  0.1963  0.4569
 1540TIP3    H126111   3.935   2.266   5.732  0.4752 -0.3151  1.1820
 1540TIP3    H226112   4.082   2.302   5.741  0.2939  0.0396  3.2264
 1541TIP3   OH226113   0.162   0.592  15.900  0.3554  0.0967 -0.1563
 1541TIP3    H126114   0.098   0.573  15.969 -1.2087  2.0747 -0.9436
 1541TIP3    H226115   0.193   0.506  15.872 -0.9413 -0.8789  1.1921
 1542TIP3   OH226116   2.301   4.309  15.689 -0.7289  0.3254  0.3449
 1542TIP3    H126117   2.319   4.362  15.767 -0.6080  1.4988 -0.4505
 1542TIP3    H226118   2.206   4.314  15.678 -0.6222  1.2435 -0.2959
 1543TIP3   OH226119   2.033   1.344   4.688  0.5128 -0.5093 -0.1819
 1543TIP3    H126120   2.035   1.434   4.657  1.8835 -0.9600 -1.5998
 1543TIP3    H226121   2.070   1.348   4.777 -0.8436  0.4817  0.3621
 1544TIP3   OH226122   3.298   6.716   2.115  0.3745  0.5118  0.2363
 1544TIP3    H126123   3.272   6.691   2.027 -1.0223 -1.6018  1.1620
 1544TIP3    H226124   3.394   6.710   2.115  0.3115 -1.0076 -0.7320
 1545TIP3   OH226125   6.378   1.360  11.808  0.1134 -0.1750 -0.6958
 1545TIP3    H126126   6.398   1.453  11.799 -0.2855 -0.0813 -0.6230
 1545TIP3    H226127   6.282   1.355  11.803 -0.2490 -0.1130  3.0830
 1546TIP3   OH226128   3.568   1.164   2.297 -0.0439 -0.1211  0.3861
 1546TIP3    H126129   3.521   1.133   2.375  0.2956 -0.5768  0.4126
 1546TIP3    H226130   3.550   1.258   2.295 -1.6616 -0.4064 -0.0847
 1547TIP3   OH226131   2.722   0.785   5.964  0.1624 -0.0463  0.1442
 1547TIP3    H126132   2.657   0.715   5.977  1.2929 -1.2735 -0.5033
 1547TIP3    H226133   2.730   0.827   6.049 -0.4880 -0.7671  0.5768
 1548TIP3   OH226134   3.348   4.157  15.833  0.6409  0.0579  0.1729
 1548TIP3    H126135   3.440   4.183  15.841  0.4361  0.8893  0.0082
 1548TIP3    H226136   3.318   4.204  15.755 -0.0474  0.1724  0.5013
 1549TIP3   OH226137   6.381   2.615   4.510 -0.4625 -0.1475  0.3632
 1549TIP3    H126138   6.448   2.555   4.543 -1.2965 -0.5372  1.3806
 1549TIP3    H226139   6.346   2.659   4.587 -1.1136  0.3310 -0.1847
 1550TIP3   OH226140   4.184   5.773   2.950  0.1792  0.1857  0.3121
 1550TIP3    H126141   4.257   5.739   2.899  0.4502  0.5524  0.4496
 1550TIP3    H226142   4.174   5.864   2.922 -0.5243  0.0109 -0.0372
 1551TIP3   OH226143   5.193   6.400  11.113 -0.6448  0.1075  0.1842
 1551TIP3    H126144   5.182   6.433  11.024 -1.5829 -0.9954 -0.1367
 1551TIP3    H226145   5.287   6.409  11.130 -0.0210 -1.7700 -1.8005
 1552TIP3   OH226146   1.345   2.871  12.651  0.8275  0.1452 -0.2210
 1552TIP3    H126147   1.289   2.808  12.605  0.0705 -0.5519  1.5716
 1552TIP3    H226148   1.413   2.817  12.691  0.1747  0.4249  1.3304
 1553TIP3   OH226149   1.398   4.293  16.858  0.5154  0.0957  0.1553
 1553TIP3    H126150   1.425   4.305  16.949  0.3363  3.5809 -0.1039
 1553TIP3    H226151   1.304   4.275  16.862  0.8919 -2.0863  0.6521
 1554TIP3   OH226152   5.203   0.732  17.060 -0.1789 -0.1386 -0.1658
 1554TIP3    H126153   5.114   0.757  17.082  0.1372  0.3918  0.5649
 1554TIP3    H226154   5.257   0.803  17.096  0.4329  0.3401 -1.9325
 1555TIP3   OH226155   3.623   1.465  14.593  0.6592  0.0237 -0.0174
 1555TIP3    H126156   3.623   1.390  14.533  1.8412  0.6543 -0.8504
 1555TIP3    H226157   3.586   1.430  14.674  0.3647 -1.2319 -0.6554
 1556TIP3   OH226158   0.929   5.130  12.198 -0.4065 -0.0399 -0.0797
 1556TIP3    H126159   0.853   5.182  12.226 -0.7433 -0.6341  0.1340
 1556TIP3    H226160   0.956   5.169  12.115  0.0065  1.1501  0.5913
 1557TIP3   OH226161   2.032   3.237  15.264 -0.7424  0.3593 -1.1276
 1557TIP3    H126162   2.071   3.314  15.223 -0.8656  1.2615  0.3582
 1557TIP3    H226163   1.940   3.260  15.275 -1.0768 -0.5636 -1.9056
 1558TIP3   OH226164   0.994   3.564  14.183  0.8053 -0.2138  0.6524
 1558TIP3    H126165   0.987   3.571  14.088  1.4757 -0.1256  0.6079
 1558TIP3    H226166   0.974   3.472  14.201 -0.3972  0.0044  0.5367
 1559TIP3   OH226167   5.815   2.680  12.628  0.1473 -0.1695 -0.0234
 1559TIP3    H126168   5.837   2.763  12.586 -0.4332 -0.2363 -0.4765
 1559TIP3    H226169   5.753   2.638  12.567 -0.7502 -0.2440  0.9099
 1560TIP3   OH226170   5.481   3.062   6.588 -0.2048 -0.1844 -0.6600
 1560TIP3    H126171   5.463   3.126   6.519 -0.0846  0.1434 -0.3883
 1560TIP3    H226172   5.524   2.989   6.543 -3.0518 -1.4746 -1.5593
 1561TIP3   OH226173   2.578   0.043  15.747  0.1449 -0.9960 -0.1793
 1561TIP3    H126174   2.534   0.103  15.686  0.4197  0.6281  1.1702
 1561TIP3    H226175   2.665   0.081  15.759  0.0610 -1.2430  1.2907
 1562TIP3   OH226176   2.987   6.274   2.697 -1.1133 -0.1777  0.4336
 1562TIP3    H126177   2.932   6.338   2.742 -1.8076  0.1963 -0.9131
 1562TIP3    H226178   3.072   6.317   2.690 -1.3069  0.2049  0.4022
 1563TIP3   OH226179   4.112   6.306  17.041 -0.5712 -0.0233  0.4567
 1563TIP3    H126180   4.126   6.212  17.054 -0.0614  0.2851  2.5688
 1563TIP3    H226181   4.023   6.322  17.072 -0.9502  0.0738 -0.6648
 1564TIP3   OH226182   5.971   0.382   2.182  0.3184  0.3376 -0.3684
 1564TIP3    H126183   5.943   0.320   2.248 -0.4387  1.1147  0.0570
 1564TIP3    H226184   5.974   0.331   2.101 -1.3915 -0.0174 -0.2525
 1565TIP3   OH226185   0.966   6.626  13.135 -0.2159 -0.1164 -0.1101
 1565TIP3    H126186   1.007   6.552  13.180  0.2690 -0.0771 -0.4820
 1565TIP3    H226187   0.992   6.703  13.186 -0.2956 -0.1446 -0.0248
 1566TIP3   OH226188   1.380   0.607  11.057 -0.0424 -0.0901  0.7361
 1566TIP3    H126189   1.285   0.612  11.050  0.0001  0.2500  0.3149
 1566TIP3    H226190   1.399   0.515  11.075 -0.5296  0.0897  2.3304
 1567TIP3   OH226191   1.851   6.440  13.924 -0.8662 -0.0347  0.2563
 1567TIP3    H126192   1.802   6.419  13.845 -1.8663  1.4200  0.4478
 1567TIP3    H226193   1.856   6.358  13.972 -2.6771 -0.3501 -0.0317
 1568TIP3   OH226194   4.209   6.280   3.379  0.5041 -0.0367 -0.7252
 1568TIP3    H126195   4.250   6.202   3.342 -1.8563 -1.0613 -1.3181
 1568TIP3    H226196   4.159   6.318   3.307  2.6195  2.8653 -0.8315
 1569TIP3   OH226197   6.716   3.078   3.412  0.2712 -0.2042 -0.8601
 1569TIP3    H126198   6.798   3.096   3.457  0.9673  1.2866 -2.5724
 1569TIP3    H226199   6.731   2.996   3.365  0.0431 -0.9901  0.4048
 1570TIP3   OH226200   3.763   5.878  15.191 -0.3577 -0.2364 -0.1637
 1570TIP3    H126201   3.749   5.809  15.126  0.1334 -0.6101  0.1209
 1570TIP3    H226202   3.729   5.957  15.149 -1.0506 -0.6722 -0.4431
 1571TIP3   OH226203   2.340   5.519   1.238 -0.0498 -0.1070 -0.0331
 1571TIP3    H126204   2.305   5.540   1.151 -1.2866  0.6098  0.6047
 1571TIP3    H226205   2.385   5.600   1.265 -1.4035  0.4085  0.7935
 1572TIP3   OH226206   6.182   0.966  13.569 -0.2403  0.0789 -0.0946
 1572TIP3    H126207   6.144   0.907  13.505  1.1677 -0.0431 -0.8492
 1572TIP3    H226208   6.113   0.976  13.636 -0.4670 -2.5465  0.1760
 1573TIP3   OH226209   1.599   4.678   4.884  0.2091  0.4214  0.3735
 1573TIP3    H126210   1.509   4.700   4.862  0.1644 -0.2019 -0.1014
 1573TIP3    H226211   1.639   4.653   4.800  0.7459  0.4325  0.6195
 1574TIP3   OH226212   6.787   0.813  15.828 -0.3609 -0.0851  0.1958
 1574TIP3    H126213   6.827   0.726  15.838  0.0480 -0.0295 -0.8349
 1574TIP3    H226214   6.697   0.801  15.858 -0.6291 -1.1538 -0.9077
 1575TIP3   OH226215   5.257   5.839  12.923  0.2273  0.1362 -0.3806
 1575TIP3    H126216   5.173   5.823  12.966  0.0544  0.8947 -0.4336
 1575TIP3    H226217   5.251   5.928  12.888  1.9173  1.1536  1.6808
 1576TIP3   OH226218   0.416   4.742   4.117 -0.5732 -0.5651 -0.0375
 1576TIP3    H126219   0.395   4.662   4.069  2.7962 -0.4225 -2.1220
 1576TIP3    H226220   0.510   4.735   4.135 -0.6161  1.9360  1.7703
 1577TIP3   OH226221   5.385   1.566  15.772 -0.1147 -0.2000  0.6810
 1577TIP3    H126222   5.398   1.544  15.679  0.8617  0.0472  0.7497
 1577TIP3    H226223   5.336   1.491  15.807  0.0900 -0.6073  0.1199
 1578TIP3   OH226224   5.227   5.963  11.203  0.1785  0.0357 -0.2529
 1578TIP3    H126225   5.184   5.877  11.205  0.8683 -0.3487 -1.0853
 1578TIP3    H226226   5.158   6.025  11.226  0.3615 -0.9459  3.7150
 1579TIP3   OH226227   4.184   0.947  13.862 -0.0067 -0.2949 -0.1468
 1579TIP3    H126228   4.221   1.025  13.904  1.7708 -1.5606  0.7830
 1579TIP3    H226229   4.219   0.873  13.912 -1.8635 -1.7264 -0.7942
 1580TIP3   OH226230   6.499   3.668   0.069 -0.3783  0.2850  0.2512
 1580TIP3    H126231   6.506   3.614  -0.010  0.1894  2.1746 -1.0802
 1580TIP3    H226232   6.427   3.728   0.050  0.9165  1.9437  0.3677
 1581TIP3   OH226233   1.856   4.526  15.279 -0.0210  0.1985 -0.3579
 1581TIP3    H126234   1.761   4.523  15.288 -0.3634  1.4855 -2.7629
 1581TIP3    H226235   1.883   4.598  15.335 -0.1846 -1.2379  1.6867
 1582TIP3   OH226236   4.222   3.598   5.476 -0.4668  0.7521 -0.7545
 1582TIP3    H126237   4.207   3.635   5.389 -0.8926  1.1412 -0.5269
 1582TIP3    H226238   4.150   3.634   5.529 -2.0521 -1.9066 -0.9404
 1583TIP3   OH226239   5.349   1.925   3.465 -0.1022  0.6062  0.0177
 1583TIP3    H126240   5.433   1.933   3.511  0.5320 -0.7401 -0.8301
 1583TIP3    H226241   5.299   1.862   3.516  0.0174  0.2442 -0.3040
 1584TIP3   OH226242   6.508   6.498   2.985 -0.1800  0.0438  0.2974
 1584TIP3    H126243   6.568   6.572   2.986 -0.7505  0.5401  2.3276
 1584TIP3    H226244   6.514   6.461   3.073 -0.3137 -2.0099 -0.5042
 1585TIP3   OH226245   3.668   3.802  12.267 -0.0481 -0.4501 -0.0694
 1585TIP3    H126246   3.576   3.828  12.261 -0.0110 -0.4707 -0.8715
 1585TIP3    H226247   3.690   3.811  12.359 -0.2848  1.5632 -0.1591
 1586TIP3   OH226248   4.075   1.962   2.248  0.1056 -0.3870  0.5634
 1586TIP3    H126249   4.023   2.005   2.180  0.3183 -1.1778 -0.1161
 1586TIP3    H226250   4.032   1.985   2.330 -0.7195 -0.1962  0.0846
 1587TIP3   OH226251   3.099   2.673  16.647 -0.0620  0.2694 -0.1566
 1587TIP3    H126252   3.091   2.590  16.602 -0.5659  1.1471 -1.7597
 1587TIP3    H226253   3.027   2.673  16.711  1.2536 -1.3986  1.4427
 1588TIP3   OH226254   1.313   5.636   5.193  0.1238  0.0508  0.1188
 1588TIP3    H126255   1.334   5.716   5.240  0.3394 -0.9000  1.6958
 1588TIP3    H226256   1.233   5.603   5.234  1.1123 -1.5610  0.8543
 1589TIP3   OH226257   5.224   5.211  10.440  0.2283  0.2257  0.1828
 1589TIP3    H126258   5.276   5.198  10.519  1.5785  0.8409 -0.5671
 1589TIP3    H226259   5.186   5.298  10.450  1.3180  0.7860 -0.3062
 1590TIP3   OH226260   0.192   5.789  15.803 -0.2656 -0.2311  0.3258
 1590TIP3    H126261   0.194   5.710  15.749  1.7599  0.4195 -0.6180
 1590TIP3    H226262   0.167   5.858  15.742  2.9959  0.6821 -0.1498
 1591TIP3   OH226263   3.636   4.655   4.623  0.0525  0.1125 -0.5546
 1591TIP3    H126264   3.630   4.652   4.718  0.7660  0.2151 -0.4966
 1591TIP3    H226265   3.689   4.732   4.605  0.9959 -0.6067 -0.9644
 1592TIP3   OH226266   0.196   1.814   2.912  0.2640 -0.0215 -0.4246
 1592TIP3    H126267   0.233   1.865   2.985  0.1496 -0.1106 -0.3032
 1592TIP3    H226268   0.209   1.870   2.835 -0.3702  0.4465 -0.2055
 1593TIP3   OH226269   3.578   6.792   2.780  0.0506  0.1490  0.2221
 1593TIP3    H126270   3.487   6.760   2.773  0.5889 -1.8380  1.4446
 1593TIP3    H226271   3.580   6.837   2.864 -0.0472  1.1165 -0.2885
 1594TIP3   OH226272   3.547   0.287   2.905  0.2282  0.6649  0.1147
 1594TIP3    H126273   3.559   0.281   2.811  0.2799  0.7733  0.1144
 1594TIP3    H226274   3.462   0.246   2.921  0.8283 -0.6163  0.1858
 1595TIP3   OH226275   3.813   6.769  12.853  0.0581 -0.0767  0.1655
 1595TIP3    H126276   3.831   6.857  12.888 -0.9455  0.1246  0.1941
 1595TIP3    H226277   3.738   6.781  12.795  0.0046 -0.8986  0.0543
 1596TIP3   OH226278   0.585   6.602  12.466  0.2746 -0.7054  0.4154
 1596TIP3    H126279   0.561   6.510  12.465  1.5434 -1.0521 -0.8709
 1596TIP3    H226280   0.532   6.640  12.536 -0.1694 -2.4246  1.0518
 1597TIP3   OH226281   2.769   4.910  13.342  0.6249  0.1689 -0.2391
 1597TIP3    H126282   2.856   4.906  13.301  1.0756  0.2053  0.6721
 1597TIP3    H226283   2.766   4.997  13.383 -0.5075  0.8295 -1.6517
 1598TIP3   OH226284   1.110   6.384   5.720  0.0777 -0.3835  0.1900
 1598TIP3    H126285   1.127   6.466   5.674 -3.0720  0.2537 -0.0459
 1598TIP3    H226286   1.127   6.404   5.812 -1.1284  0.7287  0.1952
 1599TIP3   OH226287   3.896   3.768   1.451 -0.1774 -0.0602 -0.1522
 1599TIP3    H126288   3.943   3.789   1.370  1.5428  1.1651  1.1012
 1599TIP3    H226289   3.930   3.681   1.476  0.2466  0.1176 -0.0968
 1600TIP3   OH226290   2.529   6.782   1.368 -0.1008  0.5211  0.7072
 1600TIP3    H126291   2.539   6.851   1.302  0.5220  0.6685  0.9526
 1600TIP3    H226292   2.608   6.728   1.360 -0.5815 -0.1689  0.5204
 1601TIP3   OH226293   5.225   4.989   2.770  0.2024  0.6556 -0.4794
 1601TIP3    H126294   5.302   4.985   2.713  0.5871 -0.8029  0.1098
 1601TIP3    H226295   5.254   5.039   2.846  0.3609  0.6947 -0.5653
 1602TIP3   OH226296   0.054   5.481  16.413 -0.4280 -0.8114 -0.0340
 1602TIP3    H126297   0.138   5.451  16.448  0.2014 -1.5344 -2.0118
 1602TIP3    H226298   0.040   5.427  16.335 -2.1110  0.1731 -0.4592
 1603TIP3   OH226299   6.533   5.175   4.401 -0.1298  0.4112 -0.6292
 1603TIP3    H126300   6.464   5.121   4.439  0.3332 -0.4809 -1.0314
 1603TIP3    H226301   6.572   5.220   4.476 -2.1977  2.2492 -0.5341
 1604TIP3   OH226302   1.543   0.880  16.894 -0.3637  0.3454  0.1854
 1604TIP3    H126303   1.552   0.842  16.807 -0.0385 -0.2520  0.4760
 1604TIP3    H226304   1.451   0.866  16.916 -0.7359  1.5220 -0.5167
 1605TIP3   OH226305   2.538   0.410  12.318 -0.2323  0.1211  0.5247
 1605TIP3    H126306   2.574   0.363  12.243  1.0815  2.1024 -0.1331
 1605TIP3    H226307   2.581   0.371  12.394 -1.3808 -1.7202  0.3089
 1606TIP3   OH226308   4.429   2.460   1.994 -0.1727 -0.5225 -0.2200
 1606TIP3    H126309   4.434   2.411   1.912 -0.1685  0.7459 -1.0072
 1606TIP3    H226310   4.442   2.395   2.063  0.6044 -1.4799 -1.2563
 1607TIP3   OH226311   0.870   0.651   5.814  0.1667  0.3629  0.0523
 1607TIP3    H126312   0.935   0.609   5.870 -0.6395 -1.0404 -0.0233
 1607TIP3    H226313   0.920   0.683   5.738  0.7279 -0.9596 -0.1466
 1608TIP3   OH226314   2.145   5.416  13.098 -0.7895 -0.1892  0.0336
 1608TIP3    H126315   2.240   5.403  13.100 -0.5425  1.5147  0.7715
 1608TIP3    H226316   2.109   5.333  13.130  0.6254  0.3440  3.4024
 1609TIP3   OH226317   0.819   5.918  13.847 -0.8996 -0.5930 -0.1556
 1609TIP3    H126318   0.764   5.842  13.829 -0.5933 -0.9381  0.3389
 1609TIP3    H226319   0.886   5.917  13.778 -1.0258 -0.6454 -0.2764
 1610TIP3   OH226320   2.013   2.982  16.442 -0.0344 -0.3863 -0.4529
 1610TIP3    H126321   1.981   2.972  16.531  1.1139  1.0417  0.1638
 1610TIP3    H226322   1.995   3.073  16.419  2.0669  0.0410 -0.6466
 1611TIP3   OH226323   0.754   2.241   1.033  0.2031  0.3253 -0.1995
 1611TIP3    H126324   0.659   2.230   1.024 -0.5395  0.0021  5.0142
 1611TIP3    H226325   0.766   2.335   1.041 -0.1337  0.2482  1.6246
 1612TIP3   OH226326   5.866   5.743   5.223 -0.3356  0.4177  1.1248
 1612TIP3    H126327   5.860   5.791   5.141  1.6347 -0.9246  0.1110
 1612TIP3    H226328   5.790   5.685   5.222  0.0233 -0.0829 -0.1514
 1613TIP3   OH226329   3.236   1.492   3.094  0.2732  0.5408 -0.0466
 1613TIP3    H126330   3.180   1.426   3.052 -0.0762  0.3407  0.6966
 1613TIP3    H226331   3.232   1.568   3.036  0.9695 -0.2067 -1.1066
 1614TIP3   OH226332   1.905   3.431   4.735  0.3672  1.1388 -0.1116
 1614TIP3    H126333   1.920   3.472   4.821  0.8761  1.4796 -0.3532
 1614TIP3    H226334   1.950   3.347   4.740  2.1102  1.9760 -0.6856
 1615TIP3   OH226335   6.375   6.567  13.067 -0.2164 -0.1438  0.0497
 1615TIP3    H126336   6.417   6.653  13.072  0.4149 -0.4789  0.6585
 1615TIP3    H226337   6.290   6.580  13.109 -0.0934  0.1680  0.2084
 1616TIP3   OH226338   5.681   6.626  12.931  0.3010 -0.1775  0.3958
 1616TIP3    H126339   5.628   6.589  13.001 -0.8820 -2.8732 -1.7265
 1616TIP3    H226340   5.763   6.652  12.973 -0.7265 -0.7216  2.8942
 1617TIP3   OH226341   0.172   2.616   5.152 -0.3643  0.3070 -0.2362
 1617TIP3    H126342   0.167   2.564   5.072 -0.5379  1.7507 -1.2080
 1617TIP3    H226343   0.185   2.706   5.121 -0.2412  0.8707  1.3707
 1618TIP3   OH226344   3.933   2.395   6.267 -0.0522  0.1822  0.6714
 1618TIP3    H126345   3.867   2.458   6.295 -1.4226 -1.9181  2.5390
 1618TIP3    H226346   3.982   2.374   6.346  1.9289  0.5774 -0.3922
 1619TIP3   OH226347   3.766   6.307   3.407  0.1149 -0.3439 -0.0089
 1619TIP3    H126348   3.821   6.366   3.459 -0.7945 -0.4002  1.0757
 1619TIP3    H226349   3.682   6.306   3.454  0.0799 -2.4508 -0.0068
 1620TIP3   OH226350   2.283   2.576  16.229 -0.2884  0.2756  0.2017
 1620TIP3    H126351   2.211   2.560  16.291 -0.5020 -2.1944 -0.5805
 1620TIP3    H226352   2.362   2.557  16.279 -0.1282  2.5532  0.9265
 1621TIP3   OH226353   1.187   5.391   3.637 -0.0804  0.2075 -0.2122
 1621TIP3    H126354   1.111   5.437   3.603 -0.5868  0.2939  0.9727
 1621TIP3    H226355   1.221   5.448   3.706 -0.2821 -0.8213  0.7829
 1622TIP3   OH226356   4.307   2.202  12.498 -0.0692 -0.5943 -1.0234
 1622TIP3    H126357   4.330   2.285  12.457 -0.7802  0.0643 -0.1275
 1622TIP3    H226358   4.249   2.160  12.435  0.5498 -0.5713 -1.6240
 1623TIP3   OH226359   0.839   3.957   3.130 -0.7648 -0.3609 -0.4585
 1623TIP3    H126360   0.906   3.895   3.102 -1.4210 -1.6062  0.5970
 1623TIP3    H226361   0.877   4.043   3.113  1.9486 -0.9317  1.8707
 1624TIP3   OH226362   1.985   4.666  12.336  0.3447  0.3946 -0.2566
 1624TIP3    H126363   1.906   4.614  12.325  0.3459  0.3160  0.1113
 1624TIP3    H226364   1.994   4.713  12.253  0.0804  0.1744 -0.4108
 1625TIP3   OH226365   4.651   5.485   6.082  0.0783  0.5328 -0.1164
 1625TIP3    H126366   4.603   5.557   6.039 -1.1617 -0.8105 -1.0644
 1625TIP3    H226367   4.643   5.504   6.175  0.5783  2.1135 -0.3529
 1626TIP3   OH226368   4.675   5.037  12.517 -0.2603 -0.5360 -0.5592
 1626TIP3    H126369   4.635   5.119  12.489  1.0859  0.1578 -0.5137
 1626TIP3    H226370   4.766   5.060  12.538 -0.0530 -1.8940  0.1533
 1627TIP3   OH226371   4.091   0.611   5.330 -0.3455  0.6824  0.2057
 1627TIP3    H126372   4.051   0.561   5.259  0.0246  0.4401  0.1651
 1627TIP3    H226373   4.019   0.628   5.391 -0.0402 -2.0660  1.4745
 1628TIP3   OH226374   1.698   3.873   2.938  0.0073  0.6801 -1.1762
 1628TIP3    H126375   1.722   3.965   2.924 -1.8351  1.0025 -2.6132
 1628TIP3    H226376   1.701   3.834   2.851 -1.6249  0.0410 -0.9854
 1629TIP3   OH226377   3.538   4.457  13.995  0.0132 -0.0598 -0.0033
 1629TIP3    H126378   3.540   4.443  13.900 -0.5819 -1.9142  0.2271
 1629TIP3    H226379   3.462   4.408  14.025 -0.8445  1.9429  1.2478
 1630TIP3   OH226380   1.413   5.849  11.868  0.3372  0.3087 -0.2027
 1630TIP3    H126381   1.356   5.882  11.938 -1.4170  0.5516 -1.6523
 1630TIP3    H226382   1.455   5.927  11.833 -0.2840  0.4485 -0.6561
 1631TIP3   OH226383   1.488   4.576   5.320 -0.0429 -0.5381  0.2738
 1631TIP3    H126384   1.463   4.669   5.320 -0.0558 -0.4497 -2.6685
 1631TIP3    H226385   1.406   4.529   5.304  0.3039 -0.8734 -0.5554
 1632TIP3   OH226386   1.619   5.070   4.697  0.2118 -0.6004 -0.1587
 1632TIP3    H126387   1.684   5.137   4.716  0.6068 -0.2460 -2.4467
 1632TIP3    H226388   1.594   5.086   4.606 -2.2884 -1.4066  0.2936
 1633TIP3   OH226389   0.932   4.237   4.794  0.0663 -0.3388  0.0930
 1633TIP3    H126390   0.894   4.324   4.787 -0.0367 -0.2552  1.3504
 1633TIP3    H226391   0.919   4.213   4.886 -0.4367 -1.9222 -0.3513
 1634TIP3   OH226392   0.728   3.473   4.786 -0.1926  0.4472 -0.0694
 1634TIP3    H126393   0.800   3.470   4.723 -1.0227 -0.4946 -1.0167
 1634TIP3    H226394   0.682   3.390   4.774 -0.2506  0.1301  1.9650
 1635TIP3   OH226395   0.839   1.711  11.831 -1.0468 -0.5112  0.1732
 1635TIP3    H126396   0.747   1.709  11.807 -1.4729 -1.6563  1.7020
 1635TIP3    H226397   0.839   1.694  11.925  0.6457  1.0419  0.5017
 1636TIP3   OH226398   2.290   0.170  12.477 -0.2073 -0.1988 -0.5778
 1636TIP3    H126399   2.220   0.165  12.542  0.9468  0.2054  0.7400
 1636TIP3    H226400   2.348   0.098  12.499  0.8973  0.7536 -0.2911
 1637TIP3   OH226401   5.907   5.947  12.801 -0.2546  0.0277 -0.1120
 1637TIP3    H126402   5.954   5.990  12.873 -0.4356 -0.6774  0.4391
 1637TIP3    H226403   5.844   5.890  12.844 -0.0340 -0.7786 -0.8177
 1638TIP3   OH226404   2.441   5.216  15.906 -0.3320  0.0597 -0.3915
 1638TIP3    H126405   2.524   5.189  15.866 -0.4426  1.4385 -1.6252
 1638TIP3    H226406   2.396   5.134  15.924  1.6297 -0.7871  1.1275
 1639TIP3   OH226407   3.494   4.514   0.135 -0.0703 -0.1903  0.1164
 1639TIP3    H126408   3.570   4.563   0.169 -0.0541 -0.7906  0.9799
 1639TIP3    H226409   3.459   4.569   0.065  0.2193  0.8472  0.7698
 1640TIP3   OH226410   2.288   6.599  17.067  0.2059  0.2528 -0.1674
 1640TIP3    H126411   2.269   6.507  17.045 -0.3892  0.5756 -1.0920
 1640TIP3    H226412   2.382   6.601  17.085  0.2974 -0.4693 -0.5320
 1641TIP3   OH226413   5.444   4.849  12.351 -0.0237 -0.2206  0.0599
 1641TIP3    H126414   5.486   4.785  12.294 -0.8257 -0.5054 -0.2336
 1641TIP3    H226415   5.504   4.923  12.353 -0.2027  0.0070 -1.5972
 1642TIP3   OH226416   6.054   1.885  16.292  0.2499 -0.2643  0.0703
 1642TIP3    H126417   6.043   1.790  16.288  0.3421 -0.2522 -0.5296
 1642TIP3    H226418   6.120   1.898  16.359  1.2438 -0.7095 -0.8010
 1643TIP3   OH226419   6.057   3.673   0.690  0.5144 -0.1582 -0.3134
 1643TIP3    H126420   6.130   3.624   0.653  0.1147 -2.2276  1.4172
 1643TIP3    H226421   5.980   3.621   0.667 -0.1208  0.5671  0.1524
 1644TIP3   OH226422   3.488   0.840  16.331 -0.6714 -1.0733  0.5356
 1644TIP3    H126423   3.394   0.828  16.315 -0.7958 -0.9282  1.1648
 1644TIP3    H226424   3.498   0.933  16.349 -0.2531 -0.8958 -0.4975
 1645TIP3   OH226425   4.348   5.776   1.044 -0.3318 -0.0951  0.2975
 1645TIP3    H126426   4.417   5.724   1.004 -0.1314  0.7535 -0.4996
 1645TIP3    H226427   4.272   5.718   1.046  0.3742 -1.0222  1.1398
 1646TIP3   OH226428   1.781   1.619   2.502  0.6301 -0.4267  0.3142
 1646TIP3    H126429   1.806   1.693   2.446  0.9058  0.3110  1.3812
 1646TIP3    H226430   1.704   1.649   2.550  0.2764 -1.1228  0.1978
 1647TIP3   OH226431   2.737   3.620   4.011  0.1627 -0.2672 -0.7910
 1647TIP3    H126432   2.644   3.639   4.026  0.4517  1.5596 -1.0696
 1647TIP3    H226433   2.749   3.531   4.044 -1.8195 -0.7975 -1.3492
 1648TIP3   OH226434   1.424   6.195   1.875  0.0223  0.4862  0.3246
 1648TIP3    H126435   1.382   6.276   1.848  0.5139  0.7265  0.2625
 1648TIP3    H226436   1.442   6.149   1.793  0.2047  0.5486  0.3298
 1649TIP3   OH226437   2.777   6.684  13.009  0.4436  0.0486 -0.5035
 1649TIP3    H126438   2.759   6.709  12.919 -1.4165 -0.6335 -0.3632
 1649TIP3    H226439   2.749   6.760  13.061  0.4246 -0.0081 -0.4314
 1650TIP3   OH226440   5.575   2.539   3.216  0.0888  0.0853  0.6076
 1650TIP3    H126441   5.582   2.604   3.146  1.1540 -0.0979  0.5221
 1650TIP3    H226442   5.651   2.481   3.203 -1.5238 -2.0049 -0.1266
 1651TIP3   OH226443   1.578   0.637   5.145  0.0911 -0.0859  0.5455
 1651TIP3    H126444   1.617   0.648   5.058  0.8635 -0.0542  0.8861
 1651TIP3    H226445   1.585   0.723   5.186  1.8100 -0.6119  1.4586
 1652TIP3   OH226446   1.648   3.000   1.235  0.2787  0.3857  0.1350
 1652TIP3    H126447   1.701   3.057   1.292  0.7916  1.1747 -1.0920
 1652TIP3    H226448   1.709   2.969   1.169 -0.3964 -0.2035 -0.2243
 1653TIP3   OH226449   5.426   6.558  16.868  0.0072  0.0308  0.1961
 1653TIP3    H126450   5.446   6.650  16.852 -2.9387  0.6381 -0.6056
 1653TIP3    H226451   5.491   6.509  16.818  1.1556  1.6720  0.0388
 1654TIP3   OH226452   6.022   2.793  15.438  0.2419 -0.0960  0.0562
 1654TIP3    H126453   5.994   2.705  15.463 -0.0662 -0.0960 -0.2746
 1654TIP3    H226454   6.007   2.796  15.343 -0.5613  0.6039  0.1988
 1655TIP3   OH226455   3.039   1.602   2.893 -0.4224  0.3842  0.1595
 1655TIP3    H126456   3.024   1.674   2.831 -3.5810 -2.1130 -2.3143
 1655TIP3    H226457   3.096   1.541   2.847  0.6234  0.3512  1.4444
 1656TIP3   OH226458   1.153   2.186   5.633  0.6596 -0.6361 -0.0611
 1656TIP3    H126459   1.177   2.163   5.723  1.4493  1.1639  0.2283
 1656TIP3    H226460   1.097   2.263   5.642  0.6280 -0.5259 -1.1049
 1657TIP3   OH226461   3.633   2.033   2.605  0.3203  0.6826 -0.5349
 1657TIP3    H126462   3.538   2.045   2.603  0.2061  0.7321  1.8004
 1657TIP3    H226463   3.645   1.943   2.634  0.9258  1.0826  0.5308
 1658TIP3   OH226464   6.604   0.747   0.185  0.1657 -0.1080 -0.5502
 1658TIP3    H126465   6.601   0.841   0.168 -1.9334 -0.2245 -1.1120
 1658TIP3    H226466   6.570   0.737   0.274  0.8993 -0.3084 -0.2848
 1659TIP3   OH226467   1.582   6.676  11.741  0.2098 -0.2625 -0.2196
 1659TIP3    H126468   1.514   6.729  11.783  0.6567 -1.3059  1.9441
 1659TIP3    H226469   1.538   6.595  11.717  0.0873  0.1173 -1.3321
 1660TIP3   OH226470   0.291   3.875  17.323  0.5336  0.1003  0.2680
 1660TIP3    H126471   0.231   3.805  17.346  0.6233 -0.1361 -0.2147
 1660TIP3    H226472   0.252   3.917  17.246  0.9008  0.0541  0.0564
 1661TIP3   OH226473   5.384   2.343   2.627 -0.0872 -0.1638 -0.4527
 1661TIP3    H126474   5.408   2.347   2.535  2.4662  1.3488  0.1865
 1661TIP3    H226475   5.369   2.434   2.653 -2.4872 -0.6838  0.3038
 1662TIP3   OH226476   0.893   5.921  12.319 -0.6876  0.6367 -0.5095
 1662TIP3    H126477   0.958   5.974  12.366 -0.0701  1.4457 -2.2151
 1662TIP3    H226478   0.820   5.914  12.380  1.1981 -0.9047  1.7857
 1663TIP3   OH226479   6.055   5.841   3.869 -0.2671  0.0265 -0.3029
 1663TIP3    H126480   5.991   5.902   3.907 -0.1217 -0.5412  0.8971
 1663TIP3    H226481   6.006   5.794   3.802 -0.8265  0.3430 -0.1231
 1664TIP3   OH226482   4.413   6.007  17.077  0.2400  0.0915 -0.1353
 1664TIP3    H126483   4.391   5.954  17.000 -0.2068  0.5298 -0.3125
 1664TIP3    H226484   4.490   6.057  17.051 -0.6494  1.1815 -0.7531
 1665TIP3   OH226485   6.501   5.690  11.849  0.5158 -0.4205 -0.3119
 1665TIP3    H126486   6.530   5.682  11.939  1.5602  2.5828 -0.2777
 1665TIP3    H226487   6.582   5.699  11.798 -0.0870 -1.2630 -1.4806
 1666TIP3   OH226488   0.377   3.946   4.343 -0.2814 -0.1038  0.1074
 1666TIP3    H126489   0.438   3.958   4.416 -1.2280 -1.1009  1.0926
 1666TIP3    H226490   0.394   4.021   4.285 -1.7701  2.7139  2.9749
 1667TIP3   OH226491   5.367   2.866  11.884  0.1457  0.3479 -0.0206
 1667TIP3    H126492   5.359   2.800  11.954 -0.7724 -0.2441 -0.6619
 1667TIP3    H226493   5.397   2.816  11.808 -0.2206  0.7317 -0.4219
 1668TIP3   OH226494   2.785   5.904   3.220 -0.1279 -0.0024 -1.0360
 1668TIP3    H126495   2.739   5.977   3.261 -0.4621  0.0444 -1.4850
 1668TIP3    H226496   2.716   5.854   3.176  0.3908  0.9219 -3.0281
 1669TIP3   OH226497   4.785   5.704   0.554 -0.6484  0.1556  0.5436
 1669TIP3    H126498   4.813   5.687   0.644 -2.0907 -2.2742  0.6425
 1669TIP3    H226499   4.845   5.654   0.500 -1.2680 -0.4057  0.3600
 1670TIP3   OH226500   0.471   3.402  16.618 -0.0310  0.2277  0.0774
 1670TIP3    H126501   0.420   3.334  16.575 -0.4561  0.4902  0.1529
 1670TIP3    H226502   0.441   3.483  16.577  1.4300  0.2664 -0.9605
 1671TIP3   OH226503   1.875   4.969   0.700  0.5352 -0.4004  0.1784
 1671TIP3    H126504   1.961   5.010   0.703  1.4675 -2.1115 -1.4302
 1671TIP3    H226505   1.876   4.916   0.621 -1.9268 -0.6633  0.2441
 1672TIP3   OH226506   4.484   2.392   2.274 -0.0150 -0.1019  0.2311
 1672TIP3    H126507   4.562   2.442   2.250  0.3570  0.0393  1.6393
 1672TIP3    H226508   4.434   2.451   2.331 -0.1193 -0.9324  1.0218
 1673TIP3   OH226509   1.662   2.232  16.005  0.3228 -0.3870  0.4079
 1673TIP3    H126510   1.611   2.282  16.069 -1.5413 -0.3883 -0.9988
 1673TIP3    H226511   1.730   2.292  15.976 -0.1719  0.3688  0.7870
 1674TIP3   OH226512   5.422   0.955   2.043  0.0663  0.0613 -0.3178
 1674TIP3    H126513   5.387   0.934   1.957  0.8446  1.3374 -0.9671
 1674TIP3    H226514   5.459   0.872   2.074 -1.9813 -0.9005 -0.3125
 1675TIP3   OH226515   3.658   6.447  15.562 -0.0455 -0.3692  0.6484
 1675TIP3    H126516   3.750   6.464  15.582 -0.0864 -0.9530  1.3606
 1675TIP3    H226517   3.626   6.530  15.527  0.9019 -0.3431 -0.1925
 1676TIP3   OH226518   4.811   1.821  13.543  0.2345  0.1812  0.6059
 1676TIP3    H126519   4.894   1.823  13.591  1.1809  0.7043 -0.9603
 1676TIP3    H226520   4.755   1.764  13.594  0.3030  2.6308  3.6671
 1677TIP3   OH226521   0.919   2.663   1.251 -0.0440  0.4547 -0.2133
 1677TIP3    H126522   1.003   2.699   1.278  0.2233  0.1457 -0.6206
 1677TIP3    H226523   0.855   2.730   1.275  0.1361  0.0786  1.4683
 1678TIP3   OH226524   2.283   4.667  15.573  0.5303 -0.5640  0.4436
 1678TIP3    H126525   2.366   4.619  15.565  1.2763  0.4424  1.7113
 1678TIP3    H226526   2.305   4.757  15.548 -0.6192 -0.6435 -0.9472
 1679TIP3   OH226527   1.322   1.177   4.774  0.9766 -0.8600 -0.5421
 1679TIP3    H126528   1.361   1.099   4.814  0.3177 -0.4168  1.0348
 1679TIP3    H226529   1.295   1.148   4.687  0.7032 -2.4196  0.0200
 1680TIP3   OH226530   4.342   5.034   2.415 -0.3094  0.5214  0.2872
 1680TIP3    H126531   4.400   5.075   2.351 -0.1140  0.1735  0.2416
 1680TIP3    H226532   4.395   4.965   2.455 -0.4736  0.6471  0.7275
 1681TIP3   OH226533   0.199   4.964  16.675  0.0043  0.6183 -0.3678
 1681TIP3    H126534   0.200   5.054  16.708  0.6980  0.5782 -0.2527
 1681TIP3    H226535   0.133   4.964  16.606 -0.7626  0.9478  0.3568
 1682TIP3   OH226536   5.106   3.143   4.866  0.1867  0.0986  0.3875
 1682TIP3    H126537   5.155   3.061   4.873  2.6110  1.3071 -1.1307
 1682TIP3    H226538   5.104   3.162   4.773  1.4267  2.7244  0.8228
 1683TIP3   OH226539   5.383   3.353   4.060  0.4539  0.1911 -0.5008
 1683TIP3    H126540   5.400   3.274   4.111  2.8871  1.5525  1.0270
 1683TIP3    H226541   5.301   3.336   4.014 -0.1814 -2.3810  1.3884
 1684TIP3   OH226542   0.862   4.962  13.601 -0.3087  0.0700  0.1478
 1684TIP3    H126543   0.916   4.884  13.589  2.8258  2.3909 -2.8013
 1684TIP3    H226544   0.779   4.940  13.558  0.7052 -1.4737 -1.1391
 1685TIP3   OH226545   0.940   1.422  12.719  0.7077 -0.0073  0.0765
 1685TIP3    H126546   1.030   1.443  12.697  1.1478  0.8364  2.4052
 1685TIP3    H226547   0.943   1.331  12.749  0.6605 -0.1563 -0.3570
 1686TIP3   OH226548   5.962   5.983   5.495  0.1241  0.8002  0.2758
 1686TIP3    H126549   5.886   6.020   5.449  1.5995  2.1092 -1.2278
 1686TIP3    H226550   6.025   5.964   5.426  0.2586 -2.7635  1.1901
 1687TIP3   OH226551   3.777   5.919  11.232  0.1863 -0.1124  0.4748
 1687TIP3    H126552   3.870   5.936  11.245  0.3423 -2.3315  3.2946
 1687TIP3    H226553   3.734   6.002  11.254  1.3849  0.2271  1.6756
 1688TIP3   OH226554   5.008   5.506  14.766  0.1954 -0.4224 -0.3229
 1688TIP3    H126555   4.969   5.426  14.732 -0.8148  1.8286 -5.2450
 1688TIP3    H226556   5.101   5.496  14.750  0.1173 -0.7178 -0.5932
 1689TIP3   OH226557   1.093   0.271   1.732 -0.1770  0.3270  0.1226
 1689TIP3    H126558   1.035   0.339   1.697 -0.0246  0.9107  0.9883
 1689TIP3    H226559   1.038   0.223   1.794 -0.6545 -1.1493 -1.3618
 1690TIP3   OH226560   6.510   5.248  13.703  0.4932  0.5843 -0.1862
 1690TIP3    H126561   6.571   5.275  13.634  0.5414 -0.1173 -0.4304
 1690TIP3    H226562   6.476   5.164  13.673 -0.6277  0.9808 -0.0686
 1691TIP3   OH226563   1.151   6.818  15.310 -0.5564  0.6923  0.1570
 1691TIP3    H126564   1.180   6.906  15.334  0.4551  0.9217 -1.7221
 1691TIP3    H226565   1.069   6.806  15.357  0.4630  1.6811  2.3516
 1692TIP3   OH226566   3.756   1.578  16.725 -0.5834 -0.3880  0.5651
 1692TIP3    H126567   3.687   1.560  16.661 -0.5447  1.1736  0.0401
 1692TIP3    H226568   3.833   1.598  16.673  0.0246 -1.1374  1.1473
 1693TIP3   OH226569   0.709   4.145   3.688  0.1476  0.1964 -0.0281
 1693TIP3    H126570   0.736   4.107   3.605 -2.2090  0.2734 -0.9120
 1693TIP3    H226571   0.783   4.199   3.715  1.8092 -1.4990 -0.9673
 1694TIP3   OH226572   4.479   3.546   5.070  0.1733  0.1057 -0.1143
 1694TIP3    H126573   4.458   3.453   5.063  0.2138  0.1288 -0.5808
 1694TIP3    H226574   4.513   3.556   5.159  0.8974 -0.4789 -0.3086
 1695TIP3   OH226575   0.487   5.010  13.923 -0.5204  0.0706  0.0804
 1695TIP3    H126576   0.474   4.953  13.847 -2.4589  1.1067 -0.4392
 1695TIP3    H226577   0.513   4.951  13.994  1.5297 -0.8983 -1.3842
 1696TIP3   OH226578   2.766   1.450  14.725 -0.2431 -0.2071 -0.4470
 1696TIP3    H126579   2.697   1.392  14.693  0.1422 -0.7486 -0.3013
 1696TIP3    H226580   2.847   1.406  14.701  0.0949 -1.1093  2.0247
 1697TIP3   OH226581   5.308   2.288   4.648  0.2391 -0.1717  0.2273
 1697TIP3    H126582   5.236   2.280   4.586 -0.6426 -0.4229  1.2364
 1697TIP3    H226583   5.343   2.199   4.655  0.3974 -0.1255  0.0239
 1698TIP3   OH226584   2.264   3.287   6.330 -0.3808  0.2028 -0.4553
 1698TIP3    H126585   2.330   3.234   6.286  0.0217  0.9146 -0.7264
 1698TIP3    H226586   2.231   3.232   6.401 -0.1627 -0.4978 -0.8965
 1699TIP3   OH226587   3.853   2.215  15.916 -0.3911 -0.7091  0.1438
 1699TIP3    H126588   3.779   2.183  15.863  0.0089  0.9948 -1.5617
 1699TIP3    H226589   3.814   2.282  15.973 -0.2213  0.0925 -0.6596
 1700TIP3   OH226590   3.228   5.276  11.679 -0.4047  0.1264  0.8037
 1700TIP3    H126591   3.153   5.217  11.672 -0.5318  0.5161 -2.9896
 1700TIP3    H226592   3.191   5.360  11.704 -1.5959  0.6633 -2.3642
 1701TIP3   OH226593   1.671   4.718   3.443  0.3927 -0.1237  0.2540
 1701TIP3    H126594   1.731   4.669   3.385  2.3569  2.9832 -0.5662
 1701TIP3    H226595   1.604   4.752   3.385  1.2732  1.3808  0.0781
 1702TIP3   OH226596   5.031   0.592   5.003 -0.3237 -0.2505 -0.2187
 1702TIP3    H126597   5.089   0.587   5.079  0.1614 -1.4917 -0.6554
 1702TIP3    H226598   4.982   0.673   5.016 -0.8719 -0.8701  1.8711
 1703TIP3   OH226599   2.516   5.762   4.754  0.1681  0.1649  0.5315
 1703TIP3    H126600   2.473   5.847   4.745  2.2283  1.3517  1.0670
 1703TIP3    H226601   2.505   5.720   4.669 -0.6253  1.1008  0.1472
 1704TIP3   OH226602   5.366   4.300  15.006 -0.8853  0.0975 -0.0672
 1704TIP3    H126603   5.407   4.287  15.091 -1.7280  0.2249  0.3746
 1704TIP3    H226604   5.332   4.214  14.982 -0.7299  0.0812 -0.2262
 1705TIP3   OH226605   0.733   3.785  13.439 -0.0101 -0.4630 -0.1139
 1705TIP3    H126606   0.654   3.833  13.413 -1.0694 -1.3702  1.2654
 1705TIP3    H226607   0.801   3.816  13.379 -1.2048  0.9831 -0.7813
 1706TIP3   OH226608   5.735   5.219   5.585 -0.1872 -0.1149 -0.8944
 1706TIP3    H126609   5.728   5.310   5.612 -0.4116 -0.9256  2.1491
 1706TIP3    H226610   5.809   5.218   5.525  1.7702  1.6905  1.2634
 1707TIP3   OH226611   6.539   0.700  12.499  0.4614  1.0212  0.3110
 1707TIP3    H126612   6.579   0.614  12.484  0.3991  0.7631  1.5667
 1707TIP3    H226613   6.539   0.741  12.412  0.3527 -0.3030 -0.3510
 1708TIP3   OH226614   5.568   0.530  13.784 -0.0105  0.3479  1.7311
 1708TIP3    H126615   5.608   0.583  13.714  0.6298 -0.2734  1.6069
 1708TIP3    H226616   5.474   0.532  13.765  0.2055 -0.3449  0.4461
 1709TIP3   OH226617   3.123   6.335   4.683  0.4994  0.1212  0.3313
 1709TIP3    H126618   3.190   6.269   4.703  1.1342  0.5697 -0.2465
 1709TIP3    H226619   3.053   6.318   4.746  0.5170 -1.2789  0.0008
 1710TIP3   OH226620   4.538   0.857   0.062 -0.2270  0.0032 -0.3287
 1710TIP3    H126621   4.608   0.920   0.077  0.0475 -0.4947  0.5311
 1710TIP3    H226622   4.568   0.805  -0.013  0.1105  0.0905 -0.2522
 1711TIP3   OH226623   0.299   0.874   3.428 -0.2700 -0.4036 -0.4659
 1711TIP3    H126624   0.275   0.967   3.426 -1.0265 -0.6021 -0.7302
 1711TIP3    H226625   0.293   0.850   3.520  1.2635  0.1411 -0.1934
 1712TIP3   OH226626   0.567   5.944  11.177 -0.0487  0.5811  0.0913
 1712TIP3    H126627   0.478   5.972  11.153  0.5366  0.9313 -1.8457
 1712TIP3    H226628   0.612   5.936  11.093  1.7020  0.2125  1.0388
 1713TIP3   OH226629   5.188   0.112   0.794  0.2593 -0.0124 -0.4627
 1713TIP3    H126630   5.149   0.025   0.797  0.4596 -0.0989 -0.3486
 1713TIP3    H226631   5.153   0.152   0.715 -0.0905 -0.0751 -0.3403
 1714TIP3   OH226632   4.979   0.955  13.345 -0.8410  0.0452 -0.4748
 1714TIP3    H126633   4.915   0.904  13.396 -3.5105  0.8640 -2.7238
 1714TIP3    H226634   4.979   1.041  13.386 -0.6304 -0.1514 -0.0516
 1715TIP3   OH226635   3.204   4.070  14.743  0.5939  0.1920 -0.1269
 1715TIP3    H126636   3.128   4.051  14.799  1.1269 -1.5239  0.0724
 1715TIP3    H226637   3.268   4.003  14.766  2.0943  1.4613 -0.4758
 1716TIP3   OH226638   3.178   4.464  17.319  0.1762  0.4436 -0.3523
 1716TIP3    H126639   3.146   4.552  17.299  0.5995  0.7505  0.2513
 1716TIP3    H226640   3.200   4.468  17.412  1.5628  0.1325 -0.6463
 1717TIP3   OH226641   6.112   1.127   6.159 -0.0012 -0.3472 -0.3222
 1717TIP3    H126642   6.054   1.124   6.236  0.2460  0.0240 -0.1176
 1717TIP3    H226643   6.139   1.219   6.153  0.5431 -0.5111 -0.4316
 1718TIP3   OH226644   3.393   6.517  12.488 -0.1760 -0.1268  0.2102
 1718TIP3    H126645   3.336   6.488  12.559  0.5764  0.9095  1.2645
 1718TIP3    H226646   3.478   6.532  12.529  1.0275 -2.0123 -1.3874
 1719TIP3   OH226647   4.863   5.307  17.194 -0.7058  0.0522 -0.1715
 1719TIP3    H126648   4.847   5.226  17.144  0.8948  0.6588 -1.7489
 1719TIP3    H226649   4.779   5.354  17.190 -0.7679 -0.1308 -1.9541
 1720TIP3   OH226650   4.450   3.131  15.387 -0.1839 -0.1954 -0.2118
 1720TIP3    H126651   4.385   3.099  15.449 -0.0375 -0.4396 -0.1834
 1720TIP3    H226652   4.534   3.113  15.428 -0.0572 -1.0982 -0.8220
 1721TIP3   OH226653   0.232   3.107   5.437  0.2591  0.0956  0.0396
 1721TIP3    H126654   0.271   3.187   5.402  0.1940  0.6197  1.1539
 1721TIP3    H226655   0.143   3.132   5.461 -0.2488 -0.6798 -0.9211
 1722TIP3   OH226656   3.114   3.178   0.176  0.0760 -0.4491  0.1859
 1722TIP3    H126657   3.073   3.253   0.134  1.5624 -0.7293 -1.9431
 1722TIP3    H226658   3.178   3.147   0.112  1.7518 -1.5902  2.2595
 1723TIP3   OH226659   4.257   2.853  12.615  0.1683 -0.1076 -0.0550
 1723TIP3    H126660   4.245   2.767  12.657  1.1787  0.1503  0.7835
 1723TIP3    H226661   4.211   2.845  12.532  0.1528 -1.4326  0.0598
 1724TIP3   OH226662   6.089   6.153  16.009  0.3462 -0.0641 -0.4267
 1724TIP3    H126663   6.148   6.105  16.067  1.0595  1.4587  0.1478
 1724TIP3    H226664   6.007   6.104  16.012  0.1778  0.2523  2.2958
 1725TIP3   OH226665   6.619   1.733  12.050 -0.5822 -0.0629  1.3733
 1725TIP3    H126666   6.676   1.723  12.127 -0.3758  0.9358  1.3568
 1725TIP3    H226667   6.577   1.818  12.061 -0.3729  0.2002  0.2702
 1726TIP3   OH226668   5.065   6.116  10.886 -0.3675  0.3052  0.1329
 1726TIP3    H126669   5.141   6.062  10.864 -1.1385 -0.4369 -0.7819
 1726TIP3    H226670   5.008   6.110  10.809 -0.9788  1.5389  0.4598
 1727TIP3   OH226671   0.078   0.389   1.182 -0.0471 -0.1834 -0.0981
 1727TIP3    H126672   0.015   0.318   1.191 -1.2580  1.1005  2.6505
 1727TIP3    H226673   0.026   0.465   1.157  0.7738  0.3989 -0.0796
 1728TIP3   OH226674   1.123   3.444  12.620 -0.0487  0.5571  0.1477
 1728TIP3    H126675   1.116   3.489  12.536 -0.9083 -1.6151 -1.0240
 1728TIP3    H226676   1.159   3.357  12.598 -2.7749 -1.0664  1.5724
 1729TIP3   OH226677   4.658   2.624   4.283 -0.0150 -0.0452 -0.5724
 1729TIP3    H126678   4.713   2.554   4.248  1.0045  1.4990 -2.1637
 1729TIP3    H226679   4.702   2.652   4.363 -0.6197 -1.3820  0.2855
 1730TIP3   OH226680   0.306   5.276   5.262  0.2842  0.0709  0.1108
 1730TIP3    H126681   0.247   5.260   5.188  0.1215  1.2878 -0.0484
 1730TIP3    H226682   0.333   5.368   5.251  3.0961 -0.7408 -0.4393
 1731TIP3   OH226683   1.122   1.856  13.220 -0.3670 -0.2802 -0.4996
 1731TIP3    H126684   1.031   1.828  13.215 -0.4073  0.0675 -2.4736
 1731TIP3    H226685   1.117   1.952  13.226 -0.1363 -0.2927 -0.0742
 1732TIP3   OH226686   1.935   2.305   6.516  0.0231  0.2986 -0.4179
 1732TIP3    H126687   1.969   2.258   6.592 -0.4369 -1.0863 -1.0340
 1732TIP3    H226688   1.927   2.238   6.448 -1.1654  1.1612 -1.1722
 1733TIP3   OH226689   6.488   4.146  11.781  0.1640  0.2815 -0.7982
 1733TIP3    H126690   6.542   4.119  11.855 -0.5505  2.2880  0.5344
 1733TIP3    H226691   6.404   4.168  11.819 -0.8430 -0.3815 -2.5057
 1734TIP3   OH226692   2.068   1.172  14.235 -0.3908 -0.1304 -0.3188
 1734TIP3    H126693   1.973   1.182  14.235 -0.4882 -0.6950 -2.1904
 1734TIP3    H226694   2.083   1.078  14.224  0.3905 -0.0362 -0.1357
 1735TIP3   OH226695   5.131   4.498   1.482  0.4943  0.5655  0.6385
 1735TIP3    H126696   5.077   4.560   1.531 -0.2073  0.7846 -0.3779
 1735TIP3    H226697   5.094   4.412   1.504 -0.9778  0.7742 -0.8307
 1736TIP3   OH226698   4.303   1.148   5.052  0.0458  0.0032  0.3431
 1736TIP3    H126699   4.360   1.176   4.981 -1.0811 -0.3453 -0.7228
 1736TIP3    H226700   4.269   1.063   5.025 -0.2742 -0.2230  1.3816
 1737TIP3   OH226701   2.116   1.084   3.175 -0.1412  0.1243  0.1597
 1737TIP3    H126702   2.120   0.989   3.185 -1.3773  0.1031  0.6459
 1737TIP3    H226703   2.191   1.105   3.120 -0.4052 -1.2619 -0.8069
 1738TIP3   OH226704   2.474   3.775   0.706  0.1997  0.1880  0.6912
 1738TIP3    H126705   2.413   3.729   0.762 -0.6143 -1.9478 -1.7475
 1738TIP3    H226706   2.507   3.708   0.646 -0.0714  2.4800 -2.2653
 1739TIP3   OH226707   6.189   5.570  15.778 -0.1640  0.7042 -0.0947
 1739TIP3    H126708   6.140   5.520  15.844  1.0362 -0.5040 -0.0789
 1739TIP3    H226709   6.187   5.660  15.810 -1.5400  0.5352  0.3938
 1740TIP3   OH226710   3.166   5.477   2.210  0.2295 -0.1866  0.2787
 1740TIP3    H126711   3.092   5.491   2.269  0.1137 -0.0590  0.1038
 1740TIP3    H226712   3.207   5.397   2.242  0.3435  0.0432  0.7138
 1741TIP3   OH226713   6.231   5.565  14.953 -0.2722 -0.3305  0.2994
 1741TIP3    H126714   6.219   5.642  15.008  1.1479 -0.3171  0.6373
 1741TIP3    H226715   6.156   5.566  14.894 -1.3247  0.1961  1.5816
 1742TIP3   OH226716   3.104   6.258  13.430 -0.0850 -0.4511  0.3093
 1742TIP3    H126717   3.108   6.293  13.341  2.7342 -1.7110 -0.1712
 1742TIP3    H226718   3.123   6.333  13.486 -0.7808  0.1139 -0.1815
 1743TIP3   OH226719   0.254   6.002   4.547  0.3578 -0.0306 -0.3737
 1743TIP3    H126720   0.337   6.031   4.586  0.6226 -0.1448 -0.8390
 1743TIP3    H226721   0.190   6.007   4.618  0.8609 -0.3695  0.1087
 1744TIP3   OH226722   2.808   3.971   2.131  0.4789 -0.4947  0.3226
 1744TIP3    H126723   2.837   3.896   2.185 -0.6884 -0.3352  1.2151
 1744TIP3    H226724   2.739   3.935   2.076 -0.5641  0.0487  1.2369
 1745TIP3   OH226725   4.097   4.232  11.664 -0.2100  0.4781  0.5578
 1745TIP3    H126726   4.162   4.302  11.664  0.6953 -0.3332  0.6094
 1745TIP3    H226727   4.121   4.178  11.740 -0.5348 -0.1951  0.1859
 1746TIP3   OH226728   4.351   2.488  14.279  0.7809 -0.2864 -0.4693
 1746TIP3    H126729   4.295   2.415  14.305  0.1150  0.2961 -0.2358
 1746TIP3    H226730   4.339   2.554  14.347  0.5191  0.4820 -1.2387
 1747TIP3   OH226731   0.944   2.360  12.491 -0.0991  0.4451 -0.3620
 1747TIP3    H126732   0.917   2.273  12.522  0.4529  0.2581 -0.4009
 1747TIP3    H226733   1.037   2.365  12.512 -0.3243  1.3853  0.4683
 1748TIP3   OH226734   2.915   0.141  16.678  0.0389 -0.2072 -0.1574
 1748TIP3    H126735   2.889   0.082  16.607  1.9815  0.2019 -1.2722
 1748TIP3    H226736   2.941   0.083  16.749 -0.8841 -0.6332 -0.1432
 1749TIP3   OH226737   5.331   1.123  14.971 -0.6834 -0.5231 -0.3872
 1749TIP3    H126738   5.375   1.080  14.897  1.3987 -0.6518  0.8516
 1749TIP3    H226739   5.255   1.067  14.989 -0.9318 -0.7818 -2.0556
 1750TIP3   OH226740   0.184   2.426   3.094 -0.4517 -0.7020  0.3564
 1750TIP3    H126741   0.265   2.429   3.144 -0.0433  1.1755 -0.3220
 1750TIP3    H226742   0.192   2.348   3.040  0.7126 -0.7816  0.6174
 1751TIP3   OH226743   5.071   6.730  12.807 -0.3379 -0.1514 -0.0097
 1751TIP3    H126744   5.147   6.752  12.861 -0.0708 -0.4578 -0.2575
 1751TIP3    H226745   4.997   6.736  12.867 -0.1091  0.0689  0.2556
 1752TIP3   OH226746   4.914   1.396   5.973 -0.4857 -0.2488  0.0293
 1752TIP3    H126747   4.826   1.429   5.992  0.1637  1.5585  0.0578
 1752TIP3    H226748   4.899   1.317   5.921 -2.1168  0.0731 -0.0516
 1753TIP3   OH226749   0.257   2.115   0.488  0.4098 -0.8663 -0.5063
 1753TIP3    H126750   0.223   2.193   0.444  0.9177 -0.2117  0.2284
 1753TIP3    H226751   0.242   2.132   0.581  2.1450 -0.8366 -0.2069
 1754TIP3   OH226752   2.886   3.574  14.477 -0.3533 -0.0604 -0.4182
 1754TIP3    H126753   2.866   3.484  14.502  0.2070 -0.2119 -0.5146
 1754TIP3    H226754   2.853   3.627  14.549  0.5677 -0.4398  0.2959
 1755TIP3   OH226755   3.028   5.166  14.618 -0.5941  0.3326 -0.5393
 1755TIP3    H126756   2.969   5.163  14.544 -1.7280 -1.7519  0.3837
 1755TIP3    H226757   3.079   5.085  14.613 -1.0743 -0.1347  1.2012
 1756TIP3   OH226758   5.381   2.686  11.685  0.2008 -0.2412  0.3405
 1756TIP3    H126759   5.368   2.593  11.665 -0.6435 -0.3949  1.4806
 1756TIP3    H226760   5.341   2.733  11.612  0.2968 -0.7689 -0.0570
 1757TIP3   OH226761   3.972   0.702  12.189  0.4964  0.2608  0.2750
 1757TIP3    H126762   3.956   0.783  12.237 -1.5780  0.7673 -1.1411
 1757TIP3    H226763   3.932   0.634  12.244  0.2480  0.5084  0.4052
 1758TIP3   OH226764   2.116   4.785  12.613 -0.3511 -0.3305  0.1299
 1758TIP3    H126765   2.144   4.866  12.654  0.9096 -0.9280  0.4803
 1758TIP3    H226766   2.052   4.812  12.547  0.6670  1.0274 -0.3281
 1759TIP3   OH226767   6.638   4.628  11.422  0.3472  0.0961  0.9343
 1759TIP3    H126768   6.687   4.650  11.344  1.4484 -0.0582  1.5642
 1759TIP3    H226769   6.574   4.563  11.393 -0.6723  1.5540 -0.2390
 1760TIP3   OH226770   1.948   0.399   3.829 -0.3354  0.0043 -0.0234
 1760TIP3    H126771   1.932   0.425   3.920  1.6837  2.8225 -0.3521
 1760TIP3    H226772   1.891   0.456   3.777 -0.6647 -0.8217 -0.5972
 1761TIP3   OH226773   1.215   3.318   0.219 -0.6774  0.5502 -0.6588
 1761TIP3    H126774   1.229   3.338   0.312  0.5601  0.4123 -0.7936
 1761TIP3    H226775   1.240   3.226   0.211 -1.1992  0.4388 -1.0535
 1762TIP3   OH226776   5.070   3.904  16.217 -0.0503  0.0111  0.5109
 1762TIP3    H126777   5.091   3.986  16.173 -1.8062  0.3601  0.2791
 1762TIP3    H226778   4.977   3.910  16.237  0.1297 -1.2732  1.9037
 1763TIP3   OH226779   5.541   1.885   1.385  0.3250  0.2238  0.1836
 1763TIP3    H126780   5.610   1.880   1.451  2.0267  2.4713 -1.2772
 1763TIP3    H226781   5.468   1.927   1.429  1.3192  1.3891  0.7583
 1764TIP3   OH226782   4.950   4.246  15.938  0.0676 -0.0001 -0.7140
 1764TIP3    H126783   5.027   4.233  15.994 -1.2839 -1.9706  0.8285
 1764TIP3    H226784   4.897   4.310  15.985 -0.9304 -1.4348  0.1775
 1765TIP3   OH226785   1.029   2.140  14.620  0.4922 -0.9329 -0.0372
 1765TIP3    H126786   1.091   2.067  14.618  1.5784 -0.1165  1.6524
 1765TIP3    H226787   1.075   2.211  14.576 -0.6324 -1.2592 -1.8424
 1766TIP3   OH226788   1.837   0.431  16.465  0.0297  0.6331  0.5068
 1766TIP3    H126789   1.838   0.349  16.514  1.5096  0.2919 -0.0457
 1766TIP3    H226790   1.861   0.498  16.529 -1.6206  0.7402  1.0637
 1767TIP3   OH226791   2.559   0.214   2.045  0.4281 -0.9651  0.0402
 1767TIP3    H126792   2.644   0.252   2.065  0.0546 -0.2716  0.3549
 1767TIP3    H226793   2.570   0.176   1.958  0.4726  1.0485 -0.8946
 1768TIP3   OH226794   3.358   4.119   4.845 -0.0797 -0.2751 -0.3870
 1768TIP3    H126795   3.421   4.049   4.830 -0.3759 -0.2802 -1.7512
 1768TIP3    H226796   3.280   4.075   4.877  0.0709 -0.4514 -0.2606
 1769TIP3   OH226797   2.367   5.497   1.579 -0.2849  0.4612 -0.6259
 1769TIP3    H126798   2.273   5.482   1.569  0.0258 -0.6896 -2.1105
 1769TIP3    H226799   2.381   5.584   1.543 -0.8048  0.7310 -0.1911
 1770TIP3   OH226800   6.442   5.376  11.596 -0.0806 -0.4362  0.1708
 1770TIP3    H126801   6.432   5.440  11.525 -3.8644 -1.8521 -0.8175
 1770TIP3    H226802   6.432   5.291  11.553  1.1469 -1.5705  1.9692
 1771TIP3   OH226803   0.348   2.561  12.817 -0.7159  0.2347  0.1435
 1771TIP3    H126804   0.442   2.551  12.833 -0.4266 -0.5045 -1.7243
 1771TIP3    H226805   0.332   2.513  12.736 -2.3650  1.9453 -0.6320
 1772TIP3   OH226806   6.671   2.674   6.346  0.2320 -0.6697  0.3916
 1772TIP3    H126807   6.590   2.700   6.301  0.2556 -1.2768 -0.0116
 1772TIP3    H226808   6.642   2.653   6.435 -0.0545 -0.8271  0.2669
 1773TIP3   OH226809   6.465   4.037  16.738 -0.5020  0.0578 -0.8837
 1773TIP3    H126810   6.515   4.118  16.743 -0.6217  0.0706  0.4683
 1773TIP3    H226811   6.510   3.984  16.672  0.8203  0.3782 -0.2539
 1774TIP3   OH226812   2.456   5.707   5.045 -0.3391 -0.0996 -0.3774
 1774TIP3    H126813   2.444   5.730   4.953  1.6460 -2.3001 -1.3049
 1774TIP3    H226814   2.547   5.731   5.065  0.1083 -1.9810  0.1355
 1775TIP3   OH226815   6.596   4.216   3.400 -0.0204 -0.4361 -0.1963
 1775TIP3    H126816   6.646   4.156   3.455 -1.6168 -0.2327  1.5866
 1775TIP3    H226817   6.649   4.296   3.397  0.3567 -0.6418  0.6178
 1776TIP3   OH226818   0.569   0.280  11.435 -0.5712  0.8938 -0.3772
 1776TIP3    H126819   0.625   0.348  11.398 -0.6166  1.2718  0.2202
 1776TIP3    H226820   0.535   0.319  11.516  1.6308 -0.8165  1.5280
 1777TIP3   OH226821   0.313   2.920   4.501  0.0544 -0.1169 -0.1991
 1777TIP3    H126822   0.368   2.907   4.424  0.4827 -0.1436  0.1058
 1777TIP3    H226823   0.344   3.002   4.540 -0.9028  0.4900 -0.6682
 1778TIP3   OH226824   0.389   3.894  13.668 -0.2651  0.6111 -0.1270
 1778TIP3    H126825   0.461   3.888  13.731  0.7888  2.9785 -0.9917
 1778TIP3    H226826   0.387   3.807  13.627  0.4045 -0.3065  1.6534
 1779TIP3   OH226827   1.977   4.456  16.467 -0.6988  0.2381 -0.6330
 1779TIP3    H126828   1.928   4.386  16.425  0.0351 -0.7547  0.1212
 1779TIP3    H226829   2.010   4.510  16.395 -1.4548 -0.0670 -1.2088
 1780TIP3   OH226830   1.350   6.738   2.067 -0.2721  0.1166  0.4567
 1780TIP3    H126831   1.326   6.831   2.069  2.7841  1.1011 -1.4964
 1780TIP3    H226832   1.315   6.706   1.984 -2.2393 -0.8749  1.5897
 1781TIP3   OH226833   2.892   4.265   5.865 -0.5551 -0.0895 -0.2928
 1781TIP3    H126834   2.935   4.349   5.875  0.3493 -0.2471 -2.4031
 1781TIP3    H226835   2.902   4.222   5.950 -0.8417  1.8096  0.7466
 1782TIP3   OH226836   6.330   3.636  16.967 -0.4069 -0.0271  0.4114
 1782TIP3    H126837   6.419   3.603  16.979 -0.3517 -0.4947 -1.0907
 1782TIP3    H226838   6.279   3.591  17.034  0.4764  0.2426  1.2903
 1783TIP3   OH226839   6.441   1.161  16.285  0.7351  0.1677 -0.3701
 1783TIP3    H126840   6.450   1.195  16.374 -0.1990 -0.0009 -0.2004
 1783TIP3    H226841   6.443   1.239  16.230  1.1920  0.2835 -0.1916
 1784TIP3   OH226842   5.847   2.104  14.834 -0.2398  0.3313  0.1052
 1784TIP3    H126843   5.938   2.120  14.859 -0.4991  2.0713  0.0464
 1784TIP3    H226844   5.821   2.029  14.887  0.8807  0.5183  0.9636
 1785TIP3   OH226845   2.002   1.192   0.196  0.7141  0.5484  0.5211
 1785TIP3    H126846   1.988   1.192   0.290  3.1489 -0.1666  0.9313
 1785TIP3    H226847   1.987   1.101   0.169 -0.9546  0.9383  0.0072
 1786TIP3   OH226848   0.110   4.370   2.978 -0.3330  0.9022 -0.3810
 1786TIP3    H126849   0.152   4.338   3.058  0.1921  2.1684 -0.1325
 1786TIP3    H226850   0.076   4.291   2.936  1.8219 -0.1324 -0.3106
 1787TIP3   OH226851   1.156   1.247   4.202  0.0008  0.1229  0.2282
 1787TIP3    H126852   1.069   1.223   4.232  0.7436 -2.2997  0.7209
 1787TIP3    H226853   1.202   1.275   4.281 -0.5599  2.3411 -0.1834
 1788TIP3   OH226854   5.800   0.154   1.027  0.3520 -0.3608  0.0119
 1788TIP3    H126855   5.808   0.230   0.970 -0.3059  0.1721  0.6047
 1788TIP3    H226856   5.711   0.160   1.063  0.9525 -0.3297  1.5618
 1789TIP3   OH226857   1.062   1.918   3.145  0.1687  0.0031  0.0604
 1789TIP3    H126858   0.984   1.865   3.132  1.3400 -1.7975  0.1097
 1789TIP3    H226859   1.045   1.965   3.227 -0.2725 -1.4705  0.8437
 1790TIP3   OH226860   1.289   1.335   0.764 -0.1649 -0.0846  0.0534
 1790TIP3    H126861   1.337   1.371   0.690 -0.1624 -0.1918  0.0026
 1790TIP3    H226862   1.306   1.241   0.760 -0.1830 -0.0933  0.1769
 1791TIP3   OH226863   1.746   5.383  11.808 -0.1788 -0.3980 -0.1678
 1791TIP3    H126864   1.661   5.389  11.852  0.1691  1.1373  0.3780
 1791TIP3    H226865   1.753   5.292  11.781 -2.0619 -0.5278 -0.3493
 1792TIP3   OH226866   2.318   1.676  12.977  0.3857  0.0980 -0.0553
 1792TIP3    H126867   2.273   1.597  12.947 -0.0563 -0.0941  1.0695
 1792TIP3    H226868   2.265   1.707  13.050  1.1517  0.8444  0.1943
 1793TIP3   OH226869   0.054   4.219   5.075 -0.0051 -0.4517  0.3638
 1793TIP3    H126870  -0.017   4.241   5.015  0.8833 -0.1367 -0.6038
 1793TIP3    H226871   0.132   4.261   5.038  0.8923 -1.6041  0.8478
 1794TIP3   OH226872   4.293   2.653   4.527  0.0000 -0.0583 -0.7210
 1794TIP3    H126873   4.202   2.652   4.498 -0.2039 -0.6433 -0.0686
 1794TIP3    H226874   4.307   2.742   4.559 -0.2886  0.0786 -0.9669
 1795TIP3   OH226875   5.487   2.338   5.304 -0.2422  0.2878  0.0146
 1795TIP3    H126876   5.493   2.291   5.387 -0.1794 -1.6348 -1.0319
 1795TIP3    H226877   5.559   2.304   5.251 -1.7409 -0.3899 -1.6959
 1796TIP3   OH226878   0.915   0.858  15.186  0.2095  0.1131 -0.0981
 1796TIP3    H126879   0.981   0.896  15.244  2.8049 -4.1700  0.1746
 1796TIP3    H226880   0.953   0.866  15.098 -0.9147  1.2036 -0.5225
 1797TIP3   OH226881   2.873   4.120   0.502 -0.1894  0.4252 -0.2018
 1797TIP3    H126882   2.839   4.189   0.559  0.0056  1.4386 -1.2720
 1797TIP3    H226883   2.801   4.100   0.443  0.9338  2.6555 -2.5492
 1798TIP3   OH226884   3.792   1.476   5.668 -0.5573 -0.5923  0.3897
 1798TIP3    H126885   3.816   1.565   5.642 -0.5601 -0.9835 -1.0192
 1798TIP3    H226886   3.805   1.475   5.763  1.1920  0.3818  0.2131
 1799TIP3   OH226887   4.661   4.641  16.633  0.2697  0.1139 -0.7132
 1799TIP3    H126888   4.667   4.600  16.546 -2.2843 -0.0351 -0.9184
 1799TIP3    H226889   4.574   4.681  16.633 -0.7712 -1.7953  2.5249
 1800TIP3   OH226890   2.724   5.404  15.290  0.0267  0.1402 -0.0167
 1800TIP3    H126891   2.718   5.324  15.343  1.1861 -0.7107 -1.0951
 1800TIP3    H226892   2.668   5.467  15.335 -0.6321 -1.1646  1.0741
 1801TIP3   OH226893   4.731   2.670  16.736 -0.0811  0.4544 -0.2590
 1801TIP3    H126894   4.789   2.698  16.807  2.0106 -1.9956 -0.8725
 1801TIP3    H226895   4.643   2.689  16.769  0.7761 -0.6633  3.0965
 1802TIP3   OH226896   6.775   2.816   0.358  0.0199  0.2322  0.4285
 1802TIP3    H126897   6.715   2.799   0.285  1.4141 -2.4834 -0.2076
 1802TIP3    H226898   6.722   2.864   0.422 -2.0970  0.0649 -1.1072
 1803TIP3   OH226899   1.832   1.077  17.254 -0.0920  0.3470  0.0705
 1803TIP3    H126900   1.917   1.034  17.269 -0.9342 -1.2745  0.4436
 1803TIP3    H226901   1.801   1.040  17.172 -0.8509  0.2272  0.4033
 1804TIP3   OH226902   5.531   2.615  17.232  0.4947  0.1305 -0.1498
 1804TIP3    H126903   5.494   2.531  17.261 -0.2682  0.3572 -0.4450
 1804TIP3    H226904   5.622   2.595  17.212  0.3267 -0.6274 -0.2004
 1805TIP3   OH226905   6.399   5.348  12.321  0.1509 -0.0445 -0.0400
 1805TIP3    H126906   6.385   5.333  12.414  0.7028 -2.1730 -0.2500
 1805TIP3    H226907   6.357   5.433  12.304 -1.6666 -0.5103  1.7196
 1806TIP3   OH226908   1.713   1.305  13.624  0.5143  0.0284 -0.7525
 1806TIP3    H126909   1.771   1.339  13.693  0.7721 -1.3284 -0.2598
 1806TIP3    H226910   1.625   1.316  13.660  0.6546 -0.8086 -0.1066
 1807TIP3   OH226911   2.551   6.195   0.172 -0.0442 -0.0497  0.1750
 1807TIP3    H126912   2.497   6.254   0.224 -1.6915 -0.5898 -0.8677
 1807TIP3    H226913   2.609   6.154   0.236 -1.6017 -0.2636  1.5266
 1808TIP3   OH226914   1.274   4.308  13.402  0.1340 -0.3307 -0.1204
 1808TIP3    H126915   1.211   4.250  13.362 -1.3745 -0.9890  2.8881
 1808TIP3    H226916   1.277   4.385  13.345 -2.8806 -0.5792 -0.7683
 1809TIP3   OH226917   1.396   4.393   2.782  0.0731 -0.0369 -0.6442
 1809TIP3    H126918   1.394   4.480   2.823  0.6082 -0.0851 -0.5022
 1809TIP3    H226919   1.424   4.410   2.692 -0.9972  0.0580 -0.9738
 1810TIP3   OH226920   2.130   1.188  13.738  0.5963 -0.2062 -0.2078
 1810TIP3    H126921   2.158   1.230  13.820  0.6513 -1.9093  0.7045
 1810TIP3    H226922   2.180   1.233  13.670 -0.8521  2.5619  0.4176
 1811TIP3   OH226923   0.732   2.958   0.428  0.0123  0.8499 -0.0076
 1811TIP3    H126924   0.773   2.945   0.514  0.6343  0.8911 -0.2953
 1811TIP3    H226925   0.658   3.016   0.446 -0.2721  0.3059  0.6080
 1812TIP3   OH226926   4.953   0.530   6.463  0.3452 -0.6325  0.2120
 1812TIP3    H126927   4.921   0.567   6.545  0.2096  1.2927 -0.6617
 1812TIP3    H226928   5.048   0.522   6.475  0.2828 -0.6875  0.6740
 1813TIP3   OH226929   5.406   2.007   5.401 -0.2365 -0.7777 -0.5765
 1813TIP3    H126930   5.478   2.060   5.436  0.2663 -0.6408 -1.7866
 1813TIP3    H226931   5.447   1.924   5.379 -0.2836 -0.4609 -1.9218
 1814TIP3   OH226932   5.439   2.945   5.416 -0.6837 -0.5039  0.4292
 1814TIP3    H126933   5.359   2.986   5.449  0.1589  0.8160  0.9329
 1814TIP3    H226934   5.442   2.969   5.324 -0.0796  0.8534  0.7695
 1815TIP3   OH226935   2.406   3.849  13.171 -0.0960 -0.6087  0.3429
 1815TIP3    H126936   2.495   3.815  13.164  0.0448 -0.3709  0.9525
 1815TIP3    H226937   2.389   3.887  13.085  0.7681  0.2372  0.5251
 1816TIP3   OH226938   4.420   6.669  17.192  0.4768 -0.5817  0.5306
 1816TIP3    H126939   4.433   6.630  17.278 -0.6679 -1.7681  0.1987
 1816TIP3    H226940   4.346   6.621  17.155 -0.5821  1.4646 -0.1842
 1817TIP3   OH226941   1.852   0.137  14.594 -0.1784 -0.3394 -0.6603
 1817TIP3    H126942   1.873   0.046  14.618 -1.6461 -0.5329 -0.0317
 1817TIP3    H226943   1.877   0.188  14.671  0.7320 -0.1764 -1.0486
 1818TIP3   OH226944   2.785   6.335  10.721  0.3259  0.7889 -0.4266
 1818TIP3    H126945   2.744   6.281  10.653  1.5557  1.3476 -1.6480
 1818TIP3    H226946   2.779   6.282  10.801 -1.6485  0.3507 -0.8121
 1819TIP3   OH226947   3.257   6.164  15.692  0.1496  0.6124 -0.9946
 1819TIP3    H126948   3.301   6.210  15.763  2.6329 -1.5014 -1.0251
 1819TIP3    H226949   3.285   6.212  15.613  0.2039  0.8988 -0.8048
 1820TIP3   OH226950   1.669   5.842   5.557  0.2233 -0.4849 -0.3555
 1820TIP3    H126951   1.727   5.855   5.482  0.6795  0.8288  0.1998
 1820TIP3    H226952   1.589   5.890   5.534  0.0291 -0.8136 -0.3693
 1821TIP3   OH226953   2.544   6.563  16.264 -0.1268 -0.3007  0.5009
 1821TIP3    H126954   2.590   6.591  16.185  0.8756 -0.8546  0.8640
 1821TIP3    H226955   2.519   6.472  16.245 -1.3047  0.0534  0.2244
 1822TIP3   OH226956   0.381   3.042  14.674  0.0225  0.1280  0.0138
 1822TIP3    H126957   0.446   3.103  14.639  0.8974  0.4352  2.0610
 1822TIP3    H226958   0.324   3.022  14.599  1.8465  0.6394 -1.5839
 1823TIP3   OH226959   3.464   0.328   3.751 -0.5011  0.2348  0.0811
 1823TIP3    H126960   3.438   0.366   3.667  0.5095  2.0392  0.5095
 1823TIP3    H226961   3.432   0.391   3.817  2.6001  1.3304  0.7384
 1824TIP3   OH226962   6.727   3.967   3.061  0.3937 -0.0871 -0.2213
 1824TIP3    H126963   6.801   4.014   3.022 -0.7595  1.7390 -0.2983
 1824TIP3    H226964   6.679   4.034   3.110 -2.0949 -0.8575 -1.4532
 1825TIP3   OH226965   0.964   4.917  13.939 -0.2649 -0.2678 -0.4764
 1825TIP3    H126966   0.909   4.973  13.884  0.6990  0.3090 -0.8843
 1825TIP3    H226967   0.968   4.963  14.023 -1.0781 -0.7371 -0.1751
 1826TIP3   OH226968   0.504   0.498   3.859  0.2313 -0.4358 -0.7506
 1826TIP3    H126969   0.549   0.472   3.940  0.8778 -1.2917 -1.3747
 1826TIP3    H226970   0.455   0.421   3.833 -1.6624  0.4788 -0.0878
 1827TIP3   OH226971   2.729   6.558   0.344  0.0569 -0.0234 -0.1606
 1827TIP3    H126972   2.730   6.528   0.435  0.0760 -0.4071 -0.2862
 1827TIP3    H226973   2.738   6.478   0.292  1.6098  0.3334 -0.4684
 1828TIP3   OH226974   4.484   1.423  14.935 -0.4429 -0.1218  0.4339
 1828TIP3    H126975   4.497   1.505  14.888  0.4506 -0.0578  0.7768
 1828TIP3    H226976   4.391   1.403  14.923 -0.9642  1.5663  1.3594
 1829TIP3   OH226977   6.131   1.127   3.098  0.5719  0.1485  0.2693
 1829TIP3    H126978   6.103   1.198   3.039 -1.4463 -0.0224  0.9443
 1829TIP3    H226979   6.109   1.158   3.185  1.6384 -0.4572  0.7679
 1830TIP3   OH226980   0.636   0.769   4.058  0.4263 -0.2634  0.4161
 1830TIP3    H126981   0.609   0.813   4.139  0.3594 -1.0011  0.8049
 1830TIP3    H226982   0.619   0.677   4.075  1.0016 -0.4903 -0.2126
 1831TIP3   OH226983   3.954   0.459  15.671 -0.5693 -0.2307  0.1540
 1831TIP3    H126984   3.914   0.546  15.673 -1.6943 -0.6795 -0.9985
 1831TIP3    H226985   3.981   0.442  15.761  1.8678  2.2631  0.0373
 1832TIP3   OH226986   2.286   0.160  15.654  0.1426  0.0208  0.6736
 1832TIP3    H126987   2.324   0.247  15.669  0.4841 -0.2997  1.8030
 1832TIP3    H226988   2.327   0.129  15.574  1.7595 -0.0119  1.4701
 1833TIP3   OH226989   5.504   3.233  12.772  0.0979 -0.4000 -0.0403
 1833TIP3    H126990   5.426   3.180  12.754  0.1723 -0.1554 -1.2055
 1833TIP3    H226991   5.477   3.323  12.754  0.3489 -0.1887  0.6138
 1834TIP3   OH226992   5.396   4.430   4.002 -0.0400  0.0026 -0.6335
 1834TIP3    H126993   5.450   4.427   4.081 -1.8700  1.9583  0.8137
 1834TIP3    H226994   5.436   4.498   3.949 -1.1089  1.6378  0.5550
 1835TIP3   OH226995   4.617   5.073   2.345 -0.1479 -0.2898  0.1318
 1835TIP3    H126996   4.653   5.132   2.279 -0.0942  2.4256  2.4441
 1835TIP3    H226997   4.690   5.016   2.368  0.2784 -0.2147 -0.9416
 1836TIP3   OH226998   2.290   6.320  17.020  0.0313 -0.2641 -0.1845
 1836TIP3    H126999   2.199   6.320  16.989 -0.4296  1.1726  1.0130
 1836TIP3    H227000   2.288   6.265  17.099  0.4771 -1.1876 -0.7995
 1837TIP3   OH227001   5.069   2.720   3.762  0.1061  0.0726 -0.3137
 1837TIP3    H127002   5.113   2.771   3.693 -0.4592  1.8772  0.5925
 1837TIP3    H227003   5.134   2.715   3.833  0.6314 -1.6506 -0.8694
 1838TIP3   OH227004   2.940   0.331  10.785 -0.0430  0.0991 -0.0548
 1838TIP3    H127005   2.854   0.289  10.792 -0.2778 -0.4826 -4.0493
 1838TIP3    H227006   2.999   0.259  10.760  0.8483  1.0613 -0.8020
 1839TIP3   OH227007   3.329   1.611  14.256  0.7517  0.0761  0.0919
 1839TIP3    H127008   3.392   1.575  14.193 -0.5855 -1.3779 -0.4564
 1839TIP3    H227009   3.247   1.618  14.208  0.0622  0.3466  1.2569
 1840TIP3   OH227010   1.392   4.821  15.263 -0.5129  0.0635 -0.0736
 1840TIP3    H127011   1.349   4.801  15.180  0.5293  0.6899 -0.7950
 1840TIP3    H227012   1.477   4.778  15.256 -0.1304  0.7367  0.3567
 1841TIP3   OH227013   1.338   3.371   2.052  0.4316  0.3919 -0.2803
 1841TIP3    H127014   1.426   3.358   2.016  0.6512  1.6037 -0.2487
 1841TIP3    H227015   1.293   3.288   2.038  1.6033 -0.2679 -0.2463
 1842TIP3   OH227016   3.090   1.998   1.740  0.3210 -0.0720 -0.3380
 1842TIP3    H127017   3.064   2.090   1.736  0.9538  0.1343  0.0778
 1842TIP3    H227018   3.108   1.974   1.649  1.2494  0.5564 -0.3401
 1843TIP3   OH227019   2.559   1.116   0.333  0.1714  0.5130  0.2306
 1843TIP3    H127020   2.638   1.109   0.278  1.6134 -1.0730  2.3284
 1843TIP3    H227021   2.561   1.205   0.367  0.7558  0.6634 -0.1756
 1844TIP3   OH227022   0.429   5.576  13.981 -0.4171  0.4299  0.1364
 1844TIP3    H127023   0.347   5.567  13.932 -1.1366 -1.1019  1.5023
 1844TIP3    H227024   0.430   5.668  14.008 -0.2862  1.1628 -2.1521
 1845TIP3   OH227025   0.009   1.904  15.333  0.1661  0.4428  0.2697
 1845TIP3    H127026   0.054   1.959  15.398  1.0565  0.1793 -0.0994
 1845TIP3    H227027  -0.028   1.832  15.384 -0.3492  0.9834  0.6596
 1846TIP3   OH227028   2.481   5.125  13.816 -0.0954 -0.0185  0.2761
 1846TIP3    H127029   2.471   5.220  13.820  0.4944  0.0534  0.0742
 1846TIP3    H227030   2.512   5.100  13.904 -0.9736 -0.1253  0.5770
 1847TIP3   OH227031   4.233   4.790  12.543 -0.2899  0.1741 -0.2296
 1847TIP3    H127032   4.158   4.743  12.507  0.6453 -1.9097  0.3997
 1847TIP3    H227033   4.280   4.823  12.467 -0.5918 -0.5268 -0.7230
 1848TIP3   OH227034   5.247   4.157   4.714 -0.1880  0.3775  0.4673
 1848TIP3    H127035   5.189   4.158   4.638  1.7147  0.5370 -1.0563
 1848TIP3    H227036   5.234   4.070   4.753 -2.5090  0.9385  1.1024
 1849TIP3   OH227037   2.759   1.274  10.603  0.3949 -0.4260  0.1374
 1849TIP3    H127038   2.700   1.200  10.608  0.6274 -0.8464 -2.2605
 1849TIP3    H227039   2.722   1.339  10.662 -2.0825 -0.9261 -0.7759
 1850TIP3   OH227040   0.706   4.167   1.602  0.2508 -0.4632  0.2197
 1850TIP3    H127041   0.667   4.084   1.631 -0.0725 -0.2383  0.4320
 1850TIP3    H227042   0.715   4.219   1.682 -2.2262  0.8301 -0.2539
 1851TIP3   OH227043   6.098   3.803  14.659  0.1036  0.4455 -0.1421
 1851TIP3    H127044   6.042   3.815  14.582 -2.2277  1.7053  1.6256
 1851TIP3    H227045   6.065   3.723  14.700 -0.4512  1.1561  0.8690
 1852TIP3   OH227046   5.584   2.083  15.117 -0.4504 -0.3555  0.3203
 1852TIP3    H127047   5.570   2.088  15.022 -0.8320 -0.7989  0.3515
 1852TIP3    H227048   5.601   1.991  15.134 -1.0675 -0.3931  0.7753
 1853TIP3   OH227049   1.902   5.301   3.853  0.7958 -0.3576  0.1814
 1853TIP3    H127050   1.901   5.376   3.794 -0.3497  0.5899  1.3565
 1853TIP3    H227051   1.992   5.269   3.850  1.2258  0.8769 -0.5728
 1854TIP3   OH227052   2.061   4.106  16.185 -0.5697 -0.2758 -0.5959
 1854TIP3    H127053   2.046   4.028  16.132 -0.3666 -1.5108  1.0851
 1854TIP3    H227054   2.128   4.079  16.248 -0.8352  1.1109  0.3135
 1855TIP3   OH227055   0.877   3.758   5.334  0.2272  0.1810  0.1494
 1855TIP3    H127056   0.949   3.695   5.337  0.4726  0.4899  0.8164
 1855TIP3    H227057   0.884   3.808   5.415 -0.4132  0.5790 -0.0275
 1856TIP3   OH227058   4.038   2.144   4.723  0.3732 -0.7229  0.4414
 1856TIP3    H127059   4.055   2.166   4.815  1.9166 -2.0557  0.5101
 1856TIP3    H227060   4.073   2.055   4.712 -0.5874 -0.9480 -1.2208
 1857TIP3   OH227061   1.883   1.637   3.907 -0.1738  0.6590 -0.0472
 1857TIP3    H127062   1.900   1.587   3.826  0.9310  1.9633 -0.6750
 1857TIP3    H227063   1.802   1.683   3.890  0.8265  2.1275 -1.0841
 1858TIP3   OH227064   1.585   2.206  11.030 -0.5584 -1.1208  0.1184
 1858TIP3    H127065   1.620   2.272  10.970  1.3962 -2.3821 -0.1999
 1858TIP3    H227066   1.623   2.229  11.115 -2.0759 -0.2691  0.6137
 1859TIP3   OH227067   5.820   2.031  16.220  0.0927 -0.4687  0.0005
 1859TIP3    H127068   5.769   2.080  16.285  1.0345 -0.8496  1.0537
 1859TIP3    H227069   5.891   1.992  16.270  0.9006 -0.7004 -1.2947
 1860TIP3   OH227070   5.711   6.078   1.071 -0.1751 -0.2524  0.0647
 1860TIP3    H127071   5.664   6.017   1.128 -0.4625 -0.2487 -0.1675
 1860TIP3    H227072   5.768   6.127   1.131  0.5167 -1.1592  0.1796
 1861TIP3   OH227073   6.369   4.189   0.256  0.5558  0.2146  0.1472
 1861TIP3    H127074   6.386   4.104   0.298  2.7042  1.4327  1.9553
 1861TIP3    H227075   6.435   4.195   0.187  0.4104  0.4163  0.0251
 1862TIP3   OH227076   4.726   4.486   2.528  0.4897 -0.1713  0.2883
 1862TIP3    H127077   4.805   4.458   2.575  1.4742  0.7447 -0.7672
 1862TIP3    H227078   4.660   4.494   2.596  0.7546 -2.7358  0.9816
 1863TIP3   OH227079   3.790   5.856   5.566  0.6221  0.7224 -0.3469
 1863TIP3    H127080   3.883   5.833   5.565  0.8059  1.4527 -0.5788
 1863TIP3    H227081   3.765   5.862   5.474  0.0752 -0.5042 -0.2857
 1864TIP3   OH227082   5.857   2.700  13.098  0.0466 -0.3897  0.1230
 1864TIP3    H127083   5.885   2.779  13.144 -2.1132  1.0012 -0.8078
 1864TIP3    H227084   5.859   2.724  13.005 -1.0252 -1.2619 -0.1530
 1865TIP3   OH227085   2.704   6.798   0.993 -0.2864  0.0671 -0.0432
 1865TIP3    H127086   2.769   6.784   0.925  1.8997 -1.0487  2.1130
 1865TIP3    H227087   2.659   6.714   1.000 -0.8840  0.3465 -0.4397
 1866TIP3   OH227088   5.738   2.896   0.421  0.5665 -0.2212 -0.0554
 1866TIP3    H127089   5.819   2.888   0.471  1.3656 -0.1602 -1.2927
 1866TIP3    H227090   5.684   2.955   0.473  2.2703  1.7222 -0.3301
 1867TIP3   OH227091   5.791   3.344  15.977  0.6457 -0.3069 -0.4009
 1867TIP3    H127092   5.880   3.352  15.944  0.3120  1.1681 -1.0263
 1867TIP3    H227093   5.736   3.347  15.898  0.0391 -1.2567 -0.0299
 1868TIP3   OH227094   1.168   6.543   2.847  0.0047 -0.3413  0.6867
 1868TIP3    H127095   1.172   6.619   2.905 -1.3420 -1.1335  1.8620
 1868TIP3    H227096   1.119   6.573   2.771  2.2319  0.8595 -0.3869
 1869TIP3   OH227097   6.741   5.530  10.479  0.4531 -0.0259  0.7843
 1869TIP3    H127098   6.680   5.581  10.531  0.4715 -0.6561  1.4510
 1869TIP3    H227099   6.740   5.571  10.392 -1.5054 -0.4913  0.5390
 1870TIP3   OH227100   5.676   6.361   0.834 -0.3799 -0.3431  0.0231
 1870TIP3    H127101   5.758   6.404   0.812 -0.6801  0.6756  0.7978
 1870TIP3    H227102   5.696   6.268   0.832  0.3378 -0.1788 -1.4918
 1871TIP3   OH227103   2.223   5.167  10.600  0.3087  0.0456  0.4497
 1871TIP3    H127104   2.149   5.139  10.546  0.2128  1.1614 -0.0228
 1871TIP3    H227105   2.205   5.130  10.686  0.4091 -1.6737 -0.2290
 1872TIP3   OH227106   4.322   2.590  11.523  0.3741  0.2007 -0.2794
 1872TIP3    H127107   4.281   2.558  11.442 -0.2631  2.6107 -1.0172
 1872TIP3    H227108   4.326   2.514  11.580 -2.4729 -0.8265 -1.2751
 1873TIP3   OH227109   5.907   4.159   1.764 -0.2051  0.1381 -0.0389
 1873TIP3    H127110   5.976   4.172   1.699 -0.6644 -0.3527 -0.6404
 1873TIP3    H227111   5.874   4.071   1.746 -1.4463  0.6177 -0.2074
 1874TIP3   OH227112   4.726   0.968  12.922  0.0490  0.0430  0.3601
 1874TIP3    H127113   4.665   0.896  12.904  0.0893  0.6774 -2.7383
 1874TIP3    H227114   4.812   0.930  12.905  0.4507 -0.2479  2.7012
 1875TIP3   OH227115   6.678   2.890   2.267  0.4452  0.4941  0.1064
 1875TIP3    H127116   6.690   2.805   2.310  0.5554  1.0226  1.1558
 1875TIP3    H227117   6.643   2.947   2.336 -0.2264  1.1415 -0.7450
 1876TIP3   OH227118   5.361   2.625   4.392  0.4220 -0.4044 -0.0904
 1876TIP3    H127119   5.374   2.705   4.342 -0.3017  0.3019  0.8215
 1876TIP3    H227120   5.288   2.581   4.348 -0.3172  0.2931  0.4091
 1877TIP3   OH227121   3.824   1.931  15.552  0.0032 -0.3240  0.1039
 1877TIP3    H127122   3.883   1.979  15.492 -0.6846  0.8286  0.3238
 1877TIP3    H227123   3.777   1.870  15.495 -3.0956  3.0097 -1.2923
 1878TIP3   OH227124   4.661   6.524   4.445 -0.1195 -0.1344  0.5642
 1878TIP3    H127125   4.649   6.467   4.369  0.9950 -1.4855  1.3682
 1878TIP3    H227126   4.600   6.596   4.430 -0.4839 -0.7595 -1.2270
 1879TIP3   OH227127   1.416   2.849   5.417  0.2960 -0.1510 -0.0933
 1879TIP3    H127128   1.441   2.760   5.389 -0.2199 -0.8458  1.5519
 1879TIP3    H227129   1.346   2.873   5.356  0.7488 -0.6828 -0.8453
 1880TIP3   OH227130   5.849   2.635  14.262 -0.0383 -0.2694  0.1947
 1880TIP3    H127131   5.927   2.690  14.268  0.5382 -1.1148  0.6891
 1880TIP3    H227132   5.784   2.678  14.317  0.5835 -0.3711  1.0178
 1881TIP3   OH227133   0.075   3.915  16.088 -0.4333 -0.4935 -0.2003
 1881TIP3    H127134   0.156   3.895  16.041 -0.3513 -0.5746 -0.0266
 1881TIP3    H227135   0.105   3.945  16.174 -0.5427  0.5503 -0.5163
 1882TIP3   OH227136   4.574   6.800  12.711 -0.1953 -0.3498 -0.5015
 1882TIP3    H127137   4.541   6.853  12.639 -0.0316 -0.9987 -1.0599
 1882TIP3    H227138   4.519   6.825  12.786 -0.7224 -0.0691 -0.9742
 1883TIP3   OH227139   5.485   4.400   2.700 -0.5957  0.1595 -0.2244
 1883TIP3    H127140   5.466   4.312   2.733 -0.2005  0.0391 -0.3165
 1883TIP3    H227141   5.579   4.411   2.715 -0.4580  0.1997 -1.0765
 1884TIP3   OH227142   1.345   4.926   0.212 -0.4471  0.1904  0.3979
 1884TIP3    H127143   1.268   4.978   0.192  0.4185  0.9709 -1.1183
 1884TIP3    H227144   1.397   4.981   0.271 -0.0465  0.6124 -0.3314
 1885TIP3   OH227145   4.030   4.810   5.595  0.1523  0.0005 -0.3767
 1885TIP3    H127146   4.081   4.773   5.667 -1.8437 -0.5351  0.8393
 1885TIP3    H227147   3.997   4.893   5.629 -0.1630  0.1222 -0.9663
 1886TIP3   OH227148   2.925   1.750   6.147 -0.2350  0.0494  0.5928
 1886TIP3    H127149   2.968   1.677   6.102 -2.3361 -1.4806  0.9105
 1886TIP3    H227150   2.889   1.712   6.227 -1.8134  1.3162  0.5367
 1887TIP3   OH227151   3.063   1.051   3.559  0.1621 -0.2074  0.4860
 1887TIP3    H127152   3.077   1.002   3.640  1.4389  0.7798  0.8875
 1887TIP3    H227153   3.037   1.138   3.588  2.1835  0.6396 -0.0770
 1888TIP3   OH227154   5.250   1.097   3.356  0.7962 -0.1047  0.0414
 1888TIP3    H127155   5.270   1.035   3.426  3.7862 -0.5017 -1.0466
 1888TIP3    H227156   5.298   1.065   3.280 -0.1259  1.8327 -1.4646
 1889TIP3   OH227157   2.964   5.564  17.047 -0.0583  0.2366  0.1989
 1889TIP3    H127158   2.949   5.484  17.097  1.3754  0.0333  0.3385
 1889TIP3    H227159   2.984   5.630  17.114  0.1364  0.3809 -0.0018
 1890TIP3   OH227160   4.396   3.748  11.683  0.0664 -0.1810 -1.2666
 1890TIP3    H127161   4.342   3.678  11.719  0.8434  0.0099  0.3808
 1890TIP3    H227162   4.486   3.717  11.696  0.4131  0.9933 -0.7305
 1891TIP3   OH227163   5.884   3.528  11.899  0.3201  0.0612 -0.1593
 1891TIP3    H127164   5.937   3.463  11.945 -1.5605 -0.9368  0.7339
 1891TIP3    H227165   5.913   3.524  11.808  2.3618  0.2158  0.4478
 1892TIP3   OH227166   0.765   0.311  15.581 -0.3612 -0.8350 -0.1589
 1892TIP3    H127167   0.692   0.367  15.556 -0.2593 -0.9893 -0.8027
 1892TIP3    H227168   0.833   0.329  15.517  0.3801 -0.2739  0.7691
 1893TIP3   OH227169   0.822   6.032  14.096 -0.2194 -0.6871 -0.4014
 1893TIP3    H127170   0.903   6.027  14.148 -1.0887  0.8060  1.2137
 1893TIP3    H227171   0.845   5.993  14.012  2.4343  0.3920 -0.2775
 1894TIP3   OH227172   4.834   1.962   4.640 -0.8397  0.2701  0.2843
 1894TIP3    H127173   4.781   2.000   4.710 -1.5801  0.9011 -0.5979
 1894TIP3    H227174   4.796   1.875   4.625 -0.0048 -0.3197  1.3620
 1895TIP3   OH227175   2.531   1.553   1.947 -0.7460  0.1636 -0.6415
 1895TIP3    H127176   2.558   1.463   1.930 -0.8059  0.2718 -1.3496
 1895TIP3    H227177   2.593   1.607   1.899 -0.2107  0.5489  0.4366
 1896TIP3   OH227178   2.785   3.301   0.235  0.8646  0.3316 -0.3636
 1896TIP3    H127179   2.701   3.345   0.246  0.1802 -0.5329 -1.8045
 1896TIP3    H227180   2.829   3.351   0.166  1.5120  0.7374  0.3347
 1897TIP3   OH227181   0.947   4.783   1.545 -0.1624 -0.3416 -0.0639
 1897TIP3    H127182   0.934   4.694   1.512  1.5733 -0.0822 -1.5648
 1897TIP3    H227183   1.028   4.777   1.597 -1.0532 -0.0118  1.4160
 1898TIP3   OH227184   4.634   6.771  15.907 -0.0406 -0.2444 -1.0068
 1898TIP3    H127185   4.725   6.793  15.889 -0.0849 -0.2256 -1.2113
 1898TIP3    H227186   4.597   6.851  15.946  0.2908 -0.5811  0.0147
 1899TIP3   OH227187   2.024   4.940   3.145 -0.3184 -0.0309 -0.2971
 1899TIP3    H127188   2.047   5.016   3.091 -0.2504  0.7835  0.8563
 1899TIP3    H227189   2.103   4.924   3.197  0.2738 -1.9326 -1.6696
 1900TIP3   OH227190   5.038   1.947   1.824 -0.5146  0.3605  0.3487
 1900TIP3    H127191   5.073   1.996   1.898  0.3089  1.3152 -0.6274
 1900TIP3    H227192   5.113   1.896   1.792 -0.9515 -0.3081  0.3809
 1901TIP3   OH227193   1.491   1.712   6.408  0.2156  0.2625  0.6089
 1901TIP3    H127194   1.518   1.687   6.497 -0.7265 -1.1756  0.5212
 1901TIP3    H227195   1.416   1.656   6.390 -0.7266  1.8117 -0.4292
 1902TIP3   OH227196   3.909   0.642  14.001  0.1588  0.3059 -0.3780
 1902TIP3    H127197   3.839   0.704  13.977 -0.0611  0.4211  0.4924
 1902TIP3    H227198   3.880   0.558  13.965 -2.2273 -0.4368  2.8106
 1903TIP3   OH227199   2.511   4.938   2.674 -1.0425  0.1605  0.6646
 1903TIP3    H127200   2.435   4.988   2.703 -1.6000 -0.1371 -0.2478
 1903TIP3    H227201   2.525   4.965   2.583 -0.7709 -0.6343  0.4615
 1904TIP3   OH227202   0.766   1.816  13.704 -0.0940 -0.1796  0.0894
 1904TIP3    H127203   0.674   1.805  13.678 -0.4269 -1.5611  1.7044
 1904TIP3    H227204   0.777   1.911  13.711 -1.4658  0.0044  0.0950
 1905TIP3   OH227205   4.361   3.792   4.981 -0.2769  0.2478 -0.6125
 1905TIP3    H127206   4.290   3.782   4.918  0.1529 -0.7275 -0.9801
 1905TIP3    H227207   4.392   3.702   4.995 -1.0122  0.3152  1.7650
 1906TIP3   OH227208   1.950   3.001   2.817 -0.2382 -0.4673 -0.6411
 1906TIP3    H127209   2.018   2.985   2.752  0.5862 -1.9910  0.5476
 1906TIP3    H227210   1.890   2.927   2.807 -0.2706 -0.5462  0.1131
 1907TIP3   OH227211   4.828   4.144   1.313  0.3004  0.4152 -0.5928
 1907TIP3    H127212   4.869   4.090   1.246 -2.3376 -1.4970 -0.8155
 1907TIP3    H227213   4.841   4.095   1.395  0.5205  1.0022 -0.2687
 1908TIP3   OH227214   3.416   4.045   2.222 -0.1381  0.2739  0.2550
 1908TIP3    H127215   3.382   4.127   2.187  1.2942  0.0090 -1.9668
 1908TIP3    H227216   3.472   4.071   2.296  0.0845  1.2875 -0.2592
 1909TIP3   OH227217   5.169   6.082   6.073 -0.2883  0.6004 -0.4471
 1909TIP3    H127218   5.233   6.014   6.051  0.0660  0.7129  0.2102
 1909TIP3    H227219   5.152   6.127   5.990  0.7506  0.7891 -0.5678
 1910TIP3   OH227220   1.639   4.189   0.995  0.2585 -0.6859 -0.4408
 1910TIP3    H127221   1.574   4.123   1.019  0.5275 -1.2345 -1.1775
 1910TIP3    H227222   1.587   4.263   0.964 -0.0351 -1.6656 -2.4394
 1911TIP3   OH227223   5.700   5.572   1.070 -0.5569  1.0660  0.2811
 1911TIP3    H127224   5.790   5.600   1.085 -0.5575  0.4752  1.5273
 1911TIP3    H227225   5.707   5.497   1.012 -0.0515 -0.2340  1.9417
 1912TIP3   OH227226   0.302   4.290  12.650 -0.1990 -0.4878 -0.0798
 1912TIP3    H127227   0.371   4.308  12.714 -0.7489 -0.0972  0.4127
 1912TIP3    H227228   0.309   4.196  12.635 -1.1019 -0.8999  1.8058
 1913TIP3   OH227229   1.989   4.028   4.860  0.2270 -0.2856 -0.1080
 1913TIP3    H127230   1.955   3.992   4.779  0.5415  1.3771 -1.0175
 1913TIP3    H227231   2.075   4.065   4.836 -0.2751  1.4652  0.6210
 1914TIP3   OH227232   6.417   0.498  12.252  0.2439  0.0065 -0.4676
 1914TIP3    H127233   6.333   0.463  12.224 -0.4420  1.4467 -0.3077
 1914TIP3    H227234   6.480   0.464  12.188 -0.1497 -2.4251  0.3363
 1915TIP3   OH227235   3.864   1.950  11.077  0.4399  0.0276  0.1066
 1915TIP3    H127236   3.827   1.880  11.024  0.5734 -1.5154  1.9342
 1915TIP3    H227237   3.790   1.988  11.124  0.6434 -0.3791  0.7677
 1916TIP3   OH227238   0.042   3.637  17.128 -0.1952  0.4985 -0.4077
 1916TIP3    H127239   0.062   3.725  17.098 -2.7657  0.0196 -4.2722
 1916TIP3    H227240   0.086   3.579  17.065  0.6822 -1.0360  1.4936
 1917TIP3   OH227241   0.343   3.305   0.037  0.1121 -0.7065 -0.4970
 1917TIP3    H127242   0.297   3.310  -0.047  0.4295  1.1875 -0.6147
 1917TIP3    H227243   0.307   3.378   0.088  0.5618 -1.2865  0.6880
 1918TIP3   OH227244   5.516   3.405  14.495 -0.5284  0.4690 -0.3365
 1918TIP3    H127245   5.528   3.334  14.431 -1.7848 -1.1454  1.1101
 1918TIP3    H227246   5.467   3.472  14.448 -0.0284  0.0365 -1.5112
 1919TIP3   OH227247   4.570   2.900  15.525 -0.0564 -0.0190 -0.4040
 1919TIP3    H127248   4.624   2.960  15.575 -1.2913  1.5466 -0.8759
 1919TIP3    H227249   4.632   2.837  15.487  1.0403 -0.4167  1.8741
 1920TIP3   OH227250   1.367   1.373   1.517  0.7097 -0.6445 -0.2915
 1920TIP3    H127251   1.415   1.290   1.521  0.7791 -0.6520 -1.1168
 1920TIP3    H227252   1.279   1.348   1.489  0.0559 -0.6844  1.6776
 1921TIP3   OH227253   0.348   2.439   1.649 -0.2625 -0.1584 -0.3457
 1921TIP3    H127254   0.405   2.478   1.716  1.1866 -0.8572 -1.1120
 1921TIP3    H227255   0.312   2.361   1.692 -1.8362  1.0527  0.6261
 1922TIP3   OH227256   4.938   4.778   2.674  0.3663  0.5543  0.0692
 1922TIP3    H127257   4.932   4.683   2.687 -0.7595  0.2324 -2.3188
 1922TIP3    H227258   5.029   4.799   2.695  1.0537 -1.3394 -0.8233
 1923TIP3   OH227259   5.873   3.283  14.708 -0.1231 -0.0759  0.3259
 1923TIP3    H127260   5.858   3.196  14.672  1.1138 -0.2696  0.2333
 1923TIP3    H227261   5.935   3.269  14.780  1.9384  0.9555 -1.1464
 1924TIP3   OH227262   4.662   0.096   0.997 -0.1663  0.4243 -0.1864
 1924TIP3    H127263   4.683   0.035   1.067 -0.1353  0.5149 -0.1172
 1924TIP3    H227264   4.719   0.172   1.013 -0.7373  0.7840  0.1566
 1925TIP3   OH227265   5.049   1.812   4.572 -0.4686 -0.0477  0.0812
 1925TIP3    H127266   4.986   1.867   4.619 -0.8412  0.7264 -1.2455
 1925TIP3    H227267   5.078   1.867   4.500  1.8058 -0.3674  0.6897
 1926TIP3   OH227268   0.014   4.328   3.774  0.0969  0.1044  0.0672
 1926TIP3    H127269   0.002   4.234   3.775  0.7957 -0.0010 -0.6283
 1926TIP3    H227270   0.107   4.341   3.793 -0.2149  0.7060  1.2740
 1927TIP3   OH227271   4.334   1.208  11.661 -0.0547  0.7102 -0.1177
 1927TIP3    H127272   4.292   1.221  11.747 -3.5659 -1.1088 -1.3616
 1927TIP3    H227273   4.290   1.272  11.604  0.5863  0.3423 -1.0388
 1928TIP3   OH227274   2.486   6.217   5.822  0.2571  0.2578  0.7436
 1928TIP3    H127275   2.403   6.180   5.852  0.2636  0.2344  0.7331
 1928TIP3    H227276   2.541   6.140   5.806  0.0662  0.2459  0.1187
 1929TIP3   OH227277   5.945   6.084   5.121  0.2399 -0.3894 -0.4530
 1929TIP3    H127278   5.927   6.095   5.027 -0.5920 -0.9170 -0.3653
 1929TIP3    H227279   6.004   6.156   5.142 -1.3143  1.0876 -0.9099
 1930TIP3   OH227280   3.507   4.655  15.550  0.2052 -0.4672  0.2461
 1930TIP3    H127281   3.461   4.726  15.595  0.2750 -0.1179 -0.2206
 1930TIP3    H227282   3.571   4.700  15.494  1.7855 -0.9654  1.5771
 1931TIP3   OH227283   3.144   1.924  13.362 -0.1433 -0.0997  0.2274
 1931TIP3    H127284   3.152   1.838  13.403 -0.6481 -0.0426  0.4521
 1931TIP3    H227285   3.118   1.982  13.433 -0.0262  0.1941  0.0300
 1932TIP3   OH227286   4.127   0.455   3.840  0.4897  0.3132  0.0753
 1932TIP3    H127287   4.075   0.418   3.769  0.1126  0.6031  0.1983
 1932TIP3    H227288   4.102   0.404   3.917  1.4871 -0.5308 -0.1472
 1933TIP3   OH227289   0.851   0.373  12.827 -0.2678 -0.1949 -0.0958
 1933TIP3    H127290   0.762   0.361  12.794 -0.1859 -0.0800 -0.3618
 1933TIP3    H227291   0.857   0.467  12.845 -0.1505 -0.1761 -0.2289
 1934TIP3   OH227292   3.193   3.690   0.291  0.0428  0.1116  0.3425
 1934TIP3    H127293   3.193   3.785   0.279 -1.2000  0.2815  1.3833
 1934TIP3    H227294   3.225   3.655   0.208  0.3509  1.4314 -0.1229
 1935TIP3   OH227295   3.315   1.521   6.383 -0.1146 -0.6577  0.4246
 1935TIP3    H127296   3.269   1.524   6.467 -0.1389  1.0280  0.3863
 1935TIP3    H227297   3.390   1.579   6.394 -0.5833  0.2777 -0.9521
 1936TIP3   OH227298   0.912   4.592   0.648 -0.5529 -0.3747 -0.6484
 1936TIP3    H127299   0.947   4.639   0.573 -0.2033  0.5036  0.0410
 1936TIP3    H227300   0.832   4.639   0.671 -0.2636 -0.1781 -0.0249
 1937TIP3   OH227301   6.744   6.214   2.295  0.0146 -0.3614  0.4080
 1937TIP3    H127302   6.748   6.306   2.268 -0.1105  0.0625  1.7647
 1937TIP3    H227303   6.712   6.216   2.385 -0.5580 -1.7840  0.2689
 1938TIP3   OH227304   6.551   5.325   5.278  0.3784 -0.6973 -0.2710
 1938TIP3    H127305   6.536   5.309   5.185 -0.4375 -0.0483 -0.2596
 1938TIP3    H227306   6.639   5.363   5.282  1.0837 -2.2119 -0.5946
 1939TIP3   OH227307   2.387   4.724   6.459  0.1431 -0.0005  0.0716
 1939TIP3    H127308   2.360   4.802   6.411  1.2589  0.6449  0.4776
 1939TIP3    H227309   2.331   4.654   6.424 -2.0898  1.2625  0.9029
 1940TIP3   OH227310   6.745   3.092  11.231 -0.2447  0.5055  0.1773
 1940TIP3    H127311   6.756   3.170  11.177  1.0088 -0.0806 -0.4510
 1940TIP3    H227312   6.827   3.083  11.278 -0.6466 -0.0276  0.8019
 1941TIP3   OH227313   4.738   1.363  11.559  0.2570  0.1081  0.5756
 1941TIP3    H127314   4.775   1.437  11.511 -1.0768  0.3733 -0.0951
 1941TIP3    H227315   4.696   1.403  11.636 -1.5890  0.2669 -0.4428
 1942TIP3   OH227316   2.873   3.716   2.001 -0.5884  0.2697  0.1184
 1942TIP3    H127317   2.785   3.730   1.967 -0.3850 -1.1241 -1.0757
 1942TIP3    H227318   2.866   3.735   2.095 -1.5311  2.6826 -0.3687
 1943TIP3   OH227319   3.666   6.712   6.312 -0.0424  0.3821 -0.6567
 1943TIP3    H127320   3.595   6.758   6.357  0.2330  0.6109 -0.4515
 1943TIP3    H227321   3.629   6.627   6.288 -0.5542  0.7008 -1.0231
 1944TIP3   OH227322   3.127   4.370   4.916 -0.9583 -0.3324  0.5436
 1944TIP3    H127323   3.148   4.323   4.835 -0.0840 -1.0829  1.1702
 1944TIP3    H227324   3.206   4.419   4.936 -1.2025 -0.0744  0.8857
 1945TIP3   OH227325   2.440   3.424   3.420  0.1052 -0.3723  0.4591
 1945TIP3    H127326   2.400   3.468   3.496 -1.0340 -1.9445  0.8282
 1945TIP3    H227327   2.381   3.445   3.347 -1.6075 -2.8020  1.0301
 1946TIP3   OH227328   5.711   6.093   0.476 -1.0982  0.2390 -0.2130
 1946TIP3    H127329   5.648   6.165   0.469  0.2740  1.5932  0.6747
 1946TIP3    H227330   5.694   6.055   0.563 -0.3498  0.9706  0.2652
 1947TIP3   OH227331   4.647   2.396   1.253  0.1378 -0.0120  0.2383
 1947TIP3    H127332   4.566   2.388   1.204  0.4042 -0.0904 -0.1885
 1947TIP3    H227333   4.682   2.482   1.230 -1.2174  1.2701  2.5529
 1948TIP3   OH227334   2.850   1.385   4.647  0.3502  0.3916 -0.3042
 1948TIP3    H127335   2.775   1.385   4.587  1.0996 -0.1936 -1.2625
 1948TIP3    H227336   2.926   1.395   4.590  1.1048 -0.4949  0.5247
 1949TIP3   OH227337   6.187   1.286  12.783 -0.0558  0.4679 -0.1090
 1949TIP3    H127338   6.263   1.310  12.730 -1.7302  0.1398 -2.8281
 1949TIP3    H227339   6.180   1.191  12.772 -1.0516  0.5394 -0.1604
 1950TIP3   OH227340   3.516   6.692   1.696 -0.4133 -0.0511 -0.3950
 1950TIP3    H127341   3.518   6.627   1.766  1.5414  0.9550  0.5694
 1950TIP3    H227342   3.443   6.665   1.640 -1.4271 -1.4472  1.4778
 1951TIP3   OH227343   6.308   5.832   0.847  0.5473 -0.0441 -0.0488
 1951TIP3    H127344   6.297   5.745   0.807 -0.5661 -0.1045  0.3380
 1951TIP3    H227345   6.387   5.824   0.900 -0.7987 -1.6330  1.9183
 1952TIP3   OH227346   4.364   5.714  17.168 -0.7531 -0.1094 -0.0097
 1952TIP3    H127347   4.288   5.695  17.223 -0.9137  0.5684  0.0111
 1952TIP3    H227348   4.397   5.798  17.200 -0.1496 -0.2715 -0.1894
 1953TIP3   OH227349   6.683   3.211  14.277  0.5201 -0.3680 -0.5097
 1953TIP3    H127350   6.596   3.202  14.317  0.5793  1.0417  0.0014
 1953TIP3    H227351   6.674   3.284  14.217  1.6369  0.5711  0.4299
 1954TIP3   OH227352   4.459   2.213   1.821 -0.3743  0.0749  0.6249
 1954TIP3    H127353   4.480   2.157   1.747  0.1746  0.2005  0.6866
 1954TIP3    H227354   4.472   2.157   1.898  0.2103  0.2925  0.6887
 1955TIP3   OH227355   3.729   5.306  16.885 -0.2166 -0.0504 -0.8614
 1955TIP3    H127356   3.778   5.232  16.922 -0.6475 -0.1770 -0.5418
 1955TIP3    H227357   3.645   5.269  16.859 -0.1577  0.1718 -1.3951
 1956TIP3   OH227358   1.725   4.867   5.256  0.4939 -0.1330 -0.3119
 1956TIP3    H127359   1.748   4.794   5.199  0.3388 -1.5289  1.3367
 1956TIP3    H227360   1.640   4.843   5.293  0.8128  0.4975  0.8767
 1957TIP3   OH227361   5.613   1.841   2.964 -0.1093  0.4163  0.2048
 1957TIP3    H127362   5.699   1.799   2.971  0.6321  2.0732  2.0134
 1957TIP3    H227363   5.571   1.824   3.048 -1.4422 -0.0565 -0.5225
 1958TIP3   OH227364   5.152   5.508   2.385  0.2560  0.1877 -0.0133
 1958TIP3    H127365   5.227   5.565   2.399  0.0759  0.4710 -0.1825
 1958TIP3    H227366   5.096   5.522   2.461  0.2192  0.2303 -0.0474
 1959TIP3   OH227367   1.527   6.261  14.377 -0.0197  0.0879 -0.3362
 1959TIP3    H127368   1.493   6.349  14.396 -3.0924 -0.6195 -1.8850
 1959TIP3    H227369   1.480   6.203  14.437  1.6927 -0.6204  0.4003
 1960TIP3   OH227370   3.753   5.608  16.101 -0.4476 -0.0360  0.3101
 1960TIP3    H127371   3.776   5.552  16.175 -0.4989 -0.8872 -0.3031
 1960TIP3    H227372   3.689   5.557  16.051  1.9296 -0.9102 -2.0947
 1961TIP3   OH227373   1.394   4.802   3.775  0.0136  0.1828 -0.2126
 1961TIP3    H127374   1.480   4.786   3.737 -0.4985  0.4507 -1.5799
 1961TIP3    H227375   1.394   4.895   3.798  0.5000 -0.0949  0.9304
 1962TIP3   OH227376   4.471   0.535   5.579 -0.5828 -0.5145 -0.9699
 1962TIP3    H127377   4.449   0.499   5.665 -0.9636 -0.1012 -0.8894
 1962TIP3    H227378   4.567   0.537   5.578 -0.5277 -2.2096 -1.2696
 1963TIP3   OH227379   4.283   4.632   0.743  0.4841 -0.2262  0.6573
 1963TIP3    H127380   4.190   4.621   0.723  0.7109  0.3641 -0.8927
 1963TIP3    H227381   4.288   4.627   0.838 -0.9999 -1.2068  0.7264
 1964TIP3   OH227382   3.611   3.962   4.887  0.0037 -0.6377  0.2648
 1964TIP3    H127383   3.690   3.934   4.934 -0.8817 -0.6934  1.7780
 1964TIP3    H227384   3.570   3.880   4.859  1.1520 -0.5790 -1.7466
 1965TIP3   OH227385   0.206   0.925  15.464  0.5289  0.1848 -0.0730
 1965TIP3    H127386   0.111   0.923  15.451  0.4840 -0.6224  0.2877
 1965TIP3    H227387   0.242   0.896  15.380  0.3580 -1.6442  0.4278
 1966TIP3   OH227388   5.798   6.213   2.806  0.0046 -0.6497 -0.5161
 1966TIP3    H127389   5.836   6.265   2.735  0.4082 -0.2457 -0.0121
 1966TIP3    H227390   5.713   6.253   2.822  0.7426  0.5744  0.5902
 1967TIP3   OH227391   1.103   2.276  12.243  0.8666  0.4354  0.0570
 1967TIP3    H127392   1.130   2.191  12.278  0.3756  0.0413 -0.5147
 1967TIP3    H227393   1.053   2.317  12.314  0.7974  0.0973  0.2047
 1968TIP3   OH227394   2.345   0.359  14.796 -0.1606 -0.3363  0.4614
 1968TIP3    H127395   2.411   0.290  14.787 -1.1853 -1.3496  0.5625
 1968TIP3    H227396   2.305   0.366  14.709  0.6582  0.9034  0.1549
 1969TIP3   OH227397   3.184   5.625  16.645 -0.2651 -0.3094 -0.1111
 1969TIP3    H127398   3.236   5.654  16.720 -0.7115  1.2007 -0.3430
 1969TIP3    H227399   3.219   5.675  16.571 -1.2086 -0.2057 -0.5042
 1970TIP3   OH227400   3.345   5.859  15.344  0.1677 -0.1512  0.4159
 1970TIP3    H127401   3.340   5.907  15.261  0.2806 -1.2062 -0.2282
 1970TIP3    H227402   3.439   5.843  15.356  0.1842  0.3426  0.9582
 1971TIP3   OH227403   6.685   2.667  12.618  0.2935 -0.0254 -0.3600
 1971TIP3    H127404   6.666   2.669  12.712  0.7081 -0.6823 -0.2564
 1971TIP3    H227405   6.713   2.756  12.598  0.3224  0.0902  0.1683
 1972TIP3   OH227406   3.440   4.722  11.669  0.0340  0.3665  0.6333
 1972TIP3    H127407   3.376   4.715  11.740  1.4138 -0.3852  1.8441
 1972TIP3    H227408   3.455   4.632  11.641 -0.2647  0.6314 -0.4437
 1973TIP3   OH227409   1.265   6.195   2.312 -0.5569  0.0230 -0.1352
 1973TIP3    H127410   1.320   6.180   2.389 -0.5449  0.2105 -0.1062
 1973TIP3    H227411   1.316   6.254   2.257  0.2367 -1.5597 -1.1579
 1974TIP3   OH227412   4.555   5.822   2.198 -0.2991  0.0055 -0.2208
 1974TIP3    H127413   4.580   5.819   2.290 -0.0473  0.4252 -0.2718
 1974TIP3    H227414   4.546   5.915   2.179  2.9548  0.2243 -1.4740
 1975TIP3   OH227415   0.162   1.781   1.309  0.3259  0.7588 -0.2394
 1975TIP3    H127416   0.126   1.830   1.383  1.9201  0.8861  0.4946
 1975TIP3    H227417   0.227   1.840   1.270 -0.3295  0.6100 -1.6305
 1976TIP3   OH227418   3.346   2.341  16.468 -0.0874  0.1295  0.6190
 1976TIP3    H127419   3.301   2.391  16.536 -1.1706  0.4170 -0.2635
 1976TIP3    H227420   3.371   2.406  16.403  0.1912 -0.2370  0.3559
 1977TIP3   OH227421   2.175   6.174   0.197 -0.1753 -0.0833  0.6413
 1977TIP3    H127422   2.189   6.099   0.254 -1.9929  0.2463  1.6085
 1977TIP3    H227423   2.085   6.165   0.167 -0.1117  1.1805 -0.0227
 1978TIP3   OH227424   2.491   1.667   4.635 -0.0939 -0.3570 -0.2210
 1978TIP3    H127425   2.549   1.635   4.704  1.7233  1.6590 -0.7052
 1978TIP3    H227426   2.419   1.604   4.633  0.8559 -1.6395  2.0526
 1979TIP3   OH227427   4.149   1.033  12.070 -0.0080 -0.3224 -0.1130
 1979TIP3    H127428   4.092   0.981  12.013 -0.8062  1.3567 -0.9406
 1979TIP3    H227429   4.129   1.003  12.158 -0.1452 -1.6669 -0.5812
 1980TIP3   OH227430   1.732   1.772   2.874  0.5346  0.2423 -0.0783
 1980TIP3    H127431   1.799   1.712   2.905 -1.1858 -1.5817  0.2843
 1980TIP3    H227432   1.702   1.735   2.791 -0.6558  0.4593  0.2247
 1981TIP3   OH227433   0.100   4.398  11.233  0.3403 -0.2730  0.2039
 1981TIP3    H127434   0.082   4.338  11.306  0.0088 -0.3171  0.0906
 1981TIP3    H227435   0.014   4.432  11.210  0.7428  2.0508  1.7965
 1982TIP3   OH227436   1.387   4.931   1.063 -0.3167 -0.4928  0.2426
 1982TIP3    H127437   1.471   4.962   1.027 -0.2503 -1.3857 -0.3891
 1982TIP3    H227438   1.324   4.944   0.992 -0.6208 -0.2944  0.5437
 1983TIP3   OH227439   2.054   4.496  15.105  0.0707  0.2094 -0.3435
 1983TIP3    H127440   1.989   4.497  15.176  2.2319  0.3434  1.7407
 1983TIP3    H227441   2.109   4.572  15.121  0.8418  0.0533 -2.0161
 1984TIP3   OH227442   1.248   6.512  10.440  0.0136 -0.4309 -0.1581
 1984TIP3    H127443   1.163   6.485  10.406 -0.8978  1.7570  0.2200
 1984TIP3    H227444   1.255   6.605  10.418  1.0167  0.1655  2.3248
 1985TIP3   OH227445   6.765   1.193   3.959 -0.0846  0.5441  0.0652
 1985TIP3    H127446   6.809   1.125   3.908 -0.3374  1.1948 -1.0563
 1985TIP3    H227447   6.701   1.145   4.012  0.6626 -0.2136  0.3086
 1986TIP3   OH227448   2.948   6.122   2.449 -0.1445 -0.4876 -0.2844
 1986TIP3    H127449   2.948   6.118   2.545 -1.7322 -0.8831 -0.2672
 1986TIP3    H227450   3.020   6.181   2.427 -0.2131  0.1806  1.1775
 1987TIP3   OH227451   4.905   0.453  13.428 -0.5651 -0.2485  0.1633
 1987TIP3    H127452   4.831   0.395  13.407 -1.3582  1.0078 -0.6497
 1987TIP3    H227453   4.865   0.539  13.439  0.5733  0.1458  1.4965
 1988TIP3   OH227454   1.429   4.799   1.714 -0.1589  0.5936  0.2530
 1988TIP3    H127455   1.424   4.703   1.706 -0.1716  0.7373 -2.9758
 1988TIP3    H227456   1.340   4.826   1.735 -0.0857 -0.0882  1.5524
 1989TIP3   OH227457   4.413   3.234   0.669  0.1574  0.3820  0.1607
 1989TIP3    H127458   4.388   3.145   0.644 -0.0431  0.7013 -0.8232
 1989TIP3    H227459   4.505   3.226   0.696 -0.4035 -0.4541  1.9770
 1990TIP3   OH227460   4.644   4.258  11.267 -0.1047  0.5915 -0.3763
 1990TIP3    H127461   4.608   4.210  11.341  0.7437  1.3031  0.5140
 1990TIP3    H227462   4.594   4.339  11.263 -0.5196  0.3124 -0.9346
 1991TIP3   OH227463   3.297   0.155  15.498  0.5019 -0.0521 -0.5627
 1991TIP3    H127464   3.240   0.209  15.444  0.1519 -0.7447 -0.8997
 1991TIP3    H227465   3.369   0.131  15.441  1.9960  2.1030  0.2962
 1992TIP3   OH227466   0.339   1.287   1.105 -0.0427  0.1950  0.0011
 1992TIP3    H127467   0.376   1.320   1.023 -0.6778 -1.0141 -0.8060
 1992TIP3    H227468   0.298   1.364   1.146  0.6132  0.8873 -0.6149
 1993TIP3   OH227469   5.468   4.780  16.172  0.3009 -0.3190  0.4218
 1993TIP3    H127470   5.458   4.864  16.128 -0.8492 -1.1644 -1.0561
 1993TIP3    H227471   5.555   4.749  16.145 -0.0137 -0.3997 -0.5471
 1994TIP3   OH227472   2.413   6.626  10.220 -0.2548 -0.4832 -0.5371
 1994TIP3    H127473   2.479   6.607  10.286 -0.0368  0.6132 -0.4305
 1994TIP3    H227474   2.351   6.685  10.263 -0.2333  0.0610 -1.2407
 1995TIP3   OH227475   6.649   1.436   0.316 -0.1733 -0.0674 -0.4240
 1995TIP3    H127476   6.557   1.458   0.333 -0.1036 -0.3691  0.3815
 1995TIP3    H227477   6.664   1.465   0.226 -0.6302  1.3599 -0.0523
 1996TIP3   OH227478   0.885   3.927  14.008  0.3644 -0.3196  0.0245
 1996TIP3    H127479   0.874   4.021  14.018  2.8008 -0.0435  0.6963
 1996TIP3    H227480   0.842   3.889  14.085 -0.0979  0.2704  0.0615
 1997TIP3   OH227481   0.119   5.610  15.617  0.0409 -0.2394  0.7042
 1997TIP3    H127482   0.032   5.570  15.627  0.4747 -1.8389 -1.2813
 1997TIP3    H227483   0.109   5.669  15.542  0.0020  1.8252  2.2290
 1998TIP3   OH227484   6.559   0.384   4.843 -0.1048 -0.2476  0.1022
 1998TIP3    H127485   6.617   0.322   4.887 -0.5653  0.0382  1.1393
 1998TIP3    H227486   6.482   0.333   4.819 -0.0691 -0.2967  0.0931
 1999TIP3   OH227487   5.548   5.595  14.344 -0.2333 -0.3346  0.5248
 1999TIP3    H127488   5.454   5.591  14.325 -0.3701 -1.6841  1.3441
 1999TIP3    H227489   5.553   5.602  14.439  0.5020  0.7938  0.4253
 2000TIP3   OH227490   5.822   0.152  17.035 -0.1441  0.3953  0.2364
 2000TIP3    H127491   5.831   0.089  16.963  0.8790  2.0163 -1.1303
 2000TIP3    H227492   5.898   0.136  17.090  1.1674  1.6008 -1.1286
 2001TIP3   OH227493   0.280   3.611   0.922  0.4138  0.6731  0.5616
 2001TIP3    H127494   0.229   3.553   0.865  0.2782 -0.9383  2.2082
 2001TIP3    H227495   0.245   3.698   0.906 -1.7510 -0.1570  0.4528
 2002TIP3   OH227496   3.324   5.903  14.611 -0.3348  0.2670  0.4773
 2002TIP3    H127497   3.311   5.926  14.519 -2.2062  1.4166  0.9768
 2002TIP3    H227498   3.278   5.820  14.622 -0.6828  0.4620  0.5113
 2003TIP3   OH227499   0.063   2.286  13.048  0.5667  0.4300  0.4642
 2003TIP3    H127500   0.056   2.312  13.140 -0.4441  0.3791  0.4159
 2003TIP3    H227501   0.156   2.289  13.029  0.8678 -0.2693  1.7050
 2004TIP3   OH227502   2.228   3.466   6.106  0.4658 -0.6211  0.1824
 2004TIP3    H127503   2.218   3.393   6.167  0.7396 -1.0867 -0.3230
 2004TIP3    H227504   2.317   3.458   6.073  1.2296  1.1606  1.6497
 2005TIP3   OH227505   0.127   0.085  13.923 -0.5274 -0.3886 -0.2934
 2005TIP3    H127506   0.145  -0.007  13.906  0.7342 -0.1861 -0.1368
 2005TIP3    H227507   0.117   0.124  13.836 -1.5758 -0.7600 -0.3479
 2006TIP3   OH227508   0.035   1.260  10.786 -0.1862 -0.1023 -0.3756
 2006TIP3    H127509  -0.046   1.269  10.737  0.4167  2.3753 -1.0688
 2006TIP3    H227510   0.104   1.278  10.722  1.1542 -4.0323 -0.2917
 2007TIP3   OH227511   6.411   2.255   2.311  0.2457 -0.1309  0.1350
 2007TIP3    H127512   6.479   2.296   2.259 -0.9786  0.1331 -1.3354
 2007TIP3    H227513   6.341   2.320   2.316  0.3002 -0.1678  2.1031
 2008TIP3   OH227514   0.429   5.511   0.373 -0.0163  0.2368  0.0144
 2008TIP3    H127515   0.422   5.566   0.451 -2.2382 -1.2179  0.9127
 2008TIP3    H227516   0.432   5.422   0.406 -1.4165 -0.4398 -1.5406
 2009TIP3   OH227517   0.171   4.026   2.584 -0.3042 -0.4278 -0.2324
 2009TIP3    H127518   0.197   3.942   2.621  3.1578 -0.9522 -3.2339
 2009TIP3    H227519   0.235   4.088   2.617 -0.4383  0.1762 -1.0585
 2010TIP3   OH227520   1.726   0.772   0.978 -0.3190 -0.2494  0.1484
 2010TIP3    H127521   1.741   0.764   0.884 -2.2447  1.3872 -0.3718
 2010TIP3    H227522   1.655   0.710   0.996 -2.0187  1.5012 -0.1443
 2011TIP3   OH227523   1.362   0.266   6.191 -0.2858 -0.0545  0.3287
 2011TIP3    H127524   1.370   0.360   6.207 -1.2542 -0.0752  1.0343
 2011TIP3    H227525   1.306   0.235   6.261  2.7134 -1.7800  2.1359
 2012TIP3   OH227526   0.737   0.006   5.104 -0.1580  0.2100 -0.2329
 2012TIP3    H127527   0.829  -0.021   5.109 -0.0553  0.7200  1.1824
 2012TIP3    H227528   0.693  -0.048   5.169 -0.4924  1.2916  0.4765
 2013TIP3   OH227529   2.337   5.674  15.657 -0.0541 -0.5776  0.1446
 2013TIP3    H127530   2.278   5.667  15.583  0.4584 -1.3099 -0.2120
 2013TIP3    H227531   2.289   5.633  15.729 -0.3469 -0.3286  0.0932
 2014TIP3   OH227532   1.109   1.513  15.381  0.0366  0.0941 -0.2545
 2014TIP3    H127533   1.036   1.461  15.349 -1.6550  2.3184 -0.2877
 2014TIP3    H227534   1.113   1.588  15.322  3.0885 -0.4196 -0.8802
 2015TIP3   OH227535   3.994   1.004  16.852  0.4199 -0.1538 -0.0190
 2015TIP3    H127536   4.050   0.946  16.801  1.6215  0.8128  0.1524
 2015TIP3    H227537   3.909   0.960  16.855  0.7094 -0.8657 -1.6892
 2016TIP3   OH227538   4.467   0.767   2.518 -0.0819  0.2161 -0.2760
 2016TIP3    H127539   4.516   0.825   2.460 -0.2666  1.0973  0.4286
 2016TIP3    H227540   4.375   0.788   2.501 -0.1870 -0.4686 -0.6111
 2017TIP3   OH227541   0.125   6.033   2.316  0.0671  0.2547  0.1799
 2017TIP3    H127542   0.208   6.080   2.323 -0.0315  0.9229 -2.1703
 2017TIP3    H227543   0.059   6.103   2.310 -0.8050 -0.2597  2.6990
 2018TIP3   OH227544   0.619   3.700   0.838 -0.3515  0.7035 -0.1835
 2018TIP3    H127545   0.580   3.756   0.771  0.7539  0.2808 -1.2227
 2018TIP3    H227546   0.662   3.760   0.899  0.1904  1.0411 -0.8804
 2019TIP3   OH227547   0.336   4.260  13.334  0.0680  0.8042  0.0221
 2019TIP3    H127548   0.314   4.255  13.241 -1.7348 -0.1834  0.4558
 2019TIP3    H227549   0.302   4.346  13.362 -0.5909  0.5508  0.0292
 2020TIP3   OH227550   4.732   2.856  13.547  0.0218  0.4117  0.3632
 2020TIP3    H127551   4.677   2.901  13.482  0.0196 -1.7628 -1.2519
 2020TIP3    H227552   4.821   2.872  13.519  0.0291 -0.3364 -0.0596
 2021TIP3   OH227553   6.631   0.263  14.616 -0.0009  0.1295 -0.0841
 2021TIP3    H127554   6.697   0.195  14.601  3.2751  2.7724  1.1762
 2021TIP3    H227555   6.606   0.252  14.708 -0.2125  0.0276 -0.1540
 2022TIP3   OH227556   4.472   5.656   5.958 -0.1860 -0.9997 -0.0193
 2022TIP3    H127557   4.384   5.692   5.956 -0.2453 -1.1452 -0.0545
 2022TIP3    H227558   4.530   5.733   5.963 -0.3682 -0.9424  1.8624
 2023TIP3   OH227559   0.240   3.146   2.626 -0.2324  0.1169  0.7552
 2023TIP3    H127560   0.207   3.090   2.556  0.0841 -2.2065  2.3474
 2023TIP3    H227561   0.328   3.170   2.598 -0.7672  0.7688 -0.4471
 2024TIP3   OH227562   5.937   2.605   2.659 -0.3967 -0.2148 -0.0927
 2024TIP3    H127563   5.929   2.699   2.646  0.4617 -0.4487 -3.2226
 2024TIP3    H227564   5.853   2.578   2.695 -0.0200  1.8918  2.7769
 2025TIP3   OH227565   3.554   3.359   5.547  0.4289 -0.3117 -0.0203
 2025TIP3    H127566   3.545   3.439   5.598  0.1520 -0.5754  0.3479
 2025TIP3    H227567   3.484   3.364   5.481  0.8034  0.0402 -0.3994
 2026TIP3   OH227568   2.805   2.608  11.362 -0.5623  0.2159  0.3688
 2026TIP3    H127569   2.807   2.601  11.266 -2.2786  1.2097  0.2117
 2026TIP3    H227570   2.872   2.673  11.383 -1.3947  1.3823 -0.3782
 2027TIP3   OH227571   5.594   6.279  12.926 -0.4651  0.3201  0.2487
 2027TIP3    H127572   5.670   6.319  12.882  0.8692 -1.5205  0.7201
 2027TIP3    H227573   5.588   6.324  13.010 -0.5615  1.1996 -0.2200
 2028TIP3   OH227574   3.092   2.161  16.129  0.4501 -0.2522 -0.0087
 2028TIP3    H127575   3.159   2.095  16.110  1.0466 -0.3451  2.1743
 2028TIP3    H227576   3.141   2.236  16.164 -0.5249 -0.0287  0.9167
 2029TIP3   OH227577   6.619   1.098   5.699  0.1851  0.2361 -0.0678
 2029TIP3    H127578   6.533   1.090   5.740  1.7766  1.2840  4.0445
 2029TIP3    H227579   6.634   1.013   5.657 -2.1521 -0.5434  0.5044
 2030TIP3   OH227580   3.707   0.963  12.549  0.0272  0.1429  0.5281
 2030TIP3    H127581   3.721   0.899  12.619 -1.7733 -0.4926  0.3672
 2030TIP3    H227582   3.742   0.920  12.471 -0.9873 -0.5975  0.4565
 2031TIP3   OH227583   4.162   0.421  11.520  0.0590  0.6648 -0.6230
 2031TIP3    H127584   4.182   0.333  11.553 -1.7491  0.3683 -0.2062
 2031TIP3    H227585   4.240   0.473  11.542  0.2359 -0.2952  1.2036
 2032TIP3   OH227586   1.232   2.470  12.506  0.2579 -0.3218 -0.1714
 2032TIP3    H127587   1.271   2.417  12.575 -0.1754 -0.7167 -0.2262
 2032TIP3    H227588   1.295   2.465  12.434 -0.0814 -1.2906 -0.4081
 2033TIP3   OH227589   0.044   0.943  14.592  0.4915 -0.1942  0.3217
 2033TIP3    H127590   0.126   0.911  14.554  0.3488 -1.5621  1.1144
 2033TIP3    H227591   0.022   0.879  14.660 -1.9357 -0.6309 -0.7604
 2034TIP3   OH227592   0.145   0.668  11.564 -0.2261  0.4071 -0.1061
 2034TIP3    H127593   0.124   0.717  11.484 -0.3957  2.5132  1.1529
 2034TIP3    H227594   0.062   0.665  11.612  0.5709  2.3039  1.5375
 2035TIP3   OH227595   3.894   1.164   0.062 -0.3218 -0.1833  0.4815
 2035TIP3    H127596   3.925   1.128  -0.021 -2.9295  0.1842 -0.7751
 2035TIP3    H227597   3.887   1.088   0.120 -1.3792 -0.9961 -0.6617
 2036TIP3   OH227598   2.180   0.140  14.927  0.4663 -0.1870  0.3153
 2036TIP3    H127599   2.232   0.060  14.918  0.7129  0.1231 -1.3097
 2036TIP3    H227600   2.241   0.211  14.906 -0.0208  0.3480  0.6755
 2037TIP3   OH227601   1.260   4.664   2.842 -0.2852  0.5370 -0.4322
 2037TIP3    H127602   1.256   4.653   2.747 -0.7687  0.2515 -0.3863
 2037TIP3    H227603   1.342   4.711   2.858  0.2864 -0.2723 -0.9080
 2038TIP3   OH227604   6.138   1.713  13.265  0.3998 -0.8413  0.7377
 2038TIP3    H127605   6.044   1.692  13.265  0.1892 -0.0120 -0.5082
 2038TIP3    H227606   6.151   1.763  13.185  2.5269 -3.5270 -0.7657
 2039TIP3   OH227607   0.241   4.514  16.198  0.2518 -0.0099  0.0082
 2039TIP3    H127608   0.167   4.562  16.159  0.6504  0.0990 -0.6384
 2039TIP3    H227609   0.200   4.447  16.253 -0.3467 -0.1916 -0.6359
 2040TIP3   OH227610   1.777   6.115   5.866  0.2491 -0.1588  0.1288
 2040TIP3    H127611   1.702   6.173   5.873  0.6066  0.2510  0.6515
 2040TIP3    H227612   1.739   6.028   5.850 -0.3830 -0.0886  1.1284
 2041TIP3   OH227613   6.814   2.814  16.671  0.5224 -0.4415 -0.0528
 2041TIP3    H127614   6.737   2.855  16.631  1.2595 -0.5704 -1.6849
 2041TIP3    H227615   6.829   2.736  16.618  1.4691 -0.6874  0.5658
 2042TIP3   OH227616   6.659   2.465  17.093 -0.9197 -0.2678 -0.2838
 2042TIP3    H127617   6.672   2.443  17.001  1.5500  0.0910 -0.0761
 2042TIP3    H227618   6.718   2.538  17.109 -2.2164  0.4870  1.3168
 2043TIP3   OH227619   4.693   1.719  12.274 -0.4130 -0.1667 -0.5479
 2043TIP3    H127620   4.713   1.643  12.329  1.8368 -0.0831 -1.1504
 2043TIP3    H227621   4.736   1.792  12.318  1.6226 -0.1233 -2.3750
 2044TIP3   OH227622   0.900   1.867  16.951 -0.6242 -0.0893  0.3305
 2044TIP3    H127623   0.886   1.961  16.957  0.6960  0.1684 -0.2547
 2044TIP3    H227624   0.949   1.854  16.870 -1.4463 -1.3687  0.0057
 2045TIP3   OH227625   0.263   4.228   1.419  0.1178 -0.2094 -0.2877
 2045TIP3    H127626   0.176   4.239   1.457 -0.0128 -2.1706  0.0819
 2045TIP3    H227627   0.322   4.227   1.494  0.3491  0.0429 -0.4625
 2046TIP3   OH227628   1.164   0.216  13.767  0.4717 -0.0425  0.4717
 2046TIP3    H127629   1.210   0.286  13.720  1.0733 -0.7254  0.0194
 2046TIP3    H227630   1.206   0.213  13.853  0.9232 -0.3038  0.2480
 2047TIP3   OH227631   3.248   6.392   3.374 -0.1797 -0.3626  0.1364
 2047TIP3    H127632   3.338   6.424   3.364 -0.0522 -0.4780  0.8228
 2047TIP3    H227633   3.235   6.389   3.469 -0.8317 -0.5654  0.0435
 2048TIP3   OH227634   1.576   1.788  14.608  0.5784 -0.1914  0.7578
 2048TIP3    H127635   1.568   1.725  14.537  0.7798 -0.9940  1.4277
 2048TIP3    H227636   1.658   1.835  14.590  0.7578 -0.5642  0.5879
 2049TIP3   OH227637   3.821   4.961  11.234 -0.5134  0.1014  0.2054
 2049TIP3    H127638   3.755   4.974  11.165  0.0885  0.5204 -0.3076
 2049TIP3    H227639   3.890   5.023  11.212  0.9433 -1.6326 -0.3710
 2050TIP3   OH227640   1.043   1.108   4.517 -0.1776  0.4284 -0.2187
 2050TIP3    H127641   1.100   1.033   4.502  0.0423  0.4187  0.6279
 2050TIP3    H227642   0.994   1.117   4.436 -0.1574 -0.5893 -0.3593
 2051TIP3   OH227643   5.854   0.917   1.409  0.0372  0.1244  0.7624
 2051TIP3    H127644   5.769   0.878   1.430  0.0634 -0.0788  0.4903
 2051TIP3    H227645   5.909   0.895   1.484  0.3973 -1.4043  0.0971
 2052TIP3   OH227646   0.562   0.319  10.984  0.2099 -0.1315 -0.9723
 2052TIP3    H127647   0.587   0.230  11.009 -0.5160 -0.0698  0.0018
 2052TIP3    H227648   0.645   0.366  10.980  0.5627 -0.7515 -1.1016
 2053TIP3   OH227649   6.815   3.356  10.880  0.1490  0.4727 -0.0307
 2053TIP3    H127650   6.799   3.442  10.840  0.2637  0.0671 -0.9575
 2053TIP3    H227651   6.903   3.332  10.851 -0.2464 -0.3790 -0.5664
 2054TIP3   OH227652   5.766   5.475  12.358 -0.2058  0.1624  0.1159
 2054TIP3    H127653   5.744   5.518  12.441  1.6312  2.6874 -0.5943
 2054TIP3    H227654   5.859   5.493  12.345 -0.0142 -1.7054 -1.6742
 2055TIP3   OH227655   4.349   1.048   0.421 -0.0024  0.4146 -0.7290
 2055TIP3    H127656   4.358   0.957   0.392  0.7698 -0.4659  2.0007
 2055TIP3    H227657   4.281   1.046   0.487  1.1678  1.4546  0.5749
 2056TIP3   OH227658   6.028   2.720   2.042 -0.3225 -0.1529  0.5356
 2056TIP3    H127659   5.962   2.777   2.003  0.2622 -0.4453 -0.9876
 2056TIP3    H227660   6.078   2.777   2.101  1.0087  1.3084 -1.8287
 2057TIP3   OH227661   6.729   4.063   0.152  0.0377  0.5196 -0.2019
 2057TIP3    H127662   6.795   4.053   0.084  1.1705  0.4858  0.8634
 2057TIP3    H227663   6.668   4.129   0.118  0.4770  0.3749 -1.2969
 2058TIP3   OH227664   6.370   1.460  13.954  0.3359 -0.0833  0.0631
 2058TIP3    H127665   6.375   1.531  13.890  0.9001 -1.7747 -1.9112
 2058TIP3    H227666   6.297   1.406  13.924 -1.0816  0.4191  2.4125
 2059TIP3   OH227667   1.170   6.274  13.483  0.2400 -0.5972 -0.4424
 2059TIP3    H127668   1.260   6.305  13.472  0.5890 -1.2205  0.5216
 2059TIP3    H227669   1.150   6.289  13.575 -1.2462  1.0458 -0.9611
 2060TIP3   OH227670   2.144   4.914   4.789 -0.2743  0.6364 -0.4933
 2060TIP3    H127671   2.199   4.964   4.729 -1.0063 -0.2315 -1.9621
 2060TIP3    H227672   2.125   4.974   4.860  1.5484  1.3411 -0.5566
 2061TIP3   OH227673   2.684   5.991   4.048 -0.1996  0.4866 -0.2232
 2061TIP3    H127674   2.599   6.012   4.087 -0.1902  2.6454 -1.2078
 2061TIP3    H227675   2.745   6.052   4.090  0.4010  0.6091 -1.2333
 2062TIP3   OH227676   5.831   1.700   2.339  0.4310 -0.0484 -0.8165
 2062TIP3    H127677   5.869   1.630   2.392 -0.3433 -0.2478 -0.5095
 2062TIP3    H227678   5.831   1.776   2.398 -0.3526 -0.2484 -0.5532
 2063TIP3   OH227679   5.812   2.201   0.357 -0.1405  0.5823  0.1421
 2063TIP3    H127680   5.761   2.240   0.428 -1.5061  0.9201 -0.9769
 2063TIP3    H227681   5.807   2.106   0.374  0.2439  0.6915  0.9306
 2064TIP3   OH227682   0.192   5.038   5.736 -0.4046  0.6518  0.1830
 2064TIP3    H127683   0.108   5.078   5.758  0.4904  2.5207  0.4090
 2064TIP3    H227684   0.219   5.081   5.655 -0.0495 -0.5624 -0.3655
 2065TIP3   OH227685   4.512   2.436   5.947  0.3330 -0.6571  0.1613
 2065TIP3    H127686   4.524   2.342   5.959  1.6352 -0.4978  0.2902
 2065TIP3    H227687   4.563   2.457   5.869  1.1031  0.1234  0.8438
 2066TIP3   OH227688   4.106   4.843  15.827  0.5271  0.2760  0.7435
 2066TIP3    H127689   4.188   4.805  15.798  0.5845 -0.1318  1.4085
 2066TIP3    H227690   4.054   4.768  15.856  0.0886  0.5708  0.7316
 2067TIP3   OH227691   1.828   0.006   2.361 -0.3365 -0.5378  0.2590
 2067TIP3    H127692   1.776   0.082   2.387 -2.1858 -1.7349  0.2748
 2067TIP3    H227693   1.802  -0.010   2.270  1.4477 -0.0623 -0.3679
 2068TIP3   OH227694   0.696   5.672   0.985 -0.0684  0.1579  0.1611
 2068TIP3    H127695   0.621   5.729   1.001 -1.6280 -1.4430 -1.0351
 2068TIP3    H227696   0.720   5.640   1.072 -0.5838  0.9170  0.5961
 2069TIP3   OH227697   1.712   0.538   6.090  0.1693  0.0542 -0.1930
 2069TIP3    H127698   1.744   0.550   6.179  0.3283  2.6320 -0.5071
 2069TIP3    H227699   1.619   0.519   6.100  0.4203 -0.8640  0.5265
 2070TIP3   OH227700   3.808   3.132  15.738  0.0090 -0.4935  0.0764
 2070TIP3    H127701   3.829   3.225  15.743  1.2009 -0.6838 -0.8978
 2070TIP3    H227702   3.880   3.089  15.783 -0.1822 -0.9779 -0.0756
 2071TIP3   OH227703   5.028   2.935  13.560  0.8894  0.4423 -0.8109
 2071TIP3    H127704   5.047   2.893  13.645 -1.5183  0.7765 -0.0421
 2071TIP3    H227705   5.004   3.024  13.583 -1.6392  0.0244 -1.6128
 2072TIP3   OH227706   2.027   0.516  13.449  0.6946  0.3519  0.1454
 2072TIP3    H127707   1.956   0.478  13.501  0.9546 -1.9524 -1.0096
 2072TIP3    H227708   2.098   0.531  13.512  0.2389 -0.2656  0.8209
 2073TIP3   OH227709   3.484   2.108  12.633  0.0350  0.1908  0.3338
 2073TIP3    H127710   3.406   2.053  12.640  1.3822 -1.9735 -0.5813
 2073TIP3    H227711   3.460   2.177  12.572 -1.6725  0.6109  1.4139
 2074TIP3   OH227712   2.166   1.328  13.996  0.3611 -0.4313  0.1768
 2074TIP3    H127713   2.229   1.261  14.021  0.6780  0.4095  1.7843
 2074TIP3    H227714   2.111   1.339  14.074  2.5619  3.6806  1.4435
 2075TIP3   OH227715   1.067   3.397  11.759 -0.3849  0.0094 -0.5195
 2075TIP3    H127716   1.016   3.348  11.695  0.4287  1.1617 -2.1242
 2075TIP3    H227717   1.148   3.419  11.713  1.0809 -0.7633  1.5532
 2076TIP3   OH227718   4.163   2.416  11.948 -0.3640 -0.4101 -0.0508
 2076TIP3    H127719   4.135   2.494  11.996  1.4037 -1.4839  3.0290
 2076TIP3    H227720   4.106   2.346  11.980  0.9417 -1.1870  0.6404
 2077TIP3   OH227721   5.723   0.570  16.597  0.2182 -1.2101 -0.1097
 2077TIP3    H127722   5.784   0.590  16.526  2.2307 -1.5668  1.4208
 2077TIP3    H227723   5.660   0.510  16.558  1.1198 -1.2139 -1.6648
 2078TIP3   OH227724   5.765   0.433  17.027  0.1730  0.3820 -0.2613
 2078TIP3    H127725   5.765   0.337  17.032  1.6349  0.4075  0.5847
 2078TIP3    H227726   5.820   0.453  16.952  1.7651  0.5791  0.9196
 2079TIP3   OH227727   0.235   0.647   2.752  0.5259  0.9802  0.0978
 2079TIP3    H127728   0.238   0.743   2.754  3.1352  0.9882 -0.6278
 2079TIP3    H227729   0.326   0.620   2.742 -0.2054 -1.5851 -0.4866
 2080TIP3   OH227730   4.003   3.735   6.197 -0.6681 -0.3220 -0.3157
 2080TIP3    H127731   3.984   3.642   6.187  1.6253 -0.8126 -0.6949
 2080TIP3    H227732   3.917   3.777   6.202 -1.7546 -2.4657  0.1341
 2081TIP3   OH227733   6.815   0.940  16.981  0.3592  0.7018  0.1497
 2081TIP3    H127734   6.891   0.920  17.036 -1.2795 -1.7140  1.6831
 2081TIP3    H227735   6.745   0.959  17.043 -0.5378  2.1070 -1.2300
 2082TIP3   OH227736   0.697   0.189  11.767  0.5048 -0.3553 -0.1207
 2082TIP3    H127737   0.791   0.188  11.787  1.2025  0.4139 -2.9073
 2082TIP3    H227738   0.671   0.280  11.779 -0.2114 -0.7764  1.7677
 2083TIP3   OH227739   3.231   6.350  13.782  0.2223 -0.2531 -0.0600
 2083TIP3    H127740   3.173   6.306  13.845 -1.2790 -0.6723 -1.6832
 2083TIP3    H227741   3.293   6.282  13.756  0.5009 -0.2302  0.5074
 2084TIP3   OH227742   5.547   0.363  12.741  0.3250 -0.4988 -0.5182
 2084TIP3    H127743   5.499   0.446  12.742 -0.1488 -0.7759 -0.1163
 2084TIP3    H227744   5.635   0.387  12.712 -0.0670  0.0082 -1.3239
 2085TIP3   OH227745   2.088   5.938  12.262  0.2891 -0.7323  0.1530
 2085TIP3    H127746   2.067   5.853  12.301  0.9016 -0.3810  1.2953
 2085TIP3    H227747   2.114   5.918  12.172  4.5248 -2.3389  1.5053
 2086TIP3   OH227748   0.808   1.710  10.117 -0.4401  0.3286 -0.5068
 2086TIP3    H127749   0.760   1.660  10.051 -1.0085  0.1448  0.0480
 2086TIP3    H227750   0.744   1.772  10.152 -0.4454 -0.3328  0.6671
 2087TIP3   OH227751   5.382   4.870  13.646 -0.0142 -0.5222  0.3924
 2087TIP3    H127752   5.326   4.948  13.647 -0.0285 -0.4997 -0.8052
 2087TIP3    H227753   5.469   4.904  13.626  0.0052 -0.7972  0.0062
 2088TIP3   OH227754   5.491   0.811  15.110 -0.2053 -0.1555  0.0053
 2088TIP3    H127755   5.425   0.782  15.048  2.1886 -1.9489 -1.9109
 2088TIP3    H227756   5.459   0.895  15.142 -3.6935 -1.2595 -0.2102
 2089TIP3   OH227757   0.099   6.000  14.586 -0.2541  0.1904 -0.0035
 2089TIP3    H127758   0.158   5.939  14.630  0.8247  1.4029  0.2947
 2089TIP3    H227759   0.021   6.001  14.642  0.2644  0.1160  0.7448
 2090TIP3   OH227760   1.189   4.747  11.392  0.2050 -0.2966  0.0155
 2090TIP3    H127761   1.107   4.734  11.440  1.2095 -1.6268  1.5079
 2090TIP3    H227762   1.172   4.711  11.305 -0.3581 -2.0879  0.8092
 2091TIP3   OH227763   3.952   2.054  12.214 -0.2913 -0.2190 -0.0288
 2091TIP3    H127764   3.976   2.030  12.124  0.5611  2.8922 -0.7678
 2091TIP3    H227765   4.033   2.051  12.263 -0.1103  1.1130 -0.1941
 2092TIP3   OH227766   2.210   6.373  15.285 -0.3543  0.2099 -0.3721
 2092TIP3    H127767   2.128   6.359  15.333 -1.8075 -0.4205 -2.8409
 2092TIP3    H227768   2.200   6.320  15.206  2.0827  0.8505 -1.1886
 2093TIP3   OH227769   3.393   5.981  15.095  0.1901  0.0272  0.1515
 2093TIP3    H127770   3.362   6.057  15.047 -1.6738 -0.5138  0.4491
 2093TIP3    H227771   3.489   5.984  15.086 -0.0076  0.8883 -2.0994
 2094TIP3   OH227772   2.735   3.752   4.707 -0.2509 -0.3153  0.1664
 2094TIP3    H127773   2.689   3.772   4.626  1.0455 -0.4504 -0.6324
 2094TIP3    H227774   2.822   3.722   4.679 -0.0196 -1.0531  1.5730
 2095TIP3   OH227775   0.870   4.279  11.406 -0.3422 -0.1589 -0.7601
 2095TIP3    H127776   0.841   4.368  11.426 -2.3543 -0.5189 -1.7041
 2095TIP3    H227777   0.804   4.247  11.344  0.4818 -2.2123 -0.6471
 2096TIP3   OH227778   1.577   3.361   0.641  0.3868  0.1142  0.0855
 2096TIP3    H127779   1.581   3.444   0.689  2.4221 -0.4851  1.0758
 2096TIP3    H227780   1.669   3.338   0.626 -0.0431 -2.6048  1.0639
 2097TIP3   OH227781   2.606   3.432   5.135  0.0818  0.2532 -0.2100
 2097TIP3    H127782   2.564   3.495   5.193  1.7232 -0.6913  2.1690
 2097TIP3    H227783   2.622   3.480   5.054  1.3946  3.0117  1.5314
 2098TIP3   OH227784   4.649   3.629  15.035  0.0130  0.1260  0.2780
 2098TIP3    H127785   4.569   3.677  15.014 -0.8666 -1.4333 -0.1586
 2098TIP3    H227786   4.648   3.555  14.975  2.5561  0.8221 -0.7031
 2099TIP3   OH227787   3.020   6.342   4.962 -0.3620 -0.1365 -0.3949
 2099TIP3    H127788   2.968   6.418   4.937  0.5725  0.5302 -0.3940
 2099TIP3    H227789   2.975   6.305   5.038 -0.9817  0.2449 -0.5757
 2100TIP3   OH227790   2.095   5.553   5.396  0.0892 -0.3685 -0.7079
 2100TIP3    H127791   2.013   5.577   5.354  1.2645  3.2501 -1.2690
 2100TIP3    H227792   2.139   5.496   5.333 -1.6501 -1.8799 -0.6383
 2101TIP3   OH227793   2.093   0.780   4.698 -0.2989  0.5122 -0.2412
 2101TIP3    H127794   2.090   0.875   4.685  1.1901  0.6047 -0.0451
 2101TIP3    H227795   2.023   0.746   4.642 -0.6475  1.7042 -0.5485
 2102TIP3   OH227796   3.677   0.041   3.432 -0.4390 -0.0095 -0.3208
 2102TIP3    H127797   3.593   0.033   3.385 -0.5800 -0.2588 -0.0295
 2102TIP3    H227798   3.654   0.086   3.513 -0.3860 -0.5520  0.0007
 2103TIP3   OH227799   0.633   6.519  16.525  0.3050 -0.0317 -0.4433
 2103TIP3    H127800   0.592   6.449  16.576  0.0091  0.1652 -0.4085
 2103TIP3    H227801   0.646   6.590  16.588 -0.5712  0.4211 -0.7517
 2104TIP3   OH227802   5.789   3.047  16.746  0.3182  0.1114 -0.0061
 2104TIP3    H127803   5.708   2.996  16.755  1.0722 -0.8932  1.5625
 2104TIP3    H227804   5.858   2.981  16.744  1.0709  0.8769 -2.7332
 2105TIP3   OH227805   0.981   4.244   0.123  0.1610 -0.5179 -0.4722
 2105TIP3    H127806   0.907   4.288   0.081  0.4700  1.3291  0.7874
 2105TIP3    H227807   1.043   4.228   0.052  0.0108  1.1164 -1.0109
 2106TIP3   OH227808   4.877   0.477   1.812 -0.4898 -0.2775  0.1904
 2106TIP3    H127809   4.938   0.411   1.844  0.7372 -0.1070 -1.6797
 2106TIP3    H227810   4.909   0.559   1.849  0.3343 -0.2140 -0.6356
 2107TIP3   OH227811   0.017   5.906  15.125  0.1956  0.0018  1.0108
 2107TIP3    H127812  -0.018   5.981  15.173 -0.3279 -0.3053  1.1191
 2107TIP3    H227813  -0.042   5.895  15.051 -1.8057 -2.3324  2.7605
 2108TIP3   OH227814   2.921   4.221   2.595  0.1075  0.2419 -0.4439
 2108TIP3    H127815   3.004   4.178   2.577  0.7551  1.9619 -1.9214
 2108TIP3    H227816   2.934   4.311   2.566 -1.5233  1.1862  1.4554
 2109TIP3   OH227817   0.818   0.537  12.022  0.6559  0.3975  0.1399
 2109TIP3    H127818   0.737   0.493  11.996  0.1045  1.0052  0.8003
 2109TIP3    H227819   0.871   0.468  12.061  0.0002  0.2092  0.7173
 2110TIP3   OH227820   5.498   2.836  10.367 -0.3092  0.1017 -0.0713
 2110TIP3    H127821   5.462   2.840  10.455 -0.9531 -1.2614 -0.2536
 2110TIP3    H227822   5.506   2.743  10.348  0.4711  0.3742 -1.1985
 2111TIP3   OH227823   3.991   4.273  15.560  0.0794 -0.0805 -0.3026
 2111TIP3    H127824   3.985   4.179  15.540  1.4290  0.0556 -1.5262
 2111TIP3    H227825   3.927   4.314  15.502  0.2285 -0.1593 -0.5254
 2112TIP3   OH227826   5.894   2.486   1.151 -0.0872 -0.1932  0.7826
 2112TIP3    H127827   5.845   2.544   1.209  0.6617  1.7765 -0.4533
 2112TIP3    H227828   5.978   2.474   1.196  0.1035  0.4746  0.6177
 2113TIP3   OH227829   5.855   1.170  12.686  0.7678 -0.2671  0.2113
 2113TIP3    H127830   5.918   1.170  12.758  2.1177 -0.5336 -0.9211
 2113TIP3    H227831   5.908   1.153  12.608 -0.5988  0.3296 -0.8936
 2114TIP3   OH227832   3.417   4.206  17.124  0.2111 -0.1885  0.2938
 2114TIP3    H127833   3.456   4.279  17.075  0.3232 -1.1436 -1.0649
 2114TIP3    H227834   3.485   4.181  17.186  0.7683 -0.1281 -0.2787
 2115TIP3   OH227835   3.846   0.003   5.932  0.1263 -0.3517 -0.2770
 2115TIP3    H127836   3.878   0.064   5.865 -0.1948  0.2711  0.1242
 2115TIP3    H227837   3.911  -0.067   5.935  1.0830  0.5351  0.0330
 2116TIP3   OH227838   0.207   0.927   5.316 -0.5002  0.0957 -0.2383
 2116TIP3    H127839   0.149   1.003   5.326 -0.9790 -0.1521 -0.9879
 2116TIP3    H227840   0.147   0.855   5.295 -0.0282 -0.4330  0.2124
 2117TIP3   OH227841   5.043   2.756   5.949  0.3344  0.3812 -0.1872
 2117TIP3    H127842   4.950   2.735   5.940  0.2329  0.9334 -0.4969
 2117TIP3    H227843   5.057   2.761   6.044  0.5474 -1.7977 -0.0623
 2118TIP3   OH227844   1.066   1.338  15.000  0.5528  0.0846  0.5760
 2118TIP3    H127845   0.999   1.401  14.974 -0.0515 -1.0077 -0.6576
 2118TIP3    H227846   1.055   1.329  15.095 -2.3167 -1.3787  0.2258
 2119TIP3   OH227847   2.345   0.385  16.049 -0.0099  0.7816 -0.4705
 2119TIP3    H127848   2.385   0.354  16.130 -1.7590 -1.7868 -0.4787
 2119TIP3    H227849   2.285   0.454  16.078 -1.6765 -1.0635  0.7096
 2120TIP3   OH227850   5.361   5.725   2.351 -0.1929 -0.0593  0.5045
 2120TIP3    H127851   5.456   5.723   2.339 -0.0726  1.1965  1.1252
 2120TIP3    H227852   5.326   5.721   2.262  0.4155 -0.8742  0.2845
 2121TIP3   OH227853   3.601   2.032   6.307  0.5902 -0.4268 -0.5492
 2121TIP3    H127854   3.543   2.042   6.383  0.2634  1.3408 -0.9713
 2121TIP3    H227855   3.673   1.978   6.338  0.0192 -0.4601  0.7641
 2122TIP3   OH227856   3.647   2.463   3.938 -0.1958  0.5990 -0.5770
 2122TIP3    H127857   3.564   2.469   3.892 -1.1250 -0.8395  0.8296
 2122TIP3    H227858   3.709   2.433   3.871 -1.1169  0.2733 -1.3040
 2123TIP3   OH227859   2.724   6.421   5.449  0.1048  0.3978  0.0033
 2123TIP3    H127860   2.712   6.487   5.517  0.4013  0.7880 -0.3112
 2123TIP3    H227861   2.639   6.414   5.407 -0.8811 -1.8686  2.1585
 2124TIP3   OH227862   2.123   1.311   1.544  0.0139 -0.0357  0.3489
 2124TIP3    H127863   2.175   1.230   1.550 -0.9062 -0.6460  0.2365
 2124TIP3    H227864   2.188   1.381   1.551  0.8350 -0.7800  0.4116
 2125TIP3   OH227865   2.865   5.071   5.551  0.1760 -0.4161  0.0727
 2125TIP3    H127866   2.928   5.087   5.621 -0.3504 -1.3485  0.7978
 2125TIP3    H227867   2.806   5.147   5.553 -0.4002 -0.8612  1.3087
 2126TIP3   OH227868   5.009   3.197   0.789  1.2584 -1.1201  0.2522
 2126TIP3    H127869   4.942   3.265   0.781  0.2371 -2.0808  0.4765
 2126TIP3    H227870   5.070   3.231   0.855  1.6956  0.3084 -0.8429
 2127TIP3   OH227871   4.437   4.975   5.731 -0.0099  0.0778  0.0676
 2127TIP3    H127872   4.411   4.938   5.647  1.2550 -1.1306  0.1657
 2127TIP3    H227873   4.358   5.016   5.765 -0.9650 -0.8570 -0.9544
 2128TIP3   OH227874   6.555   3.752   3.285 -0.2421  0.3028  0.0084
 2128TIP3    H127875   6.521   3.662   3.280  2.1189 -0.6059 -1.2050
 2128TIP3    H227876   6.566   3.779   3.194  4.7303 -0.5889  0.0801
 2129TIP3   OH227877   4.659   2.880  17.070  0.8198 -0.6024  0.3966
 2129TIP3    H127878   4.575   2.923  17.061  1.4482  1.3427  2.7710
 2129TIP3    H227879   4.701   2.892  16.984 -0.4348  0.3811 -0.1192
 2130TIP3   OH227880   4.705   0.267   5.450  0.1243 -0.4892 -0.2612
 2130TIP3    H127881   4.753   0.328   5.507  1.9567 -0.3216 -1.9075
 2130TIP3    H227882   4.721   0.181   5.489 -1.1432 -0.1509  1.1408
 2131TIP3   OH227883   2.642   2.358  13.261 -0.0408 -0.3127  0.4126
 2131TIP3    H127884   2.636   2.273  13.305  0.8334 -1.2719 -1.2445
 2131TIP3    H227885   2.638   2.338  13.168  2.3092  1.2431 -0.1239
 2132TIP3   OH227886   2.243   5.533  12.629  0.0536 -0.2127  0.3081
 2132TIP3    H127887   2.153   5.563  12.615 -0.1089 -0.7556  0.1661
 2132TIP3    H227888   2.276   5.590  12.698  0.2404  1.2427 -0.9292
 2133TIP3   OH227889   5.350   2.126   4.946 -0.0503 -0.4323 -0.0290
 2133TIP3    H127890   5.267   2.085   4.968 -0.8343  0.1059 -1.7820
 2133TIP3    H227891   5.341   2.151   4.854  0.6823  2.8359  0.6538
 2134TIP3   OH227892   3.051   4.984  14.926 -0.2438  0.2717  0.2774
 2134TIP3    H127893   2.970   4.945  14.959  0.2115  0.3571  1.5885
 2134TIP3    H227894   3.060   4.950  14.837 -0.4594 -1.7009  0.9641
 2135TIP3   OH227895   1.921   0.941  12.473  0.2254 -0.4578  0.2718
 2135TIP3    H127896   1.926   0.978  12.561  0.7902  0.5446 -0.1653
 2135TIP3    H227897   2.007   0.957  12.435 -0.1495 -0.4723 -0.6132
 2136TIP3   OH227898   0.638   1.537  15.737  0.2113  0.3276  0.1121
 2136TIP3    H127899   0.550   1.505  15.716  0.8321 -1.9513  0.7353
 2136TIP3    H227900   0.685   1.535  15.654 -0.5422  2.5427 -0.4393
 2137TIP3   OH227901   1.375   4.942   2.263 -0.2237  0.1339  0.1023
 2137TIP3    H127902   1.303   4.894   2.304 -0.4664  0.6831  0.3269
 2137TIP3    H227903   1.390   4.897   2.180  0.4560 -1.1668  0.8927
 2138TIP3   OH227904   3.908   1.709  16.484  0.3786  0.1711 -0.1480
 2138TIP3    H127905   3.894   1.803  16.467  1.4066  0.4449  0.4118
 2138TIP3    H227906   3.995   1.692  16.447  0.7908 -0.2286  0.9848
 2139TIP3   OH227907   3.803   5.890  11.925  0.1458  0.2440 -0.6787
 2139TIP3    H127908   3.775   5.979  11.904 -1.0209  0.2490  0.7479
 2139TIP3    H227909   3.877   5.901  11.985 -1.3599  0.3196  1.2445
 2140TIP3   OH227910   4.403   0.528  10.909 -0.6775  0.6224 -0.3150
 2140TIP3    H127911   4.436   0.607  10.867 -1.0117 -0.0778 -2.0070
 2140TIP3    H227912   4.416   0.459  10.843 -0.8706 -0.6298  0.9044
 2141TIP3   OH227913   2.945   3.967  13.389 -0.5487  0.0215 -0.0007
 2141TIP3    H127914   2.872   3.986  13.449 -1.8452 -1.2716 -1.0883
 2141TIP3    H227915   3.020   4.014  13.426 -1.8162  1.0042  1.4286
 2142TIP3   OH227916   3.949   1.848  13.937  0.6829  0.0226 -0.0863
 2142TIP3    H127917   3.897   1.887  14.008 -0.9357 -1.3296 -0.4711
 2142TIP3    H227918   3.962   1.757  13.964  1.5812 -0.0488 -0.7172
 2143TIP3   OH227919   0.913   3.572  11.901 -0.1869 -0.6663 -0.4271
 2143TIP3    H127920   0.913   3.512  11.826  0.3870 -2.4432  0.9365
 2143TIP3    H227921   0.987   3.543  11.954 -0.2600  0.9040  0.5872
 2144TIP3   OH227922   3.365   3.983   5.371 -0.2824  0.1440  0.5261
 2144TIP3    H127923   3.445   4.030   5.347  0.1045 -0.1026  1.3109
 2144TIP3    H227924   3.294   4.037   5.335  0.2608 -0.7293 -2.0784
 2145TIP3   OH227925   2.455   2.231   6.430 -0.0505  0.1459 -0.9829
 2145TIP3    H127926   2.375   2.187   6.457 -1.2817  2.4289 -0.6960
 2145TIP3    H227927   2.426   2.300   6.370  1.8225  0.3561 -1.7353
 2146TIP3   OH227928   2.520   1.926   4.852 -0.8037 -0.6385 -0.2004
 2146TIP3    H127929   2.468   1.854   4.888 -4.4047  1.2068 -1.1765
 2146TIP3    H227930   2.513   1.915   4.757  0.6009 -0.2492 -0.3740
 2147TIP3   OH227931   3.994   0.808  12.628 -0.0151 -0.4009 -0.0733
 2147TIP3    H127932   4.006   0.713  12.622 -0.8616 -0.4863 -0.4242
 2147TIP3    H227933   3.904   0.819  12.658  0.4087  0.2768  0.9772
 2148TIP3   OH227934   2.054   4.021   2.948 -0.6196 -0.2472 -0.1820
 2148TIP3    H127935   1.966   4.042   2.916 -1.4895 -2.2855  0.6512
 2148TIP3    H227936   2.086   3.953   2.889  0.1445  0.0436 -0.1149
 2149TIP3   OH227937   0.338   5.946  15.471  0.1679 -0.0312  0.4911
 2149TIP3    H127938   0.424   5.966  15.510  0.1141 -2.1877  1.8886
 2149TIP3    H227939   0.276   5.961  15.542 -0.6671  1.3848 -0.4807
 2150TIP3   OH227940   0.063   6.611  15.087  0.0179  0.0856  0.0607
 2150TIP3    H127941   0.092   6.702  15.083 -1.2707  0.4741 -1.5556
 2150TIP3    H227942  -0.031   6.616  15.070 -0.4262 -1.4163  1.7498
 2151TIP3   OH227943   5.755   6.571  15.174 -0.0327  0.2459 -0.0573
 2151TIP3    H127944   5.806   6.577  15.254  1.4762  1.0422 -1.0153
 2151TIP3    H227945   5.668   6.601  15.198  0.4536  0.6797  1.2326
 2152TIP3   OH227946   1.877   4.409  12.709 -0.5727  0.1614 -0.4040
 2152TIP3    H127947   1.848   4.318  12.716  2.1819 -0.6835  2.0566
 2152TIP3    H227948   1.952   4.406  12.648  1.7749 -0.0196  2.2825
 2153TIP3   OH227949   3.911   2.608  11.423 -0.2426  0.2242  0.1411
 2153TIP3    H127950   3.842   2.561  11.376 -0.0631 -0.4508  0.5418
 2153TIP3    H227951   3.990   2.558  11.404 -0.1102  0.1506  0.8745
 2154TIP3   OH227952   1.482   0.388  16.194  0.0561 -0.2587  0.2339
 2154TIP3    H127953   1.518   0.361  16.108  3.1911 -2.1260  1.9150
 2154TIP3    H227954   1.453   0.306  16.233 -4.0289  0.9072  0.0356
 2155TIP3   OH227955   5.198   5.960   2.381 -0.5563 -0.7390 -0.3616
 2155TIP3    H127956   5.214   6.003   2.465  0.1663 -1.2648 -0.2140
 2155TIP3    H227957   5.265   5.892   2.376 -0.4842 -0.6101 -1.4431
 2156TIP3   OH227958   3.714   2.614   2.156  0.1214  0.0360 -0.0345
 2156TIP3    H127959   3.629   2.645   2.186  0.6681  0.7696  0.8295
 2156TIP3    H227960   3.736   2.542   2.215  1.1677  1.4361  1.3657
 2157TIP3   OH227961   1.754   5.969   0.170 -0.0648 -0.4966  0.8999
 2157TIP3    H127962   1.782   6.061   0.171 -2.7099  0.4035 -0.0958
 2157TIP3    H227963   1.795   5.931   0.248  2.7489  0.9409  0.2652
 2158TIP3   OH227964   3.125   6.705   3.985  0.1420  0.4917 -0.4276
 2158TIP3    H127965   3.042   6.674   3.948  0.8028 -1.0641 -0.7031
 2158TIP3    H227966   3.182   6.719   3.909  0.3414  0.8973 -0.2062
 2159TIP3   OH227967   5.559   5.272   2.971 -0.0221  0.0059 -0.3007
 2159TIP3    H127968   5.516   5.255   3.055 -0.2884  0.9787 -0.2308
 2159TIP3    H227969   5.489   5.304   2.914 -0.3210 -2.6403 -1.6002
 2160TIP3   OH227970   1.093   0.569  11.030  0.1199  0.3156  0.3942
 2160TIP3    H127971   1.019   0.629  11.039  1.0714  1.6622 -0.4522
 2160TIP3    H227972   1.053   0.482  11.035 -1.6050  0.9905 -0.6367
 2161TIP3   OH227973   5.299   5.065   3.036  0.1471 -0.1330 -0.7522
 2161TIP3    H127974   5.213   5.097   3.060 -0.0985 -0.9587 -0.4869
 2161TIP3    H227975   5.357   5.098   3.105  0.2087  1.1234 -1.3771
 2162TIP3   OH227976   4.254   5.333   0.431  0.1506  0.1398 -0.4192
 2162TIP3    H127977   4.162   5.325   0.405  0.8118  0.0484 -3.0263
 2162TIP3    H227978   4.255   5.308   0.523 -2.5096  0.7176 -0.1458
 2163TIP3   OH227979   3.047   1.953  12.084 -0.7076 -0.9888 -0.3091
 2163TIP3    H127980   3.043   1.968  11.990 -1.7708 -1.9098 -0.4385
 2163TIP3    H227981   2.982   2.013  12.120  0.9425  0.6536  0.0526
 2164TIP3   OH227982   0.633   2.879   6.074 -0.2317 -0.1983 -0.2660
 2164TIP3    H127983   0.639   2.828   5.993  0.8537 -0.7444  0.1380
 2164TIP3    H227984   0.550   2.851   6.113  0.3815 -1.7770 -0.0046
 2165TIP3   OH227985   5.114   0.971  14.957  0.4092 -0.7729  0.2586
 2165TIP3    H127986   5.139   0.878  14.958 -0.8970 -1.1448 -0.0522
 2165TIP3    H227987   5.046   0.977  14.890  0.5845  0.4494  0.1676
 2166TIP3   OH227988   0.380   5.182  12.967  0.2969 -0.1543  0.3660
 2166TIP3    H127989   0.306   5.176  12.907 -0.4452 -0.4308  1.2873
 2166TIP3    H227990   0.413   5.092  12.973  2.8120  0.3743 -2.5310
 2167TIP3   OH227991   0.846   1.802  13.171 -0.2234 -0.0110  0.0805
 2167TIP3    H127992   0.799   1.812  13.088  1.3614 -1.1514 -1.0207
 2167TIP3    H227993   0.838   1.709  13.193 -0.9072  0.3400  1.4102
 2168TIP3   OH227994   1.738   0.960   0.346 -0.3058  0.2913 -0.0193
 2168TIP3    H127995   1.678   1.001   0.283 -1.7372  0.7732  1.5733
 2168TIP3    H227996   1.801   1.029   0.367 -1.3614  1.0180  0.9467
 2169TIP3   OH227997   6.472   0.093   4.090 -0.4279  0.2247  0.1671
 2169TIP3    H127998   6.418   0.037   4.035 -0.7377  2.3277 -1.8621
 2169TIP3    H227999   6.493   0.040   4.167 -0.5267 -2.6426 -1.6717
 2170TIP3   OH228000   4.105   1.459  15.128 -0.1116  0.2587  0.6940
 2170TIP3    H128001   4.060   1.534  15.166  0.9479  0.5479  1.3991
 2170TIP3    H228002   4.052   1.436  15.051  0.4326  2.7207 -0.4911
 2171TIP3   OH228003   5.164   0.747   0.251  0.2441 -0.2445 -0.0345
 2171TIP3    H128004   5.235   0.697   0.290  0.3611 -0.4256 -0.4715
 2171TIP3    H228005   5.098   0.682   0.228  0.0965 -0.1185  0.0266
 2172TIP3   OH228006   4.687   4.086  16.102  0.7520  0.1290  0.1361
 2172TIP3    H128007   4.633   4.043  16.036 -1.0364 -0.5390  1.9355
 2172TIP3    H228008   4.727   4.013  16.151 -0.3764  0.5055  1.6805
 2173TIP3   OH228009   1.751   0.185   1.249 -0.4096 -0.0808  0.4801
 2173TIP3    H128010   1.683   0.153   1.309 -0.4924 -0.5196  0.1592
 2173TIP3    H228011   1.792   0.257   1.296 -1.8799  0.9680  0.2119
 2174TIP3   OH228012   6.720   2.058   2.732 -0.5789  0.5583  0.0775
 2174TIP3    H128013   6.713   2.149   2.760  0.4668  0.6702  0.0201
 2174TIP3    H228014   6.637   2.040   2.688 -0.6798  1.5749 -0.1802
 2175TIP3   OH228015   1.415   0.742  16.439  0.0232  0.1608  0.0226
 2175TIP3    H128016   1.500   0.761  16.400 -1.1559  0.7919 -2.4805
 2175TIP3    H228017   1.368   0.695  16.370 -2.0837  0.9585  0.8384
 2176TIP3   OH228018   5.982   3.733  12.052 -0.5921  0.4908 -0.1371
 2176TIP3    H128019   5.927   3.664  12.015 -0.7427  0.0534  0.8807
 2176TIP3    H228020   6.032   3.766  11.977 -1.6187  0.3222 -0.9193
 2177TIP3   OH228021   5.114   6.409   1.279 -0.4291 -0.0182 -0.6642
 2177TIP3    H128022   5.194   6.460   1.287 -0.6933  0.2893  0.1551
 2177TIP3    H228023   5.138   6.333   1.226  0.1081  0.6632 -1.4242
 2178TIP3   OH228024   3.183   6.427  15.051 -0.1205  0.3365  1.2034
 2178TIP3    H128025   3.091   6.424  15.077 -0.6076  0.1944 -0.4251
 2178TIP3    H228026   3.187   6.497  14.985  0.9042  0.2345  1.1450
 2179TIP3   OH228027   1.592   0.402   5.851 -0.7290  0.4804 -0.0987
 2179TIP3    H128028   1.662   0.409   5.916 -1.7610 -0.8442  1.2248
 2179TIP3    H228029   1.611   0.321   5.804  0.2541  1.6457 -1.8189
 2180TIP3   OH228030   0.582   1.666   5.558  0.3194  0.4106 -0.1457
 2180TIP3    H128031   0.532   1.719   5.620 -1.6762  0.2628 -1.5244
 2180TIP3    H228032   0.546   1.578   5.568  0.2690  0.3026 -1.1674
 2181TIP3   OH228033   5.649   3.036   4.491 -0.1478 -0.6889  0.5105
 2181TIP3    H128034   5.702   3.115   4.496 -0.8175 -0.2764  1.3156
 2181TIP3    H228035   5.570   3.056   4.542 -1.4877 -0.9765 -1.3419
 2182TIP3   OH228036   6.553   6.342   2.762  0.6243  0.3538 -0.9297
 2182TIP3    H128037   6.539   6.353   2.856  0.0709  0.7384 -1.0538
 2182TIP3    H228038   6.465   6.331   2.727  0.7554  1.1684 -1.5274
 2183TIP3   OH228039   3.805   1.130   6.396 -0.5039 -0.7857  0.2060
 2183TIP3    H128040   3.866   1.055   6.394  1.5104  0.7879 -0.3431
 2183TIP3    H228041   3.822   1.172   6.480 -0.4938 -0.0715 -0.1475
 2184TIP3   OH228042   2.954   0.844  11.451  0.0416  0.1707 -0.1811
 2184TIP3    H128043   2.931   0.800  11.370 -0.3550  1.5304 -0.8371
 2184TIP3    H228044   3.023   0.791  11.489  0.5747 -0.2185 -1.6526
 2185TIP3   OH228045   0.425   2.508   2.411 -0.9186  0.5197 -0.1212
 2185TIP3    H128046   0.505   2.560   2.394 -1.2810  0.9070 -0.6885
 2185TIP3    H228047   0.421   2.501   2.506 -1.0788  1.9128  0.0022
 2186TIP3   OH228048   6.765   4.595  14.147 -0.0311  0.3945  0.2789
 2186TIP3    H128049   6.691   4.623  14.093  0.1844  2.2456  0.8868
 2186TIP3    H228050   6.841   4.602  14.090 -0.2179 -1.0271 -0.1916
 2187TIP3   OH228051   3.629   5.382   1.405  0.1707  0.2154 -0.0002
 2187TIP3    H128052   3.694   5.312   1.400 -0.4433 -0.3249 -0.5664
 2187TIP3    H228053   3.546   5.337   1.421 -0.1156  0.8776  0.4447
 2188TIP3   OH228054   4.631   4.730  13.908  0.5074 -0.1761  0.2986
 2188TIP3    H128055   4.593   4.700  13.825 -0.3721 -0.4383  0.7805
 2188TIP3    H228056   4.721   4.754  13.886  0.7857 -1.7360 -0.4227
 2189TIP3   OH228057   3.292   6.570  15.973  0.2126 -0.1457 -0.6930
 2189TIP3    H128058   3.347   6.586  15.896 -0.7938  0.2764 -1.3481
 2189TIP3    H228059   3.223   6.512  15.942  1.7558 -2.9729  0.7883
 2190TIP3   OH228060   1.157   2.540  14.884  0.5073 -0.5674  0.4431
 2190TIP3    H128061   1.236   2.595  14.885 -0.0354  0.2279  1.0995
 2190TIP3    H228062   1.190   2.451  14.881  1.4678 -0.2724  1.5418
 2191TIP3   OH228063   4.488   6.414  14.391 -0.0585 -0.1105  0.4252
 2191TIP3    H128064   4.524   6.489  14.439  0.8222  0.4002 -0.9774
 2191TIP3    H228065   4.409   6.449  14.349  0.6505  0.2214 -0.6791
 2192TIP3   OH228066   2.919   6.624   2.247 -0.1751  0.3454  0.4703
 2192TIP3    H128067   2.985   6.562   2.214  0.3976  0.2686  1.7051
 2192TIP3    H228068   2.930   6.622   2.342 -1.6002  0.7548  0.6652
 2193TIP3   OH228069   0.789   6.716   4.695  0.0096  0.0564 -0.0122
 2193TIP3    H128070   0.808   6.740   4.604 -1.6175  0.2657 -0.3338
 2193TIP3    H228071   0.842   6.639   4.712  0.5406  0.1783 -1.0533
 2194TIP3   OH228072   0.776   1.428   0.355  0.7024  0.4637  0.1262
 2194TIP3    H128073   0.688   1.412   0.322  0.8946  0.3009 -0.3112
 2194TIP3    H228074   0.810   1.341   0.376  0.2234  0.6193  1.7144
 2195TIP3   OH228075   1.373   5.488   5.573  0.5348  0.2716  0.9308
 2195TIP3    H128076   1.284   5.472   5.603  0.5156 -0.1073  0.6761
 2195TIP3    H228077   1.418   5.527   5.648 -0.2023  1.7392  0.6520
 2196TIP3   OH228078   1.907   4.845   2.221  0.0818 -0.5273  0.1056
 2196TIP3    H128079   1.825   4.855   2.268  1.0701  0.7986  1.6304
 2196TIP3    H228080   1.896   4.764   2.170 -1.4745 -1.3521  1.6705
 2197TIP3   OH228081   6.205   3.931   2.669 -0.0775 -0.2454 -0.1764
 2197TIP3    H128082   6.143   3.898   2.604  0.7558  0.5960 -1.4499
 2197TIP3    H228083   6.214   4.024   2.648 -0.8860  0.4043  2.0825
 2198TIP3   OH228084   3.982   2.988  13.099  0.3520 -0.3245 -0.0769
 2198TIP3    H128085   3.913   3.008  13.035  0.1081 -0.6570  0.0760
 2198TIP3    H228086   4.041   2.929  13.053  0.9217  0.5069 -0.4370
 2199TIP3   OH228087   6.455   0.485   0.211 -0.4331 -0.2699 -0.0277
 2199TIP3    H128088   6.497   0.543   0.148  0.1743 -0.3789  0.2664
 2199TIP3    H228089   6.504   0.403   0.204 -0.0456 -0.1294  0.9221
 2200TIP3   OH228090   1.018   5.230   4.320 -0.6022 -0.0502 -0.8118
 2200TIP3    H128091   1.032   5.144   4.279  0.0200 -0.0711 -0.5705
 2200TIP3    H228092   1.006   5.211   4.413  0.1908  0.1655 -0.6544
 2201TIP3   OH228093   2.382   4.629  14.873  0.3712  0.2950  0.1927
 2201TIP3    H128094   2.357   4.609  14.783 -0.0863  1.2701  0.0972
 2201TIP3    H228095   2.448   4.697  14.866 -0.0238  0.7305  0.6080
 2202TIP3   OH228096   6.748   5.577   4.462 -0.6588  0.3942 -0.7234
 2202TIP3    H128097   6.722   5.563   4.552  0.0491 -0.9203 -0.7073
 2202TIP3    H228098   6.793   5.662   4.463 -0.5964  0.3563  0.1649
 2203TIP3   OH228099   0.841   6.192  12.645  0.4426  0.4098  0.6368
 2203TIP3    H128100   0.879   6.254  12.583  0.6196 -1.0690 -0.7888
 2203TIP3    H228101   0.790   6.132  12.591 -1.0025  0.2162  2.1480
 2204TIP3   OH228102   5.804   4.049   4.453  0.3727 -0.3162  0.0690
 2204TIP3    H128103   5.788   4.015   4.365  2.6877  0.4017 -0.6929
 2204TIP3    H228104   5.760   3.986   4.511  0.5453 -1.9708 -1.5066
 2205TIP3   OH228105   6.305   6.239  16.596 -0.0149  0.3836 -0.4389
 2205TIP3    H128106   6.304   6.207  16.506  2.2222 -0.4834 -0.2039
 2205TIP3    H228107   6.308   6.160  16.650  0.3018  0.9117  0.3378
 2206TIP3   OH228108   3.913   4.102  15.056 -0.1719  0.3988 -0.3471
 2206TIP3    H128109   3.895   4.196  15.057  1.6252  0.8075  1.8404
 2206TIP3    H228110   4.008   4.096  15.054 -0.2356 -1.3651  0.3831
 2207TIP3   OH228111   2.869   5.342  11.975  0.2474 -0.4190 -0.4936
 2207TIP3    H128112   2.873   5.266  12.033 -0.7022  0.0462  0.2167
 2207TIP3    H228113   2.945   5.395  12.001 -0.5953  0.1522  0.8834
 2208TIP3   OH228114   6.620   3.899   3.530  0.3978  0.3101  0.1913
 2208TIP3    H128115   6.629   3.876   3.437 -1.8973  0.9036 -0.2456
 2208TIP3    H228116   6.614   3.815   3.575 -1.9900 -0.0888 -0.6820
 2209TIP3   OH228117   0.043   0.747  14.075 -0.0925  0.3264 -0.1884
 2209TIP3    H128118   0.068   0.773  13.986  1.0995  0.6881  0.2322
 2209TIP3    H228119  -0.031   0.804  14.096  0.2017  0.8838 -0.6099
 2210TIP3   OH228120   2.837   4.896  16.450  0.8099  0.2788  0.0640
 2210TIP3    H128121   2.807   4.980  16.485  2.0147  1.2285 -1.0664
 2210TIP3    H228122   2.905   4.919  16.387  1.6416 -1.5913  0.1955
 2211TIP3   OH228123   2.599   0.707  13.679 -0.2523 -0.2624 -0.5500
 2211TIP3    H128124   2.667   0.769  13.651 -0.5534  0.6537  0.6771
 2211TIP3    H228125   2.517   0.748  13.651 -0.3854 -0.7078 -0.8157
 2212TIP3   OH228126   1.901   5.687   2.021  0.3661  0.1022 -0.2973
 2212TIP3    H128127   1.934   5.638   1.945  0.0148 -1.9904  0.8036
 2212TIP3    H228128   1.876   5.619   2.083 -0.4208  1.7389  1.2581
 2213TIP3   OH228129   4.604   1.049  13.949  0.1660 -0.2136 -0.0473
 2213TIP3    H128130   4.611   0.957  13.972 -1.4348 -0.6855 -1.2977
 2213TIP3    H228131   4.674   1.063  13.885  1.5008 -0.0971  1.3860
 2214TIP3   OH228132   1.311   2.386  12.081  0.2566 -0.0750  1.1073
 2214TIP3    H128133   1.242   2.355  12.140 -1.5930 -1.8148 -1.7359
 2214TIP3    H228134   1.349   2.305  12.045  0.0170  0.8518 -1.4170
 2215TIP3   OH228135   3.658   4.474  13.221 -0.3135  0.9413  0.0357
 2215TIP3    H128136   3.668   4.559  13.178  2.2426  0.2815 -0.8467
 2215TIP3    H228137   3.626   4.495  13.308 -1.8103  2.6196 -0.8662
 2216TIP3   OH228138   6.090   2.991   2.211  0.4360 -0.2522  0.3353
 2216TIP3    H128139   6.049   3.068   2.251  2.2201  1.4293 -0.8958
 2216TIP3    H228140   6.042   2.978   2.130 -1.5814 -2.1699  1.6943
 2217TIP3   OH228141   0.014   2.524   1.826 -0.9082  0.6216 -0.1217
 2217TIP3    H128142  -0.043   2.586   1.871 -0.3585  0.4288  0.8595
 2217TIP3    H228143  -0.020   2.438   1.852 -0.6455  0.5062 -0.1571
 2218TIP3   OH228144   5.908   1.763   1.313 -0.0100 -0.2767 -0.4516
 2218TIP3    H128145   5.939   1.853   1.300 -0.6055  0.1163  0.7289
 2218TIP3    H228146   5.988   1.712   1.325  0.3247  0.1187 -0.9625
 2219TIP3   OH228147   1.275   2.565   5.624 -0.5380  0.3481 -0.4730
 2219TIP3    H128148   1.189   2.600   5.601 -0.4450  1.0231  0.1807
 2219TIP3    H228149   1.335   2.606   5.562 -0.3991  1.5308  0.4221
 2220TIP3   OH228150   3.917   4.378  15.082  0.2465 -0.0974  0.1844
 2220TIP3    H128151   3.951   4.373  14.993  0.9729  2.8546  0.1852
 2220TIP3    H228152   3.994   4.368  15.138  0.3594  1.3957  0.3385
 2221TIP3   OH228153   5.733   1.973   4.698  0.2458  0.5463 -0.0805
 2221TIP3    H128154   5.792   2.027   4.645  0.7578  1.5181  1.4151
 2221TIP3    H228155   5.647   2.014   4.686  0.3219  0.6332 -0.3365
 2222TIP3   OH228156   0.820   2.338  11.846  1.0073  0.3114  0.1543
 2222TIP3    H128157   0.880   2.402  11.807  0.4911  0.5651 -0.2441
 2222TIP3    H228158   0.733   2.374  11.829  0.6083 -1.3187 -1.6355
 2223TIP3   OH228159   5.900   4.512   3.681 -0.0703 -0.0576 -0.0386
 2223TIP3    H128160   5.938   4.585   3.730 -1.1801  0.2773  0.3480
 2223TIP3    H228161   5.973   4.478   3.629  0.0488  2.6019 -1.8149
 2224TIP3   OH228162   0.881   6.425   5.189 -0.2609 -0.1830  0.1966
 2224TIP3    H128163   0.875   6.341   5.144  1.0874 -0.8067  1.1043
 2224TIP3    H228164   0.903   6.402   5.279 -0.5055  1.1352  0.6217
 2225TIP3   OH228165   3.777   0.148   3.060 -0.2025 -0.1989  0.1367
 2225TIP3    H128166   3.691   0.123   3.027  0.3385 -0.9813 -0.7064
 2225TIP3    H228167   3.784   0.241   3.041 -0.9229 -0.0905  0.3679
 2226TIP3   OH228168   2.108   1.647   0.982  0.4521  0.1694 -0.5038
 2226TIP3    H128169   2.053   1.724   0.998  0.9577  0.6685 -1.0897
 2226TIP3    H228170   2.169   1.646   1.056  0.2935  0.1975 -0.3726
 2227TIP3   OH228171   5.244   0.617   2.968 -0.1880 -0.0095 -0.1827
 2227TIP3    H128172   5.167   0.568   2.937 -0.4887  0.1305  0.3359
 2227TIP3    H228173   5.213   0.665   3.044  0.5400 -0.3151  0.3142
 2228TIP3   OH228174   4.350   0.551   1.104  0.0347 -0.0919  0.0976
 2228TIP3    H128175   4.379   0.635   1.138  1.5321 -0.3638 -0.4070
 2228TIP3    H228176   4.273   0.529   1.156 -0.2517  1.4693  0.3914
 2229TIP3   OH228177   3.141   4.454  16.290 -0.0798 -0.4876 -0.1365
 2229TIP3    H128178   3.164   4.478  16.380  0.4159 -0.9499 -0.1384
 2229TIP3    H228179   3.215   4.483  16.238 -0.6316  0.3394 -0.4908
 2230TIP3   OH228180   0.832   0.839   2.554 -0.5819 -0.0594  0.1433
 2230TIP3    H128181   0.754   0.809   2.508 -0.3635  0.4089 -0.5426
 2230TIP3    H228182   0.903   0.829   2.490 -0.3933  1.3268  0.1036
 2231TIP3   OH228183   5.151   4.083   1.438  0.2448 -0.2743 -0.3369
 2231TIP3    H128184   5.073   4.042   1.477 -0.3417 -0.7005 -1.8988
 2231TIP3    H228185   5.159   4.166   1.485 -0.8461 -0.4476  0.2085
 2232TIP3   OH228186   6.182   0.339   3.030 -0.0095 -0.0137 -0.1284
 2232TIP3    H128187   6.114   0.296   3.082 -0.9891  1.6107 -0.0009
 2232TIP3    H228188   6.135   0.401   2.975  1.3530  1.0945 -0.1081
 2233TIP3   OH228189   2.307   3.579  13.250 -0.1286  0.2514  0.2360
 2233TIP3    H128190   2.227   3.631  13.255  0.1239  0.5130  2.1116
 2233TIP3    H228191   2.376   3.637  13.282  0.4491 -0.6605  0.6906
 2234TIP3   OH228192   4.571   3.821  14.420 -0.4990  0.5360  0.1154
 2234TIP3    H128193   4.583   3.913  14.441 -0.8449  0.7207 -0.4966
 2234TIP3    H228194   4.601   3.812  14.330  0.9764 -0.2567  0.6477
 2235TIP3   OH228195   4.588   2.833   3.680  0.1880  0.0800 -0.3431
 2235TIP3    H128196   4.676   2.815   3.649 -0.7027 -1.7153 -1.9926
 2235TIP3    H228197   4.599   2.905   3.743  2.3822  2.4020 -3.1341
 2236TIP3   OH228198   1.973   6.294   0.593 -0.4492  0.0045 -0.6201
 2236TIP3    H128199   1.889   6.254   0.614  0.0640 -1.9504 -1.9763
 2236TIP3    H228200   1.955   6.353   0.520 -1.2105  2.3614  1.3703
 2237TIP3   OH228201   4.274   3.747   1.525 -0.5743  0.2327  0.4947
 2237TIP3    H128202   4.348   3.724   1.469 -1.3823 -1.3758  0.0292
 2237TIP3    H228203   4.263   3.842   1.514 -0.2596  0.0655 -1.5100
 2238TIP3   OH228204   6.679   6.582   4.502  0.2739 -0.9307  0.1124
 2238TIP3    H128205   6.612   6.518   4.479 -0.6611  0.1657 -0.2569
 2238TIP3    H228206   6.760   6.546   4.464 -0.0845 -2.2357  0.5226
 2239TIP3   OH228207   1.022   3.254  15.514 -0.7618 -0.4401 -0.4595
 2239TIP3    H128208   0.980   3.207  15.586 -1.9031  0.1273 -0.7285
 2239TIP3    H228209   0.949   3.291  15.464 -0.0149 -0.9771 -2.0166
 2240TIP3   OH228210   5.992   0.625   2.520 -0.7240  0.4756  0.1084
 2240TIP3    H128211   6.022   0.560   2.456  1.2639  0.1418  1.2913
 2240TIP3    H228212   5.929   0.578   2.575  0.9949 -0.6454  1.2043
 2241TIP3   OH228213   2.790   0.252   2.247 -0.1495  0.0338 -0.2521
 2241TIP3    H128214   2.853   0.313   2.286  1.0281 -0.4653 -1.3313
 2241TIP3    H228215   2.832   0.167   2.253 -0.0860 -0.1076 -2.2642
 2242TIP3   OH228216   6.428   3.739  14.097  0.4842 -0.0693 -0.3032
 2242TIP3    H128217   6.392   3.766  14.012 -0.5905  1.7692  0.6896
 2242TIP3    H228218   6.523   3.745  14.085  0.3351  1.5669 -0.9773
 2243TIP3   OH228219   1.800   3.722  12.800 -0.6288 -0.5912  0.0706
 2243TIP3    H128220   1.862   3.728  12.872  0.4566 -0.5988 -0.8332
 2243TIP3    H228221   1.762   3.634  12.809 -1.8939  0.0700  1.6871
 2244TIP3   OH228222   6.174   2.418  12.251 -0.1801 -0.4408 -0.0170
 2244TIP3    H128223   6.159   2.405  12.344 -1.2466  0.6049 -0.0192
 2244TIP3    H228224   6.115   2.490  12.227  1.5336  0.7032 -1.0657
 2245TIP3   OH228225   4.254   5.383  13.577 -0.5763 -1.2272  0.0778
 2245TIP3    H128226   4.321   5.414  13.516  1.4598 -0.5395  2.4652
 2245TIP3    H228227   4.266   5.288  13.580 -1.4365 -1.4137 -1.3119
 2246TIP3   OH228228   5.533   0.834   0.725  0.1163  0.2283 -0.0221
 2246TIP3    H128229   5.549   0.846   0.631  0.5667  0.5403  0.0873
 2246TIP3    H228230   5.618   0.850   0.766 -0.5423  2.3991  0.6297
 2247TIP3   OH228231   3.658   2.330  16.148 -0.3956  0.2871 -0.3271
 2247TIP3    H128232   3.738   2.299  16.190 -1.6989 -0.3036  1.8502
 2247TIP3    H228233   3.642   2.416  16.187 -0.2825  0.9067 -1.5736
 2248TIP3   OH228234   2.045   2.993   1.744  0.0837  0.7575 -0.2417
 2248TIP3    H128235   2.095   3.043   1.680  1.2778  0.5964  0.5400
 2248TIP3    H228236   2.006   2.922   1.694  0.4701  1.0060 -0.9012
 2249TIP3   OH228237   4.464   6.142  16.390 -0.1492  0.0361  0.1800
 2249TIP3    H128238   4.531   6.139  16.321 -0.2885  0.1982  0.0345
 2249TIP3    H228239   4.387   6.177  16.346 -0.7906 -1.5529 -0.0433
 2250TIP3   OH228240   2.185   1.419  16.339  0.0436 -0.4179 -0.5694
 2250TIP3    H128241   2.194   1.359  16.413 -0.5035  0.0521 -0.1114
 2250TIP3    H228242   2.236   1.379  16.268 -0.6843 -1.6466 -0.4138
 2251TIP3   OH228243   0.107   6.212  17.002 -0.2582 -0.3319 -0.0300
 2251TIP3    H128244   0.092   6.306  16.996 -0.5811 -0.4381 -1.1963
 2251TIP3    H228245   0.164   6.192  16.928  0.1055 -1.0077  0.4208
 2252TIP3   OH228246   0.865   6.545   3.328 -0.3157 -0.6381  0.1230
 2252TIP3    H128247   0.806   6.617   3.351 -0.0910 -0.5486  0.4263
 2252TIP3    H228248   0.807   6.472   3.307 -0.5311 -0.6722  0.8208
 2253TIP3   OH228249   6.109   2.158  12.042  0.3457 -0.0906  0.1505
 2253TIP3    H128250   6.083   2.104  12.117  0.4096  0.3076  0.4656
 2253TIP3    H228251   6.070   2.243  12.060  2.3813  0.7422  0.9966
 2254TIP3   OH228252   1.073   4.457  10.865  0.8707  0.0005  0.1793
 2254TIP3    H128253   1.011   4.523  10.833  0.5023 -1.6173 -2.8931
 2254TIP3    H228254   1.151   4.469  10.810  2.5961  0.6897  2.6203
 2255TIP3   OH228255   2.102   0.342  12.112  0.3578 -0.0071 -0.1913
 2255TIP3    H128256   2.085   0.377  12.200 -0.4442  0.3558 -0.4822
 2255TIP3    H228257   2.194   0.313  12.115  0.5155  0.5420  0.5801
 2256TIP3   OH228258   3.484   6.364  11.999 -0.1379  0.4532  0.4271
 2256TIP3    H128259   3.472   6.396  12.088 -0.5378 -0.6496  0.7921
 2256TIP3    H228260   3.440   6.279  11.999 -1.3661  1.0512 -1.2222
 2257TIP3   OH228261   2.988   2.401   4.565 -0.1529  0.2095  0.9047
 2257TIP3    H128262   3.033   2.435   4.487 -0.6394  0.9118  0.9223
 2257TIP3    H228263   3.059   2.377   4.625  0.2126  1.5621  1.0405
 2258TIP3   OH228264   6.258   0.774   1.068 -0.2940 -0.1272 -0.4478
 2258TIP3    H128265   6.252   0.856   1.117  0.4031 -0.3708  0.0617
 2258TIP3    H228266   6.338   0.783   1.016 -0.4873 -0.2820 -0.7761
 2259TIP3   OH228267   6.385   1.098   2.957  0.4502 -0.1975  0.7167
 2259TIP3    H128268   6.292   1.112   2.976  0.4816 -0.4394  1.0555
 2259TIP3    H228269   6.399   1.005   2.975  1.7703  0.6422  5.0650
 2260TIP3   OH228270   5.566   4.958  14.925  0.1711  0.0933  0.0056
 2260TIP3    H128271   5.552   4.899  14.850 -0.5932 -0.1241  0.3129
 2260TIP3    H228272   5.481   4.998  14.940  0.4176  0.4303  0.5165
 2261TIP3   OH228273   1.890   2.552  11.804  0.4751 -0.6127  0.7367
 2261TIP3    H128274   1.882   2.635  11.851 -0.1404  0.1145 -0.5866
 2261TIP3    H228275   1.984   2.539  11.793  0.6698  2.5251 -3.3387
 2262TIP3   OH228276   3.460   3.757  15.280 -0.5105  0.4399  0.3739
 2262TIP3    H128277   3.441   3.663  15.283  1.1991 -0.0481 -1.4148
 2262TIP3    H228278   3.375   3.800  15.279 -1.3275 -1.0025  2.2105
 2263TIP3   OH228279   0.434   5.512   5.235 -0.1906  0.3431 -0.0221
 2263TIP3    H128280   0.529   5.513   5.246 -0.2925 -2.0870  2.0431
 2263TIP3    H228281   0.420   5.494   5.141  1.5299 -2.3937  0.1353
 2264TIP3   OH228282   2.982   6.769  12.799  0.0975 -0.0319  0.2551
 2264TIP3    H128283   3.007   6.854  12.765  1.4012 -1.5550 -3.0638
 2264TIP3    H228284   2.978   6.781  12.894 -0.1412  3.7302 -0.0792
 2265TIP3   OH228285   2.185   5.181  15.264 -0.2309 -0.4735 -0.2799
 2265TIP3    H128286   2.276   5.162  15.242 -0.2274  0.3888 -1.0619
 2265TIP3    H228287   2.168   5.267  15.224 -1.6923 -1.0794 -1.0358
 2266TIP3   OH228288   4.217   1.946   0.285  0.2393 -0.2970 -0.2997
 2266TIP3    H128289   4.226   1.858   0.249  1.5110 -0.4945  0.4104
 2266TIP3    H228290   4.307   1.979   0.288 -0.2201  1.0221 -0.5401
 2267TIP3   OH228291   6.481   4.615  13.161  0.3858  0.0603 -0.5505
 2267TIP3    H128292   6.414   4.566  13.209  0.0398  1.9139  0.9530
 2267TIP3    H228293   6.476   4.581  13.072 -1.7261 -0.7008 -0.1957
 2268TIP3   OH228294   0.158   3.224   6.107  0.4433 -0.1339  0.0699
 2268TIP3    H128295   0.103   3.202   6.182  2.4373 -0.1313  1.5998
 2268TIP3    H228296   0.149   3.149   6.049 -1.1366 -0.1366  0.2640
 2269TIP3   OH228297   4.678   4.200   5.806  0.1684  0.5456 -0.7158
 2269TIP3    H128298   4.660   4.291   5.782 -1.1774  0.1512 -1.2613
 2269TIP3    H228299   4.603   4.174   5.859  1.1669  0.1363  0.5537
 2270TIP3   OH228300   1.675   5.978   1.925  0.4064 -0.1522  0.0072
 2270TIP3    H128301   1.655   6.039   1.855  0.3255 -0.3137 -0.1124
 2270TIP3    H228302   1.593   5.971   1.975  0.9073  1.2089  1.0946
 2271TIP3   OH228303   5.204   4.890   3.676 -0.5309 -0.4971 -0.2679
 2271TIP3    H128304   5.211   4.980   3.643  2.3727 -0.4256  0.2672
 2271TIP3    H228305   5.261   4.839   3.619  0.4586 -1.3503  1.4204
 2272TIP3   OH228306   5.551   2.668   0.453  0.0484 -0.5611  0.2550
 2272TIP3    H128307   5.475   2.689   0.508  0.6551 -1.5172  1.5288
 2272TIP3    H228308   5.611   2.741   0.466 -0.7679  0.3791 -1.0436
 2273TIP3   OH228309   4.315   5.011   6.033  0.9346 -0.2593  0.0271
 2273TIP3    H128310   4.367   5.048   6.104  1.7861 -0.1752 -0.6213
 2273TIP3    H228311   4.295   5.085   5.976  3.3132 -0.7970 -1.6940
 2274TIP3   OH228312   5.206   3.943  11.232  0.3716 -0.3002 -0.2267
 2274TIP3    H128313   5.174   3.855  11.213 -0.8258 -0.3647  1.8140
 2274TIP3    H228314   5.149   4.000  11.181  0.6242 -0.6546 -0.9210
 2275TIP3   OH228315   2.328   0.216  15.189 -0.0735 -0.1961 -0.8488
 2275TIP3    H128316   2.312   0.123  15.176  0.4792 -0.5304  0.5650
 2275TIP3    H228317   2.242   0.257  15.184 -0.6559 -1.1256  0.8180
 2276TIP3   OH228318   5.989   3.294  14.164  0.6258  0.5449 -0.2480
 2276TIP3    H128319   6.036   3.281  14.246  1.1129  1.2737 -0.4070
 2276TIP3    H228320   5.912   3.346  14.189  0.5792  0.4481 -0.1905
 2277TIP3   OH228321   6.118   0.945  15.158  0.0670  0.4201 -0.1170
 2277TIP3    H128322   6.083   0.988  15.080  1.2333 -0.3939 -1.1318
 2277TIP3    H228323   6.079   0.858  15.157  1.3452 -0.1653 -0.7376
 2278TIP3   OH228324   3.420   5.554   6.078  0.5665  0.5722 -0.4571
 2278TIP3    H128325   3.416   5.477   6.135 -0.1151 -0.1267 -1.3994
 2278TIP3    H228326   3.502   5.597   6.101  1.4323 -0.9476 -0.5094
 2279TIP3   OH228327   3.919   3.434   0.575 -0.2189 -0.9684 -0.2202
 2279TIP3    H128328   3.935   3.529   0.579  0.3644 -1.1156  1.3991
 2279TIP3    H228329   3.879   3.412   0.659 -0.4113 -2.1559 -0.6043
 2280TIP3   OH228330   2.308   3.813   2.280  0.3862 -0.0807 -0.1908
 2280TIP3    H128331   2.361   3.883   2.317 -1.0148  1.3901 -0.8896
 2280TIP3    H228332   2.365   3.736   2.284  1.1829  0.5379  2.6505
 2281TIP3   OH228333   6.145   0.116  16.231  0.2331 -0.0565  0.2373
 2281TIP3    H128334   6.182   0.028  16.227  1.0043  0.2799 -0.5641
 2281TIP3    H228335   6.201   0.163  16.293  0.4050  0.1222 -0.0511
 2282TIP3   OH228336   5.783   5.424  14.823  0.0443 -0.1128  0.3215
 2282TIP3    H128337   5.780   5.329  14.834 -2.1087  0.0879  2.0581
 2282TIP3    H228338   5.787   5.458  14.912 -0.9992  1.4549 -0.2019
 2283TIP3   OH228339   6.108   1.592  15.121 -0.0290 -0.3361  0.3835
 2283TIP3    H128340   6.060   1.539  15.057 -0.2388  0.3767 -0.0645
 2283TIP3    H228341   6.144   1.665  15.070 -1.2832  0.9681  1.2764
 2284TIP3   OH228342   1.345   6.291   5.025  0.3068 -0.0640 -0.0048
 2284TIP3    H128343   1.366   6.381   5.049  0.9654  0.3965 -2.1011
 2284TIP3    H228344   1.411   6.267   4.959  0.9219 -2.5356  1.3531
 2285TIP3   OH228345   2.600   2.234  14.467 -0.1080 -0.5704 -0.9186
 2285TIP3    H128346   2.659   2.167  14.501 -1.0486 -0.1905  1.7441
 2285TIP3    H228347   2.649   2.316  14.474  0.0499 -0.6149 -1.4725
 2286TIP3   OH228348   5.865   2.254  11.319 -0.3253  0.3061 -0.2055
 2286TIP3    H128349   5.838   2.307  11.243 -0.2562 -0.4840 -0.7920
 2286TIP3    H228350   5.961   2.254  11.315 -0.3086  0.7049  0.1918
 2287TIP3   OH228351   0.702   0.626   6.026  0.2373 -0.7943 -0.1207
 2287TIP3    H128352   0.693   0.706   6.077  0.0065 -0.4423 -0.6970
 2287TIP3    H228353   0.754   0.652   5.950  0.5397 -1.2982 -0.0896
 2288TIP3   OH228354   0.895   3.598   2.295 -0.3901 -0.1188 -0.2010
 2288TIP3    H128355   0.873   3.612   2.202 -0.9499 -1.6468 -0.3282
 2288TIP3    H228356   0.877   3.505   2.310 -0.9774  0.2474  1.6291
 2289TIP3   OH228357   2.465   4.334   3.578  0.0782  0.9268 -0.2262
 2289TIP3    H128358   2.422   4.283   3.510 -1.4545 -0.0939  1.4052
 2289TIP3    H228359   2.475   4.273   3.651  0.7976  2.2236  0.8081
 2290TIP3   OH228360   0.738   3.122  14.080  0.5475 -0.3491  0.6292
 2290TIP3    H128361   0.696   3.043  14.045 -0.6504  0.8887 -0.8972
 2290TIP3    H228362   0.675   3.157  14.142  0.5782  0.0060  0.4598
 2291TIP3   OH228363   4.151   0.361  16.761  0.0926 -0.0426  0.3088
 2291TIP3    H128364   4.153   0.311  16.679  2.8632 -1.2631  1.0185
 2291TIP3    H228365   4.115   0.300  16.825  1.4263 -0.4350  0.7208
 2292TIP3   OH228366   2.305   2.801  14.578  0.4857  0.4056  0.4414
 2292TIP3    H128367   2.234   2.813  14.515 -1.3031  0.4360  2.3398
 2292TIP3    H228368   2.355   2.882  14.573  0.2452  0.4987 -0.7462
 2293TIP3   OH228369   4.902   4.955  15.565  0.6373  0.0550  0.1383
 2293TIP3    H128370   4.817   4.916  15.544  1.3483 -0.9730 -0.9716
 2293TIP3    H228371   4.897   5.043  15.530  0.1861 -0.1449 -0.3160
 2294TIP3   OH228372   3.357   3.699  16.452 -0.6656 -0.3104 -0.1978
 2294TIP3    H128373   3.387   3.788  16.432 -0.4664 -0.4760 -0.6471
 2294TIP3    H228374   3.431   3.643  16.428 -1.2544 -0.7108 -1.1728
 2295TIP3   OH228375   2.998   5.438  14.586 -0.2081 -0.8238  0.4323
 2295TIP3    H128376   2.986   5.471  14.676  1.8598 -0.0377  0.4763
 2295TIP3    H228377   2.998   5.343  14.595  0.1401 -0.7527  1.3246
 2296TIP3   OH228378   4.199   5.645   2.247 -0.2550  0.1293  0.2006
 2296TIP3    H128379   4.104   5.633   2.243 -0.2355  0.0713 -0.0585
 2296TIP3    H228380   4.235   5.558   2.231 -0.1378  0.3238 -0.6073
 2297TIP3   OH228381   0.498   2.834   1.674  0.0072 -0.3178  0.1825
 2297TIP3    H128382   0.539   2.912   1.711 -0.0954 -0.6353  0.9755
 2297TIP3    H228383   0.453   2.866   1.595 -0.4352  0.5139  0.7535
 2298TIP3   OH228384   3.721   4.904   1.265  0.0794  0.2563 -0.2797
 2298TIP3    H128385   3.668   4.962   1.211 -0.9717 -0.8505 -0.4888
 2298TIP3    H228386   3.666   4.827   1.280  0.8671 -0.0574  1.2405
 2299TIP3   OH228387   1.203   1.708   0.054 -0.3948  1.1703  0.0926
 2299TIP3    H128388   1.128   1.674   0.006  0.0082  0.0274  0.2476
 2299TIP3    H228389   1.251   1.761  -0.010  0.3861 -0.6986 -0.9515
 2300TIP3   OH228390   2.002   1.108  16.739  0.2847 -0.1363 -0.3221
 2300TIP3    H128391   1.991   1.194  16.699  0.0560  0.3410  0.7368
 2300TIP3    H228392   2.053   1.058  16.675 -1.0068  0.2223 -1.7089
 2301TIP3   OH228393   0.765   0.750  15.492  0.3789 -0.5106 -0.2207
 2301TIP3    H128394   0.746   0.772  15.401 -2.3999  0.0447  0.3976
 2301TIP3    H228395   0.796   0.832  15.531 -0.7407 -0.1082 -0.1446
 2302TIP3   OH228396   5.642   3.797  15.386 -0.4130 -0.1854  0.1940
 2302TIP3    H128397   5.641   3.859  15.459 -0.3214 -0.4235  0.3987
 2302TIP3    H228398   5.625   3.851  15.308  0.8282  0.2877  0.2251
 2303TIP3   OH228399   1.884   4.175  15.207 -0.1507  0.6679  0.3827
 2303TIP3    H128400   1.804   4.157  15.258  0.2196 -0.4642  0.5946
 2303TIP3    H228401   1.856   4.238  15.141 -1.4033 -0.1859  0.0385
 2304TIP3   OH228402   6.786   1.049   6.237  0.4050 -0.2874 -0.6429
 2304TIP3    H128403   6.700   1.085   6.260  0.7959  1.8048 -2.0892
 2304TIP3    H228404   6.781   0.957   6.259 -2.0958 -0.1459 -0.3603
 2305TIP3   OH228405   2.787   2.809   0.235 -0.0367  0.1483 -0.3613
 2305TIP3    H128406   2.783   2.719   0.204 -1.5380 -0.1545  0.6461
 2305TIP3    H228407   2.696   2.837   0.243  0.3437  1.1045  1.1546
 2306TIP3   OH228408   1.081   4.815  10.571  0.0872 -0.8789 -0.8128
 2306TIP3    H128409   1.141   4.740  10.576  0.4214 -0.5538  1.1875
 2306TIP3    H228410   1.032   4.810  10.654 -0.4194  0.6703 -0.9998
 2307TIP3   OH228411   2.410   5.315  12.698 -0.4207 -0.4856 -0.1825
 2307TIP3    H128412   2.355   5.372  12.644  1.0056 -1.1404 -2.4894
 2307TIP3    H228413   2.495   5.360  12.703 -0.0198 -1.2486  0.0505
 2308TIP3   OH228414   4.928   4.381   2.716 -0.2277 -0.1515  0.8715
 2308TIP3    H128415   5.020   4.401   2.698  0.4251 -2.4619  1.3125
 2308TIP3    H228416   4.917   4.397   2.810 -0.6191  1.1600  0.6317
 2309TIP3   OH228417   0.744   3.918  12.652  0.5930  0.2051 -0.2269
 2309TIP3    H128418   0.681   3.893  12.585  1.1535  1.4369 -1.2526
 2309TIP3    H228419   0.828   3.890  12.618  1.1407  2.6036 -1.0423
 2310TIP3   OH228420   4.271   5.428   0.841  0.0765  0.1873 -0.1299
 2310TIP3    H128421   4.308   5.355   0.791  1.3115  0.6085  0.1592
 2310TIP3    H228422   4.280   5.402   0.932  2.5925  1.5947  0.1140
 2311TIP3   OH228423   5.637   3.388   0.532 -0.0924  0.1639  0.4854
 2311TIP3    H128424   5.729   3.390   0.556 -0.5493  1.3402  2.4372
 2311TIP3    H228425   5.616   3.294   0.524  1.8853 -0.1377 -3.0909
 2312TIP3   OH228426   3.813   6.486   1.547 -0.1938  0.8803  0.3956
 2312TIP3    H128427   3.814   6.569   1.596  0.8662  2.5091 -2.1530
 2312TIP3    H228428   3.902   6.479   1.511 -0.4004 -1.1666  0.2024
 2313TIP3   OH228429   6.615   1.279   1.634  0.2561 -0.5022 -0.0161
 2313TIP3    H128430   6.532   1.235   1.616 -0.8254  0.5468  2.0436
 2313TIP3    H228431   6.629   1.335   1.557 -1.7899  0.4712  0.2518
 2314TIP3   OH228432   0.814   4.717   5.953 -0.1699 -0.1708 -0.7453
 2314TIP3    H128433   0.766   4.800   5.957 -1.7890 -1.0976  0.3608
 2314TIP3    H228434   0.786   4.670   6.032  1.9217 -1.1443 -0.5224
 2315TIP3   OH228435   6.489   5.717  15.783 -0.0729  0.0165  0.3835
 2315TIP3    H128436   6.407   5.763  15.802  0.0353  0.4325 -0.1454
 2315TIP3    H228437   6.463   5.641  15.731 -0.0962  0.2653  0.0350
 2316TIP3   OH228438   6.044   3.500  12.295 -0.2309  0.2897  0.1943
 2316TIP3    H128439   5.966   3.545  12.329  1.1441  2.4844  0.6725
 2316TIP3    H228440   6.110   3.513  12.364  0.8599 -0.6004 -0.6567
 2317TIP3   OH228441   5.137   5.876  16.312  0.1512  0.1316 -0.3655
 2317TIP3    H128442   5.102   5.878  16.401 -2.0517 -0.2937 -1.1739
 2317TIP3    H228443   5.165   5.966  16.296  1.4881  0.0273  1.0422
 2318TIP3   OH228444   1.007   2.252  12.783 -0.2353  0.4210 -0.2521
 2318TIP3    H128445   0.955   2.279  12.859 -2.6994 -2.6768 -0.5985
 2318TIP3    H228446   1.089   2.220  12.820 -0.9840 -0.0790  1.0616
 2319TIP3   OH228447   5.768   3.094  16.140  0.3954 -0.1814 -0.7432
 2319TIP3    H128448   5.676   3.069  16.132  0.0354  0.8614 -0.0900
 2319TIP3    H228449   5.789   3.139  16.058  0.8663 -1.9737 -1.6591
 2320TIP3   OH228450   6.626   4.289   3.996 -0.4314 -0.3326  0.6044
 2320TIP3    H128451   6.656   4.317   4.083 -0.9270 -0.0455  0.6818
 2320TIP3    H228452   6.637   4.194   3.997 -0.0593 -0.2910  0.8380
 2321TIP3   OH228453   6.737   5.041   5.831 -0.2866 -0.8575  0.0713
 2321TIP3    H128454   6.728   5.136   5.834 -2.0308 -0.8936 -1.7122
 2321TIP3    H228455   6.711   5.012   5.919  0.6957  0.2975  0.7825
 2322TIP3   OH228456   3.447   2.395   1.580 -0.4438 -0.5085 -0.0367
 2322TIP3    H128457   3.534   2.384   1.542 -0.8934 -1.4658 -0.8266
 2322TIP3    H228458   3.460   2.458   1.651  1.1541 -1.6466  0.7464
 2323TIP3   OH228459   1.195   0.302   1.251  0.2862  0.0336 -0.6497
 2323TIP3    H128460   1.191   0.369   1.182 -3.3226  1.4310  0.6552
 2323TIP3    H228461   1.116   0.249   1.236  0.3817 -0.7436  1.3560
 2324TIP3   OH228462   5.766   1.699  14.281  0.2336 -0.3876 -0.3438
 2324TIP3    H128463   5.791   1.681  14.190  0.4431  0.0283 -0.3675
 2324TIP3    H228464   5.833   1.654  14.334 -0.9611 -2.2952 -0.3522
 2325TIP3   OH228465   2.189   6.560   5.663 -0.0740 -0.3653 -0.1482
 2325TIP3    H128466   2.228   6.476   5.689  1.8790  0.6668  0.4880
 2325TIP3    H228467   2.258   6.624   5.680 -0.1849  0.9817 -3.9272
 2326TIP3   OH228468   0.314   5.631   4.127 -0.3641 -1.0454  0.3375
 2326TIP3    H128469   0.398   5.623   4.082 -0.4564 -1.9446  0.3048
 2326TIP3    H228470   0.332   5.601   4.216 -0.8453 -2.1482  0.0822
 2327TIP3   OH228471   0.746   3.148  12.101  0.6627 -0.1612  0.0464
 2327TIP3    H128472   0.768   3.129  12.009  2.6194  0.0187  0.4398
 2327TIP3    H228473   0.719   3.063  12.136 -0.8553 -0.0912 -0.8608
 2328TIP3   OH228474   0.645   3.336   5.247 -0.4578  0.4963 -0.5337
 2328TIP3    H128475   0.611   3.315   5.160 -1.4954  0.8544 -0.2247
 2328TIP3    H228476   0.646   3.432   5.250 -0.9554  0.4919  0.0357
 2329TIP3   OH228477   0.775   0.976  14.682 -0.3446  0.8593  0.7524
 2329TIP3    H128478   0.690   0.939  14.655  0.4462 -0.2415 -0.3424
 2329TIP3    H228479   0.765   1.070  14.667 -1.4578  0.7743  0.8702
 2330TIP3   OH228480   6.053   4.808  16.784 -0.1870  0.5652 -0.1293
 2330TIP3    H128481   6.053   4.886  16.839 -0.0197 -0.5397  1.5146
 2330TIP3    H228482   6.091   4.740  16.839  0.1247 -0.5831 -1.6805
 2331TIP3   OH228483   5.178   0.549   5.308 -0.3536  0.4378  0.5277
 2331TIP3    H128484   5.249   0.609   5.287 -0.7347  1.1085  1.0974
 2331TIP3    H228485   5.217   0.486   5.368  0.5558 -1.0734 -1.5293
 2332TIP3   OH228486   0.517   3.581   6.101 -0.3616  0.9182 -0.0817
 2332TIP3    H128487   0.438   3.529   6.091 -1.1244  2.1436 -0.6654
 2332TIP3    H228488   0.564   3.569   6.018  0.7209 -0.8008  0.7278
 2333TIP3   OH228489   5.531   4.538  15.241  0.3607 -0.7883  0.0832
 2333TIP3    H128490   5.523   4.629  15.211 -0.4213 -0.9249 -0.1364
 2333TIP3    H228491   5.463   4.528  15.308  0.9471 -0.9962  0.6588
 2334TIP3   OH228492   6.548   3.476   2.378 -0.2057 -0.3678 -1.0181
 2334TIP3    H128493   6.556   3.547   2.314  2.8432  0.2810 -0.0750
 2334TIP3    H228494   6.514   3.519   2.457  1.1592  0.0163 -0.6056
 2335TIP3   OH228495   0.050   1.977   0.601 -0.1427  0.5136 -0.4298
 2335TIP3    H128496   0.113   1.995   0.531 -0.4132  0.6449 -0.6397
 2335TIP3    H228497   0.020   2.063   0.630 -0.5386  0.4379 -0.6137
 2336TIP3   OH228498   1.241   6.715  13.666 -0.3447 -0.4146 -0.1917
 2336TIP3    H128499   1.246   6.806  13.634  1.0876 -0.4571 -0.1318
 2336TIP3    H228500   1.297   6.666  13.606  0.7478 -0.8474  1.1435
 2337TIP3   OH228501   1.158   2.370  13.422 -0.2958  0.2191  0.2536
 2337TIP3    H128502   1.104   2.432  13.471 -0.7567  0.8709 -1.0270
 2337TIP3    H228503   1.248   2.402  13.434 -0.2062 -0.6194  2.0352
 2338TIP3   OH228504   6.003   1.213  14.468 -0.4019 -0.4012 -0.0592
 2338TIP3    H128505   5.995   1.307  14.456 -0.9979 -0.3136  0.9214
 2338TIP3    H228506   6.088   1.200  14.510  0.2887 -0.4382 -1.4131
 2339TIP3   OH228507   4.367   4.952  13.325  0.2217 -0.0248 -0.3251
 2339TIP3    H128508   4.346   4.932  13.417  2.3395  2.1392  0.7450
 2339TIP3    H228509   4.451   4.908  13.310 -0.7660 -1.5614 -1.7855
 2340TIP3   OH228510   1.783   4.357  13.133 -0.1543 -0.0295  0.3374
 2340TIP3    H128511   1.779   4.333  13.226 -0.7217 -0.0423  0.3095
 2340TIP3    H228512   1.729   4.436  13.127 -0.1849 -0.0763  0.0013
 2341TIP3   OH228513   6.160   2.165  11.046 -0.5485  0.0267  0.6186
 2341TIP3    H128514   6.204   2.083  11.023  1.3219  0.5863  1.9528
 2341TIP3    H228515   6.211   2.233  11.001 -1.7851  0.5164 -0.0789
 2342TIP3   OH228516   4.787   5.141   2.105  0.0137  0.3115 -0.1480
 2342TIP3    H128517   4.872   5.108   2.074 -0.1008 -0.4818  0.3576
 2342TIP3    H228518   4.804   5.231   2.130  0.4395  0.5263 -1.1529
 2343TIP3   OH228519   0.421   6.435  15.470  0.2697  0.0789 -0.5301
 2343TIP3    H128520   0.488   6.485  15.516  0.9037  0.4086 -1.7728
 2343TIP3    H228521   0.399   6.489  15.394 -1.5947  0.0901 -0.0215
 2344TIP3   OH228522   3.646   1.466   0.799  0.0355  0.0452  0.0914
 2344TIP3    H128523   3.707   1.520   0.848 -0.9392  0.6733  0.6564
 2344TIP3    H228524   3.647   1.502   0.710 -0.5409  0.9613  0.4411
 2345TIP3   OH228525   4.812   5.403  13.396  0.2167  0.1403  0.4664
 2345TIP3    H128526   4.805   5.402  13.491  0.5375  0.2659  0.4937
 2345TIP3    H228527   4.858   5.322  13.374 -0.1557 -0.0504  0.3929
 2346TIP3   OH228528   3.362   1.591  14.912  0.2365  0.7063 -0.0792
 2346TIP3    H128529   3.274   1.561  14.936 -0.3613  1.9990 -0.5481
 2346TIP3    H228530   3.407   1.513  14.881 -0.8779  0.0894 -0.1846
 2347TIP3   OH228531   2.955   2.083   6.188 -0.4726 -0.0779  0.0064
 2347TIP3    H128532   2.861   2.096   6.176 -0.4227  0.3582  0.0529
 2347TIP3    H228533   2.978   2.013   6.128 -0.4954  1.0535 -1.3659
 2348TIP3   OH228534   3.075   1.059  12.135 -0.1410 -0.3604 -0.5211
 2348TIP3    H128535   3.123   1.051  12.053 -1.8949 -1.8824 -1.5120
 2348TIP3    H228536   3.050   1.151  12.140  0.6329 -0.0958 -1.3156
 2349TIP3   OH228537   0.579   0.548  10.207  0.3258 -0.1841  0.3858
 2349TIP3    H128538   0.576   0.452  10.197  1.3179 -0.0082 -2.5695
 2349TIP3    H228539   0.560   0.581  10.119  2.3456  2.2740  0.7696
 2350TIP3   OH228540   1.787   4.257  12.238  0.1642  0.4466 -0.3545
 2350TIP3    H128541   1.715   4.199  12.263 -0.0235  0.1298 -1.5525
 2350TIP3    H228542   1.865   4.213  12.271 -0.0414 -0.1295 -0.6187
 2351TIP3   OH228543   6.544   1.103  17.144  0.2479 -0.8667  0.0885
 2351TIP3    H128544   6.582   1.168  17.204  0.4479  0.1595 -1.1045
 2351TIP3    H228545   6.539   1.149  17.060  0.8022 -2.5418 -0.9049
 2352TIP3   OH228546   0.050   4.219  13.012 -0.2724 -0.4246 -0.0243
 2352TIP3    H128547  -0.000   4.224  12.930  0.1192 -2.0818 -0.3930
 2352TIP3    H228548   0.141   4.216  12.983 -0.1636 -1.8353  0.4051
 2353TIP3   OH228549   6.811   2.959  12.007  0.2556 -0.0921  0.6049
 2353TIP3    H128550   6.723   2.946  12.044  0.3403 -2.5171  0.1673
 2353TIP3    H228551   6.869   2.911  12.066  0.5228 -3.1182 -1.8712
 2354TIP3   OH228552   0.527   3.320   4.983 -0.0516  0.3175  0.0463
 2354TIP3    H128553   0.469   3.349   4.912  0.0937  1.0743  0.2289
 2354TIP3    H228554   0.609   3.299   4.939  0.2398  1.3766  0.0437
 2355TIP3   OH228555   6.783   2.330   0.366 -0.5252  0.4208 -0.3247
 2355TIP3    H128556   6.745   2.268   0.429  0.8505  2.0846  2.3334
 2355TIP3    H228557   6.718   2.337   0.297 -0.8912 -3.6785 -0.6498
 2356TIP3   OH228558   2.917   3.507   0.074  0.0712 -0.6009  0.3190
 2356TIP3    H128559   3.008   3.518   0.046  0.5351 -1.1670  1.5009
 2356TIP3    H228560   2.904   3.575   0.141 -0.5242 -0.2437 -0.1462
 2357TIP3   OH228561   2.421   3.393  17.313  0.1246  0.2989 -0.0600
 2357TIP3    H128562   2.394   3.479  17.347 -0.2990 -0.5074  1.7315
 2357TIP3    H228563   2.369   3.330  17.363  2.6629 -1.1589  0.9141
 2358TIP3   OH228564   3.139   4.391  12.274  0.4796  0.2835  0.1382
 2358TIP3    H128565   3.225   4.366  12.242  0.6874  0.2112  0.7310
 2358TIP3    H228566   3.155   4.469  12.327  0.2819 -0.0991  0.7765
 2359TIP3   OH228567   3.672   3.918  11.360  1.0520  0.0870 -0.1658
 2359TIP3    H128568   3.608   3.847  11.362 -0.1583  1.1464  0.1447
 2359TIP3    H228569   3.754   3.876  11.334  0.4989 -1.5054  0.5477
 2360TIP3   OH228570   0.198   4.299  16.383  0.2984  0.3068 -0.5126
 2360TIP3    H128571   0.152   4.236  16.439 -0.3628 -1.0402 -2.4668
 2360TIP3    H228572   0.285   4.305  16.422  0.1106 -1.1757  0.2465
 2361TIP3   OH228573   0.366   2.221   4.686  0.3276 -0.4452 -0.0079
 2361TIP3    H128574   0.433   2.164   4.650  1.0121 -1.3592  2.5282
 2361TIP3    H228575   0.284   2.173   4.672  0.4942 -0.5318 -0.7485
 2362TIP3   OH228576   6.397   6.506  16.974 -0.2121 -0.1842 -0.5074
 2362TIP3    H128577   6.338   6.446  17.020  1.0556 -0.1618  1.2753
 2362TIP3    H228578   6.380   6.492  16.881 -2.7369 -0.4107 -0.0561
 2363TIP3   OH228579   6.346   2.401  13.817 -0.2227 -0.5259  0.0399
 2363TIP3    H128580   6.308   2.463  13.879  0.7428  0.7321 -0.5892
 2363TIP3    H228581   6.439   2.398  13.841 -0.2695 -1.8231  0.1224
 2364TIP3   OH228582   4.283   3.166   0.288  0.0320 -0.1311  0.8686
 2364TIP3    H128583   4.233   3.172   0.206  2.5782  0.2100 -0.7725
 2364TIP3    H228584   4.231   3.109   0.343 -1.9433 -0.1469 -0.8720
 2365TIP3   OH228585   6.131   3.544   5.323  0.1886 -0.0248  0.8039
 2365TIP3    H128586   6.137   3.529   5.417  0.5136  1.7885  1.1027
 2365TIP3    H228587   6.181   3.624   5.307  0.4531 -0.4810 -0.9768
 2366TIP3   OH228588   0.092   3.536   1.127  0.0696 -0.3262  0.2614
 2366TIP3    H128589   0.006   3.530   1.085  0.2321  0.3106 -0.1738
 2366TIP3    H228590   0.152   3.557   1.056  0.8929 -2.4832  0.2305
 2367TIP3   OH228591   2.632   4.877  11.069  0.3147 -0.0311  0.2202
 2367TIP3    H128592   2.607   4.800  11.017 -1.0142  1.7405 -1.9482
 2367TIP3    H228593   2.708   4.914  11.023  1.0493 -0.0907  1.3385
 2368TIP3   OH228594   4.316   2.273   5.339 -0.2472  0.2886  0.1367
 2368TIP3    H128595   4.278   2.191   5.373 -0.4277  0.2467 -0.1617
 2368TIP3    H228596   4.338   2.323   5.417 -0.0263 -0.0982  0.3241
 2369TIP3   OH228597   2.126   4.366  13.742  0.0554 -0.0998  0.3089
 2369TIP3    H128598   2.061   4.434  13.727  0.4436  0.5908  1.6746
 2369TIP3    H228599   2.158   4.382  13.830 -0.1465 -2.3123  0.8425
 2370TIP3   OH228600   0.106   3.915  17.087  0.0112  0.4399  0.5132
 2370TIP3    H128601   0.078   3.966  17.011 -0.0139 -0.8514 -0.3761
 2370TIP3    H228602   0.067   3.960  17.162 -0.5579  1.3331 -0.2949
 2371TIP3   OH228603   1.073   5.280  17.055 -0.1926 -0.7596 -0.4310
 2371TIP3    H128604   1.115   5.233  17.128 -1.4827 -0.3985  0.5927
 2371TIP3    H228605   1.050   5.211  16.993  1.7895 -0.9773 -1.0010
 2372TIP3   OH228606   5.908   5.593  12.023 -0.1218  0.6456 -0.9133
 2372TIP3    H128607   5.906   5.499  12.003  1.1049  0.1544  0.9744
 2372TIP3    H228608   5.816   5.616  12.036 -0.3687 -0.6395 -0.1222
 2373TIP3   OH228609   0.717   6.424  14.366  0.0948 -0.2220  0.0851
 2373TIP3    H128610   0.645   6.361  14.361 -0.3467  0.2574  0.3230
 2373TIP3    H228611   0.674   6.508  14.381  0.8311 -0.2626  2.8652
 2374TIP3   OH228612   0.576   2.222   1.573  0.4196  0.2390 -0.1545
 2374TIP3    H128613   0.651   2.221   1.632 -0.0859 -2.4794  0.5949
 2374TIP3    H228614   0.507   2.268   1.621  1.1739  1.5574 -0.2996
 2375TIP3   OH228615   6.822   4.893   2.712  0.0189  0.0239  0.4251
 2375TIP3    H128616   6.807   4.808   2.671  1.1403 -0.3469  0.7566
 2375TIP3    H228617   6.735   4.931   2.720 -0.6441 -1.6275  1.4672
 2376TIP3   OH228618   3.510   2.991   3.348  0.1050  0.1391  0.6546
 2376TIP3    H128619   3.417   2.980   3.332  0.5779 -0.3332 -2.4335
 2376TIP3    H228620   3.522   3.085   3.361 -0.7427  0.2572  0.6043
 2377TIP3   OH228621   4.086   3.836   0.909  0.1493  0.1689 -0.1157
 2377TIP3    H128622   4.102   3.845   1.003 -1.1150  0.3425  0.1133
 2377TIP3    H228623   4.127   3.753   0.885 -1.7498 -1.2278  1.1733
 2378TIP3   OH228624   1.800   1.543  11.007  0.3559  0.1437  0.0745
 2378TIP3    H128625   1.856   1.488  10.952  1.1296  0.9231  0.0726
 2378TIP3    H228626   1.768   1.612  10.949 -0.7628 -0.3867  0.0325
 2379TIP3   OH228627   6.753   3.433  12.612 -0.2223 -0.2570 -0.4374
 2379TIP3    H128628   6.813   3.502  12.585 -0.7273  1.3131  2.1321
 2379TIP3    H228629   6.686   3.432  12.543 -0.1013  1.7134 -0.6508
 2380TIP3   OH228630   2.683   6.694   3.154  0.3046  0.1098  0.0932
 2380TIP3    H128631   2.776   6.677   3.166  0.4881  0.3131 -0.9281
 2380TIP3    H228632   2.675   6.721   3.062 -1.0331 -1.8181 -0.4259
 2381TIP3   OH228633   2.207   1.801  14.752 -0.0996 -0.2029 -0.4734
 2381TIP3    H128634   2.247   1.831  14.670  1.2667  0.8105  0.5144
 2381TIP3    H228635   2.146   1.870  14.776 -0.4884 -0.4932 -0.6222
 2382TIP3   OH228636   4.519   2.284  14.368 -0.2885 -0.4026  0.3366
 2382TIP3    H128637   4.568   2.285  14.286  0.7160 -0.5123  0.9152
 2382TIP3    H228638   4.476   2.369  14.372  0.5867  0.0545  0.2327
 2383TIP3   OH228639   2.922   3.457   6.924  0.8204 -0.1463 -0.0217
 2383TIP3    H128640   2.998   3.504   6.958  0.0835  1.0210  0.0630
 2383TIP3    H228641   2.929   3.369   6.962  0.3623  0.8961  2.7104
 2384TIP3   OH228642   3.918   5.852   0.295  0.2302  0.1505  0.7612
 2384TIP3    H128643   3.974   5.884   0.224  0.3334 -1.0175  0.2986
 2384TIP3    H228644   3.936   5.911   0.368  1.4336  0.3112  0.3561
 2385TIP3   OH228645   4.663   6.012   1.272  0.1604 -0.1926 -0.2228
 2385TIP3    H128646   4.624   6.066   1.341 -2.2111  0.6164 -2.0940
 2385TIP3    H228647   4.721   6.072   1.225  0.4274 -0.2934 -0.0284
 2386TIP3   OH228648   0.690   4.696   0.190  0.3985 -0.2160 -0.0558
 2386TIP3    H128649   0.646   4.780   0.205  0.9006  0.0736 -0.2019
 2386TIP3    H228650   0.659   4.668   0.104 -1.9961 -1.5737  1.1427
 2387TIP3   OH228651   2.317   4.700   3.822  0.2816 -0.2534  0.7538
 2387TIP3    H128652   2.404   4.659   3.821  0.1505 -0.5441  0.9959
 2387TIP3    H228653   2.263   4.645   3.766  0.4401  0.3638 -0.0228
 2388TIP3   OH228654   4.433   4.408  12.070 -0.0008 -0.1110  0.0698
 2388TIP3    H128655   4.460   4.481  12.125 -0.0124 -0.8599  1.0935
 2388TIP3    H228656   4.385   4.350  12.129  1.2670 -1.6683 -0.3525
 2389TIP3   OH228657   0.968   3.739   4.143 -0.7499  0.0316 -0.0015
 2389TIP3    H128658   0.940   3.742   4.052  1.5478 -0.0214 -0.7727
 2389TIP3    H228659   1.026   3.815   4.152 -0.4865 -0.3003  1.2433
 2390TIP3   OH228660   3.219   3.405   5.714  0.1316 -0.0053  0.5115
 2390TIP3    H128661   3.305   3.366   5.725  0.4482  1.0060  2.0159
 2390TIP3    H228662   3.167   3.367   5.785 -0.9169 -1.1931 -0.8397
 2391TIP3   OH228663   0.452   1.679  10.546  0.1598 -0.5627  0.0497
 2391TIP3    H128664   0.400   1.759  10.544 -0.8869 -1.0903  2.5851
 2391TIP3    H228665   0.399   1.614  10.501  0.3734 -0.1911 -0.7509
 2392TIP3   OH228666   6.020   1.531   5.524 -0.0462  0.3559  0.1970
 2392TIP3    H128667   6.046   1.545   5.615 -0.7730  0.7353  0.3448
 2392TIP3    H228668   6.024   1.435   5.513 -0.9015  0.2280  0.9139
 2393TIP3   OH228669   0.714   2.206   4.376 -0.1988 -0.0834  0.2031
 2393TIP3    H128670   0.677   2.286   4.414 -1.6731 -0.6500  0.0503
 2393TIP3    H228671   0.792   2.188   4.429 -0.2698  1.0320  0.7190
 2394TIP3   OH228672   1.356   5.361  17.023 -0.6310 -0.2432  0.5722
 2394TIP3    H128673   1.378   5.276  16.984  1.5328  0.1087  0.9105
 2394TIP3    H228674   1.264   5.353  17.046 -1.4253 -1.2906 -2.4612
 2395TIP3   OH228675   4.527   4.986  16.721  0.2578  0.3757 -0.3538
 2395TIP3    H128676   4.586   4.998  16.796  0.9932  0.1776 -0.8928
 2395TIP3    H228677   4.502   5.075  16.697  0.1361  0.4505  0.0346
 2396TIP3   OH228678   5.832   1.083   4.027 -0.5716 -0.4073  0.3707
 2396TIP3    H128679   5.864   1.127   3.948 -0.3357 -1.2965 -0.0370
 2396TIP3    H228680   5.744   1.118   4.041  0.7299  2.6437  1.9176
 2397TIP3   OH228681   3.506   2.823   4.004 -0.2689 -0.4401  0.1932
 2397TIP3    H128682   3.584   2.834   3.949  1.0672 -0.2502  2.0518
 2397TIP3    H228683   3.476   2.912   4.022  0.6732 -0.3738  1.6020
 2398TIP3   OH228684   1.491   0.898   3.985 -0.2356  0.6989  0.9168
 2398TIP3    H128685   1.488   0.860   4.073 -2.9850 -0.7976  0.2814
 2398TIP3    H228686   1.465   0.990   3.998 -3.0260 -0.0850  1.5050
 2399TIP3   OH228687   1.025   1.152  14.802  0.0633 -0.3378  0.2499
 2399TIP3    H128688   0.939   1.189  14.787 -1.4415 -2.7118  2.1593
 2399TIP3    H228689   1.069   1.214  14.859 -0.1326  1.1303 -1.1319
 2400TIP3   OH228690   2.430   0.615  14.544 -0.1878 -0.5206  0.5656
 2400TIP3    H128691   2.428   0.673  14.621  1.7366 -0.6847  0.7749
 2400TIP3    H228692   2.519   0.582  14.541 -0.5670 -1.4961 -1.0485
 2401TIP3   OH228693   4.745   5.722   4.586 -0.0410  0.4079 -0.3337
 2401TIP3    H128694   4.779   5.717   4.497  0.7774 -0.2278 -0.0103
 2401TIP3    H228695   4.824   5.729   4.641 -0.5478  1.1592  0.3150
 2402TIP3   OH228696   3.912   6.545   1.912  0.0603 -0.3013  0.3432
 2402TIP3    H128697   3.922   6.466   1.859  0.9737  0.4817 -0.7067
 2402TIP3    H228698   3.884   6.612   1.851 -3.6936 -0.3822  1.7165
 2403TIP3   OH228699   6.161   1.465   4.142 -0.3244 -0.1809 -0.2505
 2403TIP3    H128700   6.100   1.491   4.073 -0.4475 -0.4182 -0.2334
 2403TIP3    H228701   6.186   1.375   4.119 -1.5836 -0.8341  0.8599
 2404TIP3   OH228702   4.527   6.685  14.503  0.2181 -0.0115  0.0997
 2404TIP3    H128703   4.437   6.678  14.470 -0.2068  3.6685  0.1169
 2404TIP3    H228704   4.575   6.727  14.432  1.4942 -0.1866  0.8311
 2405TIP3   OH228705   4.278   2.341   4.775  1.1643 -0.2823 -0.3255
 2405TIP3    H128706   4.237   2.258   4.799  0.6452 -1.3499 -4.1817
 2405TIP3    H228707   4.217   2.408   4.805 -0.8972 -1.5998 -1.3688
 2406TIP3   OH228708   2.753   4.378   4.999 -0.4709 -0.4403  0.4350
 2406TIP3    H128709   2.773   4.294   5.038 -0.7999 -1.2450 -1.0372
 2406TIP3    H228710   2.662   4.370   4.969 -0.4179  0.3346  0.0374
 2407TIP3   OH228711   4.754   5.051  11.365 -0.1717  0.0708 -0.3391
 2407TIP3    H128712   4.673   5.074  11.319  1.1459  0.7579 -2.4650
 2407TIP3    H228713   4.796   5.136  11.384  2.8443 -0.0967 -4.7234
 2408TIP3   OH228714   4.764   3.945  15.270  0.0501  0.0782 -0.4557
 2408TIP3    H128715   4.804   3.869  15.228  0.0295 -0.5852  0.6969
 2408TIP3    H228716   4.789   3.938  15.362 -0.8410  0.8816 -0.1392
 2409TIP3   OH228717   1.642   1.172  11.934 -0.0463 -0.3865  0.0791
 2409TIP3    H128718   1.675   1.233  11.869  1.8423 -0.9776  0.4175
 2409TIP3    H228719   1.676   1.205  12.017 -1.0113 -0.5818  0.5636
 2410TIP3   OH228720   5.976   2.035   3.473 -0.2281 -0.3130  0.6545
 2410TIP3    H128721   5.911   2.090   3.517 -0.2687  0.1014  0.0751
 2410TIP3    H228722   5.938   1.947   3.475 -1.3086  0.1039 -0.6338
 2411TIP3   OH228723   0.332   1.246  12.278  0.3407  0.2795  0.3527
 2411TIP3    H128724   0.353   1.287  12.194  0.4325 -0.1415  0.1695
 2411TIP3    H228725   0.241   1.272  12.295 -0.0305 -0.5071 -0.3921
 2412TIP3   OH228726   4.416   0.027   4.835 -0.1154 -0.2761 -0.1047
 2412TIP3    H128727   4.475  -0.037   4.876  0.0115 -0.6522 -0.8410
 2412TIP3    H228728   4.331  -0.016   4.835  0.4462 -1.6556 -2.9954
 2413TIP3   OH228729   0.253   5.917  11.127 -0.6355  0.4185 -0.9598
 2413TIP3    H128730   0.165   5.880  11.117 -0.5448  0.4316 -1.8396
 2413TIP3    H228731   0.241   5.991  11.186 -1.1717  0.2712 -0.8791
 2414TIP3   OH228732   2.519   1.403   2.770 -0.0255 -0.5439  0.1841
 2414TIP3    H128733   2.517   1.389   2.675 -0.2523 -0.0211  0.1069
 2414TIP3    H228734   2.489   1.494   2.781 -0.9456 -0.9119  0.8165
 2415TIP3   OH228735   1.677   0.575  11.676  0.5265 -0.6839  0.5875
 2415TIP3    H128736   1.612   0.565  11.746 -1.7437  0.2700 -1.2502
 2415TIP3    H228737   1.748   0.625  11.717 -1.0738  0.5270  2.0505
 2416TIP3   OH228738   1.431   5.416  17.285  0.0503  0.3703 -0.0954
 2416TIP3    H128739   1.446   5.510  17.282 -0.6237  0.5407  1.2572
 2416TIP3    H228740   1.434   5.388  17.194 -0.2337  1.7780 -0.5532
 2417TIP3   OH228741   0.190   4.944  14.174 -1.2249 -0.5950 -0.0160
 2417TIP3    H128742   0.161   4.923  14.262 -0.8464 -4.3930 -0.6317
 2417TIP3    H228743   0.284   4.959  14.183 -1.5689  1.4611  0.5070
 2418TIP3   OH228744   0.217   6.216   0.292  0.2344  0.2459  0.2463
 2418TIP3    H128745   0.213   6.303   0.253 -0.6279  0.5100  0.9168
 2418TIP3    H228746   0.126   6.189   0.303  0.4835 -0.5268  0.5262
 2419TIP3   OH228747   2.988   3.430  15.628  0.8736 -0.2176  0.0764
 2419TIP3    H128748   3.072   3.452  15.586  0.8921 -0.1560  0.1445
 2419TIP3    H228749   2.924   3.434  15.557  1.2007 -2.0874 -0.3530
 2420TIP3   OH228750   3.990   6.121  12.906  0.1199 -0.2235  0.5536
 2420TIP3    H128751   4.026   6.195  12.956  1.1396 -0.8838  0.8402
 2420TIP3    H228752   3.960   6.159  12.824  0.0657  0.6001  0.9482
 2421TIP3   OH228753   2.418   5.110   2.265 -0.6698 -0.1127  0.5707
 2421TIP3    H128754   2.326   5.099   2.292 -0.7128 -2.8067 -0.3543
 2421TIP3    H228755   2.415   5.181   2.201 -1.9687  0.3407  1.0793
 2422TIP3   OH228756   0.206   5.218   0.135 -0.1792  0.0592  0.1758
 2422TIP3    H128757   0.239   5.235   0.223 -0.6163  1.2569  0.1320
 2422TIP3    H228758   0.217   5.301   0.089 -1.8265  0.0667 -0.2847
 2423TIP3   OH228759   3.780   5.967   0.861 -0.4108 -0.9694  0.4198
 2423TIP3    H128760   3.840   5.896   0.884 -0.1638 -0.0743  2.7955
 2423TIP3    H228761   3.692   5.930   0.876 -0.3198 -1.1253  0.5787
 2424TIP3   OH228762   5.378   4.371   5.094  0.3525  0.3977 -0.9636
 2424TIP3    H128763   5.381   4.454   5.142  2.3673 -0.3408  0.3410
 2424TIP3    H228764   5.373   4.304   5.163 -2.2720 -0.6119 -2.0011
 2425TIP3   OH228765   1.731   1.874   3.837  0.2453  1.0347 -0.2209
 2425TIP3    H128766   1.660   1.809   3.838  1.4933 -0.4037 -0.8043
 2425TIP3    H228767   1.733   1.908   3.927 -0.7997  0.6832 -0.0470
 2426TIP3   OH228768   5.717   4.656   1.096  0.1081 -0.1906  0.3615
 2426TIP3    H128769   5.743   4.666   1.188  1.5376  1.7223 -0.1863
 2426TIP3    H228770   5.621   4.651   1.099  0.0708  0.6610  1.9075
 2427TIP3   OH228771   4.446   0.951  12.802  0.0172 -0.3640  0.3024
 2427TIP3    H128772   4.475   0.860  12.793  1.2663  0.2515 -3.2809
 2427TIP3    H228773   4.374   0.960  12.740 -2.1750  0.4536  2.7787
 2428TIP3   OH228774   4.875   4.343  14.820  0.1957  0.4553  0.5148
 2428TIP3    H128775   4.914   4.426  14.848 -0.5393  0.2196  2.3521
 2428TIP3    H228776   4.931   4.276  14.860 -0.7065  0.0991  1.1960
 2429TIP3   OH228777   0.801   6.379   2.520 -0.1486  0.0999  0.2051
 2429TIP3    H128778   0.706   6.389   2.531  0.0541  1.4965  0.9236
 2429TIP3    H228779   0.811   6.303   2.463 -1.7467  0.6113 -0.8290
 2430TIP3   OH228780   0.647   3.952  17.059 -0.3887  0.2445  0.3269
 2430TIP3    H128781   0.703   3.968  16.983 -0.2801  1.1631  0.5887
 2430TIP3    H228782   0.612   3.864  17.045 -0.1936  0.3128 -0.6759
 2431TIP3   OH228783   6.350   4.424   0.357 -0.1878  0.3919 -0.1478
 2431TIP3    H128784   6.344   4.345   0.304 -1.0657 -0.2794  0.9099
 2431TIP3    H228785   6.264   4.467   0.346 -1.2603 -0.9104  2.4181
 2432TIP3   OH228786   1.885   3.770  14.798  0.1498  0.1591  0.3016
 2432TIP3    H128787   1.854   3.684  14.826  0.0933 -0.0180 -0.2929
 2432TIP3    H228788   1.887   3.822  14.878 -0.5190 -0.1776  0.5442
 2433TIP3   OH228789   0.608   6.500   3.057  0.2107 -0.0457 -0.1658
 2433TIP3    H128790   0.518   6.480   3.081  1.2687 -2.3456  2.3737
 2433TIP3    H228791   0.627   6.439   2.985  0.3721 -1.1754  0.8072
 2434TIP3   OH228792   0.699   3.201   4.752  0.1925  0.1461  0.5351
 2434TIP3    H128793   0.711   3.214   4.658 -1.0025  1.2742  0.5032
 2434TIP3    H228794   0.732   3.113   4.769  0.7475  0.0601 -0.8722
 2435TIP3   OH228795   4.069   5.021  13.219 -0.1860 -0.0454 -0.3567
 2435TIP3    H128796   4.044   5.082  13.290  2.0671  0.7296 -0.1417
 2435TIP3    H228797   3.992   4.967  13.206 -0.3408 -1.1063  3.6231
 2436TIP3   OH228798   4.162   6.756   4.802  0.1247 -0.2145 -0.1429
 2436TIP3    H128799   4.175   6.667   4.834  0.6114 -0.5214 -1.1679
 2436TIP3    H228800   4.129   6.745   4.712  1.5999  0.6277 -0.8199
 2437TIP3   OH228801   1.784   2.797   2.773 -0.6391  0.3167  0.0943
 2437TIP3    H128802   1.780   2.730   2.705 -1.3344  0.6000 -0.1447
 2437TIP3    H228803   1.796   2.747   2.855 -2.2200 -0.1750  0.0537
 2438TIP3   OH228804   5.205   1.843  12.009  0.0119  0.6023 -0.1707
 2438TIP3    H128805   5.219   1.884  11.924  0.6623  1.0374  0.1343
 2438TIP3    H228806   5.189   1.751  11.989  0.0516  0.7188 -0.7676
 2439TIP3   OH228807   5.485   4.706  15.817  0.0421  0.7448 -0.1803
 2439TIP3    H128808   5.398   4.668  15.804  0.5768 -1.0205  1.0403
 2439TIP3    H228809   5.468   4.796  15.843 -1.3884  0.6106 -0.5656
 2440TIP3   OH228810   3.077   1.194  17.128  0.1692  0.4480 -0.2288
 2440TIP3    H128811   3.136   1.144  17.072 -0.6490 -0.7337 -0.0688
 2440TIP3    H228812   2.994   1.195  17.081 -0.6209 -0.8361  1.0608
 2441TIP3   OH228813   1.932   4.491  16.932  0.1855 -0.5753 -0.8009
 2441TIP3    H128814   1.879   4.431  16.986 -0.0040  0.2196 -0.0732
 2441TIP3    H228815   1.964   4.437  16.860 -0.2570 -1.4692 -0.3436
 2442TIP3   OH228816   2.801   1.740  15.032  0.2119 -0.4585 -0.3888
 2442TIP3    H128817   2.735   1.672  15.020 -0.5424  0.2587 -0.3736
 2442TIP3    H228818   2.791   1.767  15.123  0.1327  0.0646 -0.5544
 2443TIP3   OH228819   2.096   1.184   6.036  0.7678 -0.4223  0.1818
 2443TIP3    H128820   2.163   1.249   6.020  1.0974 -0.6761  0.5238
 2443TIP3    H228821   2.131   1.129   6.106  0.2429 -0.6074  0.3059
 2444TIP3   OH228822   2.990   2.513   4.847 -0.2239  0.1436  0.2631
 2444TIP3    H128823   2.979   2.520   4.752 -0.3364  1.9426  0.3783
 2444TIP3    H228824   3.073   2.466   4.858  0.7284  1.5210 -0.7473
 2445TIP3   OH228825   1.554   2.909   5.946  0.2020  0.2520 -0.3359
 2445TIP3    H128826   1.458   2.915   5.944  0.1572 -0.4464 -0.4869
 2445TIP3    H228827   1.576   2.926   6.038 -0.3103 -2.4641  0.3979
 2446TIP3   OH228828   1.676   1.271  12.233  0.0730 -0.4561  0.1990
 2446TIP3    H128829   1.718   1.325  12.300  0.6266  0.4019 -0.8075
 2446TIP3    H228830   1.601   1.322  12.204  1.2816  0.3996 -1.6176
 2447TIP3   OH228831   5.639   3.965  11.873 -0.2918  0.1168 -1.1198
 2447TIP3    H128832   5.590   3.988  11.795  0.6191  1.4782 -1.3199
 2447TIP3    H228833   5.668   4.049  11.910 -1.5415 -0.4072  1.2466
 2448TIP3   OH228834   6.251   0.092  12.719  0.0884  0.4429  0.2415
 2448TIP3    H128835   6.236   0.084  12.813  1.6693  0.5929  0.5308
 2448TIP3    H228836   6.282   0.006  12.692  0.2480  0.5789 -0.0151
 2449TIP3   OH228837   5.418   5.543   1.496  0.3213  0.1703 -0.1495
 2449TIP3    H128838   5.385   5.621   1.540  1.4837  2.0034 -2.2922
 2449TIP3    H228839   5.369   5.538   1.414  1.4526 -0.3222 -0.8292
 2450TIP3   OH228840   4.627   1.437  14.570  0.7005 -0.3624  0.1734
 2450TIP3    H128841   4.590   1.350  14.589  1.1129 -0.4144  0.7586
 2450TIP3    H228842   4.654   1.431  14.478  1.1494 -1.0177  0.3370
 2451TIP3   OH228843   6.309   3.984   1.466 -0.2499  0.2147 -0.6039
 2451TIP3    H128844   6.333   4.037   1.390  0.7426  1.2613  0.3911
 2451TIP3    H228845   6.358   3.903   1.456 -1.0879 -0.1836 -1.6868
 2452TIP3   OH228846   4.783   4.012   0.403 -0.2124  0.5258 -0.1344
 2452TIP3    H128847   4.723   4.075   0.364  0.7514  1.9299  0.5816
 2452TIP3    H228848   4.783   4.033   0.496 -0.6213 -1.2013  0.2973
 2453TIP3   OH228849   2.361   4.013  15.203  0.0452 -0.0216  0.2555
 2453TIP3    H128850   2.286   4.060  15.168 -0.4125 -0.0988  1.1178
 2453TIP3    H228851   2.336   3.921  15.198  0.4483 -0.1083 -0.2858
 2454TIP3   OH228852   1.381   3.612   0.645  0.7062 -0.0246  0.1877
 2454TIP3    H128853   1.331   3.677   0.695  0.4644 -0.3867  0.4183
 2454TIP3    H228854   1.367   3.636   0.553  1.0587  0.5719  0.2858
 2455TIP3   OH228855   2.957   2.589  14.149  0.5436 -0.1585  0.0073
 2455TIP3    H128856   2.911   2.669  14.177 -0.1719 -0.8469  0.8578
 2455TIP3    H228857   2.977   2.604  14.057 -0.8547  0.4318 -0.2368
 2456TIP3   OH228858   5.486   3.325  12.396 -0.4813 -0.2270 -0.1309
 2456TIP3    H128859   5.401   3.283  12.383  0.5798 -2.8532  0.7567
 2456TIP3    H228860   5.507   3.364  12.311 -2.0282 -0.5642 -0.6977
 2457TIP3   OH228861   1.673   0.114   4.183 -0.4581 -0.1159 -0.1758
 2457TIP3    H128862   1.593   0.063   4.193  0.8769 -2.2506  0.2672
 2457TIP3    H228863   1.668   0.150   4.095 -1.6045 -0.7674 -0.3970
 2458TIP3   OH228864   1.000   5.521   4.260  0.2639  0.0051  0.0918
 2458TIP3    H128865   0.939   5.547   4.192 -0.0449  1.7221  0.9514
 2458TIP3    H228866   0.998   5.425   4.260 -1.7076  0.0103 -0.5265
 2459TIP3   OH228867   5.320   1.350   5.798 -0.0197  0.0879  0.1252
 2459TIP3    H128868   5.388   1.303   5.749  0.7614  1.7085 -0.4248
 2459TIP3    H228869   5.357   1.438   5.811 -0.2213 -0.1921  3.5537
 2460TIP3   OH228870   4.678   1.024  16.509 -0.3462  0.2684 -0.0549
 2460TIP3    H128871   4.656   1.011  16.416 -0.0942 -1.7786  0.1219
 2460TIP3    H228872   4.601   1.067  16.546 -1.3237 -0.7508 -0.8194
 2461TIP3   OH228873   2.594   0.781  17.104  0.6740  0.0609  0.0026
 2461TIP3    H128874   2.640   0.827  17.033  0.2428  1.1744  0.4131
 2461TIP3    H228875   2.501   0.797  17.086  0.5524  0.0602  0.6324
 2462TIP3   OH228876   4.862   5.253   4.369  0.0805  0.3249  0.1054
 2462TIP3    H128877   4.910   5.276   4.290 -3.9202 -0.1741 -2.7779
 2462TIP3    H228878   4.853   5.335   4.417  0.9789  1.0490 -0.9367
 2463TIP3   OH228879   0.985   2.202   0.120  0.0907  1.0273  0.1350
 2463TIP3    H128880   1.066   2.171   0.080 -0.0611  0.3147  0.3656
 2463TIP3    H228881   1.004   2.292   0.147  0.8810  0.7771  0.4186
 2464TIP3   OH228882   2.013   0.570  16.656  0.4152  0.2765  0.5460
 2464TIP3    H128883   1.991   0.662  16.644  1.0908  0.2524 -1.1962
 2464TIP3    H228884   1.964   0.543  16.734 -1.7058  1.4645 -0.3111
 2465TIP3   OH228885   3.644   3.418   1.639  0.0132 -0.3614 -0.1072
 2465TIP3    H128886   3.560   3.464   1.628  0.2195 -0.3047 -1.5383
 2465TIP3    H228887   3.705   3.487   1.668 -0.2039 -0.2029 -0.0231
 2466TIP3   OH228888   0.920   1.345  15.263 -0.3416  0.2288  0.4366
 2466TIP3    H128889   0.843   1.391  15.297 -0.7580  1.2691 -1.7468
 2466TIP3    H228890   0.884   1.271  15.214  0.1704 -0.3994  0.9842
 2467TIP3   OH228891   0.945   0.460   4.719 -0.3033 -0.2341 -0.0771
 2467TIP3    H128892   0.995   0.542   4.715  1.4670 -1.2817 -0.2218
 2467TIP3    H228893   0.994   0.405   4.780 -2.9152 -0.2958  2.1472
 2468TIP3   OH228894   5.923   2.164  16.599 -0.4147 -0.1621  0.2657
 2468TIP3    H128895   5.862   2.165  16.525  1.3223 -1.1561 -1.2650
 2468TIP3    H228896   5.974   2.245  16.588 -0.0206 -0.4117  0.2605
 2469TIP3   OH228897   3.530   2.257  11.270  0.1601 -0.3197  0.2680
 2469TIP3    H128898   3.535   2.240  11.176 -0.1212 -0.2112  0.2301
 2469TIP3    H228899   3.474   2.334  11.277  0.7025  0.0570  0.4887
 2470TIP3   OH228900   0.521   5.830  12.073 -0.0754 -0.4975 -0.0444
 2470TIP3    H128901   0.611   5.862  12.080  0.2264 -1.2859 -0.1698
 2470TIP3    H228902   0.484   5.880  12.000  0.2693 -0.1782 -0.0040
 2471TIP3   OH228903   1.960   1.444   0.059 -0.0763 -0.2250 -0.0898
 2471TIP3    H128904   1.966   1.514   0.124  0.7719  0.1425 -0.5427
 2471TIP3    H228905   1.968   1.363   0.110  0.1970  0.0451  0.3056
 2472TIP3   OH228906   2.037   1.285  13.291  0.2919 -0.7095  0.2234
 2472TIP3    H128907   1.945   1.311  13.289  0.5974  0.4605  0.7971
 2472TIP3    H228908   2.045   1.229  13.369  0.1717 -0.3943  0.4612
 2473TIP3   OH228909   1.667   0.413   0.762  0.4727 -0.1088 -0.5494
 2473TIP3    H128910   1.754   0.445   0.738  0.1011 -0.3075 -2.2696
 2473TIP3    H228911   1.652   0.448   0.850  2.7758 -1.0746  0.3062
 2474TIP3   OH228912   6.097   5.089  12.737  0.2140  0.2557  0.1015
 2474TIP3    H128913   6.071   5.163  12.792  0.7187  0.8825 -0.4835
 2474TIP3    H228914   6.146   5.031  12.795  0.8433  0.9694  0.3015
 2475TIP3   OH228915   2.095   1.684   2.582  0.2474 -0.1387  0.1955
 2475TIP3    H128916   2.071   1.649   2.497  0.4983 -1.2631  0.5737
 2475TIP3    H228917   2.139   1.612   2.627  2.4012  1.1863  0.3422
 2476TIP3   OH228918   5.075   1.407   5.150 -1.0735  0.0928  0.3155
 2476TIP3    H128919   5.007   1.347   5.120 -0.1393 -1.0083  0.3256
 2476TIP3    H228920   5.086   1.386   5.242  0.5442 -1.0717 -0.0879
 2477TIP3   OH228921   4.245   3.200   2.687 -0.9670 -0.4832 -0.1540
 2477TIP3    H128922   4.340   3.189   2.697 -1.0528 -0.0799  1.4031
 2477TIP3    H228923   4.207   3.121   2.726 -1.3260  1.1531  3.2038
 2478TIP3   OH228924   1.574   4.518  16.270  0.2368 -0.2952  0.4112
 2478TIP3    H128925   1.591   4.487  16.359  3.7051 -3.1602 -0.9940
 2478TIP3    H228926   1.523   4.449  16.229  0.9200 -0.2828 -0.5076
 2479TIP3   OH228927   6.310   6.236   3.046 -0.3008 -0.0327 -0.7262
 2479TIP3    H128928   6.310   6.331   3.056 -0.4198 -0.0781 -0.2637
 2479TIP3    H228929   6.218   6.210   3.056 -0.3457 -0.1506 -1.3634
 2480TIP3   OH228930   5.578   1.921   0.447 -0.3301  0.4499 -0.2116
 2480TIP3    H128931   5.636   1.930   0.371  0.4410 -1.0231  0.1515
 2480TIP3    H228932   5.626   1.962   0.519  0.5190 -1.1058  0.1750
 2481TIP3   OH228933   5.799   2.403   3.298 -0.1449  0.6734  0.5077
 2481TIP3    H128934   5.715   2.358   3.312  0.8087 -1.4702 -0.2807
 2481TIP3    H228935   5.836   2.413   3.385 -1.4083  2.1619  0.9360
 2482TIP3   OH228936   4.723   5.918  12.180 -0.3577  0.4860  0.5938
 2482TIP3    H128937   4.813   5.886  12.176 -0.4244 -0.2455  3.2748
 2482TIP3    H228938   4.670   5.838  12.173 -0.7312  0.7119  0.8217
 2483TIP3   OH228939   0.566   4.864   2.279  0.1498  0.1074 -0.5275
 2483TIP3    H128940   0.533   4.903   2.360 -0.2375 -2.2634  0.5475
 2483TIP3    H228941   0.540   4.772   2.285  3.5377 -1.0508 -1.4576
 2484TIP3   OH228942   6.261   0.067   3.518  0.8608  0.1785  0.0515
 2484TIP3    H128943   6.249   0.151   3.474 -1.0330  0.1872  0.5199
 2484TIP3    H228944   6.222   0.003   3.460  2.1985 -0.3920 -0.2488
 2485TIP3   OH228945   3.164   6.303   5.429 -0.3567  0.7004 -0.4024
 2485TIP3    H128946   3.149   6.329   5.338 -0.1524 -0.3983 -0.7635
 2485TIP3    H228947   3.096   6.349   5.479  0.5679  2.6755 -0.8562
 2486TIP3   OH228948   3.515   4.935   1.626  0.1808 -0.3162 -0.0118
 2486TIP3    H128949   3.531   5.028   1.639  1.0545 -0.4885  0.2300
 2486TIP3    H228950   3.594   4.892   1.659 -0.4398 -1.1778  0.3948
 2487TIP3   OH228951   2.624   4.107  11.957 -0.1792 -0.2396 -0.0116
 2487TIP3    H128952   2.663   4.063  11.881 -0.9449  0.2376 -0.7075
 2487TIP3    H228953   2.697   4.124  12.016  0.5219 -0.1460 -0.8880
 2488TIP3   OH228954   6.298   5.746   3.922 -0.6339 -0.0758 -0.1309
 2488TIP3    H128955   6.224   5.795   3.887 -1.1309 -0.1686  0.7638
 2488TIP3    H228956   6.296   5.762   4.016  0.2803 -0.3573 -0.0488
 2489TIP3   OH228957   6.610   6.409   3.697  0.0515 -0.6500  0.2698
 2489TIP3    H128958   6.528   6.411   3.746 -0.1861  2.2041 -0.0444
 2489TIP3    H228959   6.662   6.480   3.734  1.5003 -1.0041 -0.9769
 2490TIP3   OH228960   1.640   2.028  11.864  0.0913 -0.4612 -0.0048
 2490TIP3    H128961   1.703   2.100  11.851 -0.7204  0.0137 -1.6798
 2490TIP3    H228962   1.693   1.956  11.897  1.1649  0.5253  0.5114
 2491TIP3   OH228963   1.988   1.854   5.003  0.0117  0.8079 -0.3206
 2491TIP3    H128964   2.008   1.941   5.039  2.0590  0.3334 -0.1767
 2491TIP3    H228965   2.002   1.863   4.909  1.8351  0.2728 -0.1313
 2492TIP3   OH228966   1.961   6.433  16.550 -0.1897  0.2842  0.2460
 2492TIP3    H128967   1.883   6.486  16.562 -0.0304  0.9323 -1.3656
 2492TIP3    H228968   2.025   6.469  16.611 -0.5866  0.9075  0.2933
 2493TIP3   OH228969   4.090   6.535   3.808  0.1916  0.4582 -0.4993
 2493TIP3    H128970   4.135   6.502   3.885  0.1064  0.6972 -0.3464
 2493TIP3    H228971   4.033   6.463   3.780 -0.1699  0.5565 -0.0268
 2494TIP3   OH228972   4.814   3.565  14.739 -0.0216  0.3034 -0.2159
 2494TIP3    H128973   4.720   3.563  14.757 -0.0542  1.5587 -0.2103
 2494TIP3    H228974   4.849   3.494  14.793 -0.9504 -0.1494 -0.1829
 2495TIP3   OH228975   1.872   2.518  15.463  0.1656  0.1885 -0.7259
 2495TIP3    H128976   1.940   2.523  15.531  1.0480 -0.2628 -1.5622
 2495TIP3    H228977   1.903   2.450  15.403 -0.2446  1.0785 -1.9753
 2496TIP3   OH228978   5.452   2.426  16.825 -0.0576 -0.2616  0.1664
 2496TIP3    H128979   5.417   2.429  16.914  0.3621 -0.2219  0.3334
 2496TIP3    H228980   5.377   2.402  16.771 -0.8387  1.8185  0.2311
 2497TIP3   OH228981   6.702   3.325   5.259 -0.1596 -0.4989 -0.1448
 2497TIP3    H128982   6.788   3.352   5.292 -0.5161 -1.4601  1.7157
 2497TIP3    H228983   6.650   3.309   5.338 -1.7722 -0.8455 -1.2214
 2498TIP3   OH228984   2.439   5.225   4.191 -0.0878 -0.3919 -0.6627
 2498TIP3    H128985   2.398   5.176   4.262  0.9890 -0.8540 -0.3317
 2498TIP3    H228986   2.386   5.304   4.181 -0.4359 -0.4812  0.4398
 2499TIP3   OH228987   6.516   1.396   5.384  0.5208  0.1028 -0.6645
 2499TIP3    H128988   6.566   1.376   5.463 -2.0937 -0.2610  1.0265
 2499TIP3    H228989   6.475   1.313   5.361 -1.5085  0.9368 -0.2716
 2500TIP3   OH228990   5.053   0.272   5.209  0.0122 -0.2175 -0.1565
 2500TIP3    H128991   4.976   0.267   5.152  0.2276  2.4876 -0.8229
 2500TIP3    H228992   5.119   0.317   5.157  1.8242 -1.7083  0.7078
 2501TIP3   OH228993   3.277   4.120  11.880  0.3424 -0.3448 -0.4987
 2501TIP3    H128994   3.194   4.096  11.921 -0.4369  2.0768 -0.5002
 2501TIP3    H228995   3.343   4.096  11.944 -0.7368  1.8524  1.5836
 2502TIP3   OH228996   6.627   0.237  14.195 -0.1059 -0.2531  0.3977
 2502TIP3    H128997   6.666   0.161  14.153 -1.4667 -1.8055  1.8026
 2502TIP3    H228998   6.555   0.262  14.137  0.9586  0.6253 -0.5753
 2503TIP3   OH228999   0.215   5.732   2.553  0.3775  0.2090 -0.9126
 2503TIP3    H129000   0.172   5.692   2.629  2.0328  1.0170  0.5109
 2503TIP3    H229001   0.143   5.765   2.499 -0.8286  0.7269  0.9275
 2504TIP3   OH229002   4.280   2.226  15.433  0.7756 -0.2405  0.4741
 2504TIP3    H129003   4.275   2.233  15.338 -0.6953 -0.6985  0.4961
 2504TIP3    H229004   4.231   2.303  15.465  1.7798  0.2474  0.8799
 2505TIP3   OH229005   2.106   1.589   2.318  0.4715 -0.6962  0.1156
 2505TIP3    H129006   2.178   1.648   2.296  0.2565 -0.1279  0.8809
 2505TIP3    H229007   2.041   1.603   2.249  0.6856 -0.4900 -0.0443
 2506TIP3   OH229008   2.635   4.773   5.096 -0.0717 -0.2193  0.0243
 2506TIP3    H129009   2.644   4.857   5.142  1.2272 -0.0624 -0.4789
 2506TIP3    H229010   2.566   4.788   5.031 -0.8782  0.0028  0.9145
 2507TIP3   OH229011   4.210   2.210  13.773  0.4190  0.3002  0.1746
 2507TIP3    H129012   4.282   2.151  13.794  0.0977  0.0985  0.7231
 2507TIP3    H229013   4.153   2.159  13.715  0.9681  0.6353 -0.6937
 2508TIP3   OH229014   1.521   2.667   3.413  0.2244  0.1582 -0.0013
 2508TIP3    H129015   1.449   2.606   3.429  1.0022 -0.3554  1.9172
 2508TIP3    H229016   1.548   2.695   3.501  0.6297  2.4348 -0.7692
 2509TIP3   OH229017   3.883   5.114  17.010 -0.0540  0.0523 -0.1886
 2509TIP3    H129018   3.938   5.136  17.085 -1.3746 -0.1372  0.8730
 2509TIP3    H229019   3.811   5.063  17.047 -1.2302  0.7296 -1.4488
 2510TIP3   OH229020   1.393   1.117   1.258  0.0931 -0.4261 -0.1152
 2510TIP3    H129021   1.441   1.051   1.207  1.9552  1.0268 -0.3408
 2510TIP3    H229022   1.449   1.133   1.334 -0.1211  1.1608 -0.2706
 2511TIP3   OH229023   1.850   2.605  13.296 -0.4054  0.5751 -0.5509
 2511TIP3    H129024   1.929   2.562  13.329 -1.1189 -0.3969 -0.0768
 2511TIP3    H229025   1.873   2.698  13.294  0.5319  0.3751  0.1883
 2512TIP3   OH229026   2.449   0.462   2.124 -0.2121 -0.0931  0.3881
 2512TIP3    H129027   2.493   0.504   2.050  1.1144  1.3655  1.9205
 2512TIP3    H229028   2.449   0.369   2.102 -0.1252  0.3189 -1.5520
 2513TIP3   OH229029   6.086   5.228  15.432  0.0095  0.5702  0.1852
 2513TIP3    H129030   6.123   5.199  15.515  0.1118 -1.2047 -0.4409
 2513TIP3    H229031   6.114   5.162  15.368 -3.7978 -0.7090 -0.4397
 2514TIP3   OH229032   1.722   6.332  15.707 -0.0881  0.3163  0.4802
 2514TIP3    H129033   1.807   6.298  15.733 -0.1432 -0.9772 -0.8917
 2514TIP3    H229034   1.717   6.418  15.748  2.1850  0.7280  0.0334
 2515TIP3   OH229035   0.241   0.244   1.722  0.0527 -0.2869  1.0121
 2515TIP3    H129036   0.168   0.293   1.761  0.2903  0.1415  0.9276
 2515TIP3    H229037   0.247   0.276   1.632  1.3644  0.8795  1.4764
 2516TIP3   OH229038   4.410   4.788  14.168  0.3486 -0.2617  0.2445
 2516TIP3    H129039   4.489   4.746  14.202 -0.3147  0.9321  3.6477
 2516TIP3    H229040   4.441   4.870  14.129  0.9886 -0.9948 -0.8515
 2517TIP3   OH229041   0.813   3.257  13.838  0.5287  0.1307 -0.2214
 2517TIP3    H129042   0.846   3.192  13.775 -0.2046 -2.2864  1.6986
 2517TIP3    H229043   0.800   3.207  13.919 -1.6128  2.3625  0.9520
 2518TIP3   OH229044   0.569   4.730   1.225 -0.4744  0.0343 -0.4564
 2518TIP3    H129045   0.577   4.825   1.235  0.2323 -0.1452  0.9491
 2518TIP3    H229046   0.475   4.713   1.233 -0.5294  0.5453  0.1247
 2519TIP3   OH229047   5.554   1.790  15.806  0.3405 -0.3576 -0.1535
 2519TIP3    H129048   5.640   1.756  15.830 -0.2095 -1.4915  0.2635
 2519TIP3    H229049   5.505   1.713  15.776 -0.5530  0.2568 -0.3191
 2520TIP3   OH229050   6.332   5.249  14.362 -0.1343 -0.5856  0.3575
 2520TIP3    H129051   6.331   5.344  14.367  0.3910 -0.5624  0.1049
 2520TIP3    H229052   6.336   5.230  14.268 -0.4295 -0.8607  0.3989
 2521TIP3   OH229053   3.328   3.940  13.310 -0.0193 -0.1415  0.5869
 2521TIP3    H129054   3.321   3.845  13.313 -2.2512 -0.0370  2.3398
 2521TIP3    H229055   3.284   3.969  13.391  0.0801  2.3774 -0.1753
 2522TIP3   OH229056   4.166   6.212  12.196  0.0515  0.4315 -0.5291
 2522TIP3    H129057   4.254   6.190  12.227 -0.1574  1.4082  0.8732
 2522TIP3    H229058   4.171   6.204  12.100  1.9236  1.3139 -0.5479
 2523TIP3   OH229059   3.990   4.587   5.851 -0.3313 -0.3671 -0.1666
 2523TIP3    H129060   4.040   4.616   5.775 -1.0058  1.8289  0.1627
 2523TIP3    H229061   3.901   4.572   5.817 -0.1549 -1.4596 -0.1893
 2524TIP3   OH229062   1.765   1.387  13.306  0.6000 -0.4197 -0.0339
 2524TIP3    H129063   1.710   1.315  13.277  1.1858 -0.9272  0.0777
 2524TIP3    H229064   1.709   1.464  13.303 -0.5089 -1.1371  1.3674
 2525TIP3   OH229065   1.451   4.908  17.284 -0.8049 -0.1125  0.6174
 2525TIP3    H129066   1.422   4.881  17.371 -2.0656  0.8858  0.5291
 2525TIP3    H229067   1.502   4.833  17.252 -0.3842 -0.5306  2.1624
 2526TIP3   OH229068   5.417   6.485  12.442  0.0419  0.0771  0.1283
 2526TIP3    H129069   5.405   6.431  12.364  1.5307 -0.2824  0.1093
 2526TIP3    H229070   5.446   6.570  12.409 -2.0654  0.8859  0.1722
 2527TIP3   OH229071   3.324   2.734   5.758  0.8254 -0.5832 -0.0363
 2527TIP3    H129072   3.263   2.672   5.798  1.4137 -1.2251 -0.1191
 2527TIP3    H229073   3.401   2.682   5.736  1.5437  0.2708  0.3629
 2528TIP3   OH229074   6.289   6.020  14.652 -0.6881 -0.1563 -0.0202
 2528TIP3    H129075   6.288   6.086  14.582  1.4167  2.1099  1.8641
 2528TIP3    H229076   6.225   6.052  14.715 -1.4752 -1.3593 -0.1825
 2529TIP3   OH229077   4.371   2.432  11.760 -0.3403 -0.2572  0.3163
 2529TIP3    H129078   4.299   2.427  11.822 -2.0083  0.4494 -1.4650
 2529TIP3    H229079   4.420   2.510  11.786 -3.5275  2.6799 -1.6646
 2530TIP3   OH229080   4.472   2.722  16.759 -0.0711 -0.0839  0.0245
 2530TIP3    H129081   4.466   2.673  16.841 -0.0799 -0.5987 -0.2809
 2530TIP3    H229082   4.393   2.776  16.757 -0.2416 -0.3267  0.1930
 2531TIP3   OH229083   1.723   3.212   1.508  0.1477 -0.2773  0.5180
 2531TIP3    H129084   1.734   3.300   1.544 -1.9267  0.8007 -1.2134
 2531TIP3    H229085   1.633   3.210   1.475  0.3653 -2.8037 -0.1849
 2532TIP3   OH229086   0.901   0.716  16.636  0.0623  0.3054 -0.2188
 2532TIP3    H129087   0.905   0.810  16.658 -1.1842  0.6072 -1.1939
 2532TIP3    H229088   0.987   0.697  16.598  0.9070  0.6465  1.4320
 2533TIP3   OH229089   5.903   1.520  11.997  0.0752 -0.2905 -0.9987
 2533TIP3    H129090   5.954   1.543  11.920  1.2750 -1.0954 -0.4732
 2533TIP3    H229091   5.850   1.445  11.969 -0.7631  0.4824 -1.5179
 2534TIP3   OH229092   1.439   3.162   3.222  0.5136  0.4845  0.0803
 2534TIP3    H129093   1.465   3.078   3.184 -0.0608 -1.3870  3.4430
 2534TIP3    H229094   1.390   3.205   3.151  0.8704 -1.9562 -1.8131
 2535TIP3   OH229095   4.093   1.995  15.641  0.2497  0.3662 -0.1701
 2535TIP3    H129096   4.081   1.962  15.552 -1.3236 -0.0054  0.1501
 2535TIP3    H229097   4.117   1.919  15.693  3.6660  0.9778 -0.6594
 2536TIP3   OH229098   3.636   2.723  11.887  0.4060 -0.4020  0.7745
 2536TIP3    H129099   3.660   2.815  11.874  0.5302 -0.5788 -0.4005
 2536TIP3    H229100   3.671   2.701  11.973  1.3870  0.3419  0.5857
 2537TIP3   OH229101   3.508   1.898  15.385  0.5959 -0.7918  0.0687
 2537TIP3    H129102   3.585   1.941  15.347  0.2332  1.1810  1.4514
 2537TIP3    H229103   3.471   1.849  15.312 -0.1200  2.8762 -2.3217
 2538TIP3   OH229104   2.674   0.583  11.556 -0.2903  0.5870 -0.3178
 2538TIP3    H129105   2.693   0.546  11.643  0.4789 -0.7847 -1.0273
 2538TIP3    H229106   2.745   0.645  11.541  1.4219 -1.4704 -1.2168
 2539TIP3   OH229107   0.171   0.117  13.059 -0.5782 -0.3843 -0.0414
 2539TIP3    H129108   0.167   0.197  13.112 -0.7434  2.0607 -3.4172
 2539TIP3    H229109   0.089   0.071  13.077 -1.0675  0.8708  1.0531
 2540TIP3   OH229110   5.795   1.844  11.476  0.3884 -0.1616  0.3843
 2540TIP3    H129111   5.831   1.926  11.510 -0.4469  1.1656 -1.7437
 2540TIP3    H229112   5.870   1.796  11.443  0.8697 -0.2219  1.5180
 2541TIP3   OH229113   4.324   1.595  12.241  0.3687  0.5349 -0.3546
 2541TIP3    H129114   4.278   1.572  12.160 -1.4560  1.8600  0.2473
 2541TIP3    H229115   4.380   1.520  12.259  0.2047 -0.1379 -2.3966
 2542TIP3   OH229116   2.142   3.422   3.604  0.2068 -0.6171 -0.4719
 2542TIP3    H129117   2.055   3.385   3.615  0.1569 -0.4361 -0.2520
 2542TIP3    H229118   2.202   3.349   3.622  0.1092 -0.5948 -0.0545
 2543TIP3   OH229119   5.539   4.697  11.473  0.0333 -0.0312  0.2584
 2543TIP3    H129120   5.596   4.692  11.397 -0.2241  1.6409 -0.0858
 2543TIP3    H229121   5.576   4.767  11.527 -1.3747  0.7452  0.2668
 2544TIP3   OH229122   5.727   6.703   6.443  0.1863 -0.2322  0.4179
 2544TIP3    H129123   5.705   6.688   6.351 -0.5580  0.8054  0.4117
 2544TIP3    H229124   5.819   6.679   6.449 -0.5298 -3.4406  0.1517
 2545TIP3   OH229125   0.322   0.009   1.216 -0.0242 -0.1313  0.5725
 2545TIP3    H129126   0.334   0.086   1.160 -0.4412  0.7593  1.6606
 2545TIP3    H229127   0.228  -0.005   1.218 -0.0987  0.4430  1.7960
 2546TIP3   OH229128   4.142   0.548   4.834 -0.2106  0.3530  0.0299
 2546TIP3    H129129   4.194   0.573   4.911 -0.5272  0.8284  0.0960
 2546TIP3    H229130   4.061   0.512   4.871 -0.1377  0.0864 -0.0745
 2547TIP3   OH229131   4.609   1.374  11.054  0.2400  0.0324  0.0178
 2547TIP3    H129132   4.668   1.308  11.017  0.9599  0.7005 -0.0316
 2547TIP3    H229133   4.585   1.339  11.140  1.1609  0.0191  0.2814
 2548TIP3   OH229134   2.663   6.346  12.737  0.1023  0.0390 -0.0796
 2548TIP3    H129135   2.622   6.418  12.785 -0.2357 -0.1170 -0.1351
 2548TIP3    H229136   2.749   6.336  12.779  0.0709  0.3371  0.0615
 2549TIP3   OH229137   2.383   0.707  15.819 -0.4131  0.0695  0.3868
 2549TIP3    H129138   2.448   0.668  15.760 -1.2285  0.4569 -0.8017
 2549TIP3    H229139   2.415   0.686  15.907 -0.0419 -1.9661 -0.1874
 2550TIP3   OH229140   2.866   4.417  13.553 -0.0139  0.0518 -0.0177
 2550TIP3    H129141   2.878   4.430  13.647 -0.0575 -2.5998  0.4397
 2550TIP3    H229142   2.858   4.505  13.517 -1.4177  1.1222  2.6463
 2551TIP3   OH229143   3.543   0.526  11.586  0.3737  0.3065  0.0244
 2551TIP3    H129144   3.617   0.535  11.645  1.0139  0.3638 -0.7791
 2551TIP3    H229145   3.570   0.570  11.505  0.5447 -1.9777 -1.2464
 2552TIP3   OH229146   0.333   0.987   4.672 -0.1060  0.0480  0.0965
 2552TIP3    H129147   0.303   0.900   4.648  0.0070  0.0486 -0.0487
 2552TIP3    H229148   0.253   1.037   4.688 -0.1642 -0.1998  0.5911
 2553TIP3   OH229149   4.382   1.741  15.421 -0.0928 -0.8900 -0.2397
 2553TIP3    H129150   4.406   1.699  15.339 -0.3021  1.0333 -1.3348
 2553TIP3    H229151   4.311   1.688  15.456  0.5482 -2.1966 -0.8606
 2554TIP3   OH229152   3.182   2.800   1.213 -0.0056 -0.0224 -0.1761
 2554TIP3    H129153   3.210   2.745   1.286  0.5908 -2.4505 -2.1023
 2554TIP3    H229154   3.087   2.801   1.218  0.0490  0.6241  1.1284
 2555TIP3   OH229155   0.795   3.615   3.286 -0.3262  0.6437 -0.5126
 2555TIP3    H129156   0.784   3.683   3.352 -0.0323 -0.6342  0.9211
 2555TIP3    H229157   0.731   3.548   3.310  1.3693 -0.8921 -0.0622
 2556TIP3   OH229158   1.704   2.629  16.381 -0.0578 -0.7108 -0.3267
 2556TIP3    H129159   1.686   2.723  16.381  2.0592 -0.2237  1.1609
 2556TIP3    H229160   1.736   2.610  16.293 -1.1800 -0.2272 -0.8639
 2557TIP3   OH229161   1.957   0.050  11.593  0.7727 -0.5559  0.3749
 2557TIP3    H129162   1.918   0.137  11.596  2.0437  0.0189  3.2178
 2557TIP3    H229163   2.051   0.065  11.607  1.3117 -2.2753 -0.9908
 2558TIP3   OH229164   1.081   1.152  14.479  0.2196  0.5112  0.3718
 2558TIP3    H129165   0.998   1.191  14.504  0.0812 -0.4583  1.5103
 2558TIP3    H229166   1.105   1.197  14.398 -0.4954  2.0884  0.9927
 2559TIP3   OH229167   4.224   2.424   5.108  0.1340 -0.1256 -0.4423
 2559TIP3    H129168   4.266   2.510   5.111  0.2844 -0.2248  0.7727
 2559TIP3    H229169   4.266   2.374   5.178 -0.7604 -0.8144 -0.3825
 2560TIP3   OH229170   6.660   4.115  14.189 -0.5828  0.6020 -0.0196
 2560TIP3    H129171   6.615   4.107  14.273 -0.5841  1.3888  0.0611
 2560TIP3    H229172   6.749   4.084  14.206 -1.2823 -1.8730 -0.4054
 2561TIP3   OH229173   2.723   5.474   1.075  0.7247  0.9131 -0.0977
 2561TIP3    H129174   2.712   5.454   1.168  0.0762  1.3735 -0.0688
 2561TIP3    H229175   2.711   5.569   1.069  1.0770  0.9324 -0.6106
 2562TIP3   OH229176   4.270   4.467  10.730 -0.1095  0.1936 -0.0521
 2562TIP3    H129177   4.361   4.475  10.702  0.4255  0.1747  1.5464
 2562TIP3    H229178   4.226   4.422  10.658  0.7951  1.5291 -1.4952
 2563TIP3   OH229179   6.350   4.301  16.872  0.8718  0.2708 -0.3269
 2563TIP3    H129180   6.304   4.218  16.865  0.9794  0.2632 -1.0300
 2563TIP3    H229181   6.377   4.321  16.782  0.0733  1.5015 -0.3120
 2564TIP3   OH229182   2.032   5.372  14.295 -0.4049  0.6679 -1.0306
 2564TIP3    H129183   2.055   5.363  14.202 -1.8744  0.1509 -1.3671
 2564TIP3    H229184   1.978   5.296  14.314  0.9890  0.0331  0.6409
 2565TIP3   OH229185   2.496   3.753  17.162 -0.1673 -0.2139  0.4360
 2565TIP3    H129186   2.523   3.820  17.225  0.8364  1.0333 -1.2337
 2565TIP3    H229187   2.577   3.707  17.140  0.0235  1.0370 -1.7751
 2566TIP3   OH229188   4.614   6.250   3.056 -0.6699 -0.1565 -0.6048
 2566TIP3    H129189   4.650   6.312   3.120 -0.6631 -0.5660 -0.2108
 2566TIP3    H229190   4.668   6.264   2.977  0.8400 -1.2504  0.1876
 2567TIP3   OH229191   6.477   4.676   1.662  0.2736  0.2565  0.4088
 2567TIP3    H129192   6.432   4.758   1.685 -0.5301  0.0564 -0.4001
 2567TIP3    H229193   6.502   4.639   1.746 -0.9728  0.4428  0.8868
 2568TIP3   OH229194   3.568   6.096   4.011  0.5737 -0.2198 -0.0752
 2568TIP3    H129195   3.481   6.130   4.029  0.1256 -0.7260 -1.1828
 2568TIP3    H229196   3.588   6.039   4.086  0.2524  0.4344  0.5137
 2569TIP3   OH229197   6.574   6.502  11.247 -0.4975 -0.0000 -0.2784
 2569TIP3    H129198   6.490   6.529  11.211  0.2633  1.3835 -1.0640
 2569TIP3    H229199   6.632   6.493  11.171  0.8834  2.0869  0.4469
 2570TIP3   OH229200   2.327   4.369  12.713  0.3126  0.3902 -0.0643
 2570TIP3    H129201   2.403   4.311  12.719  1.8489  2.0456 -2.1434
 2570TIP3    H229202   2.336   4.427  12.788 -0.7095 -1.3244  1.4819
 2571TIP3   OH229203   3.122   0.083   6.570  0.2040 -0.1585  0.3680
 2571TIP3    H129204   3.037   0.041   6.567  0.3987 -0.5103 -2.0997
 2571TIP3    H229205   3.185   0.011   6.575  0.4404 -0.0534 -0.8776
 2572TIP3   OH229206   6.402   5.681   1.462 -0.1274 -0.0254 -0.1741
 2572TIP3    H129207   6.494   5.654   1.460 -0.0961  0.1177 -0.8056
 2572TIP3    H229208   6.389   5.717   1.550  0.4517  0.0788 -0.1305
 2573TIP3   OH229209   6.299   5.863  11.032 -0.2232  0.4313  0.2748
 2573TIP3    H129210   6.251   5.786  11.061 -0.0132  0.5889  1.0656
 2573TIP3    H229211   6.342   5.836  10.951 -3.2925  0.8830 -1.6878
 2574TIP3   OH229212   3.871   0.544   1.201  0.4414  0.0846  0.3158
 2574TIP3    H129213   3.878   0.506   1.114  0.3880 -1.3428  0.9118
 2574TIP3    H229214   3.806   0.614   1.192  1.8527  1.2754 -1.1994
 2575TIP3   OH229215   2.315   1.428   5.120 -0.2632  0.0130 -0.1415
 2575TIP3    H129216   2.273   1.472   5.046  1.4184  0.8560 -0.6612
 2575TIP3    H229217   2.402   1.469   5.126  1.0118 -2.5089  0.0326
 2576TIP3   OH229218   1.694   6.683   5.820 -0.2218 -0.2697  0.2314
 2576TIP3    H129219   1.766   6.738   5.849 -0.2040  0.3734 -0.9626
 2576TIP3    H229220   1.649   6.657   5.901  0.4953  0.4949  0.8896
 2577TIP3   OH229221   3.044   4.798   4.046 -0.0356 -0.1607  0.6826
 2577TIP3    H129222   2.975   4.747   4.003 -1.1411  2.3081 -0.6664
 2577TIP3    H229223   3.029   4.888   4.016  2.0786  0.9084  2.5981
 2578TIP3   OH229224   5.191   4.010  12.458  0.5166 -0.1253  0.2745
 2578TIP3    H129225   5.272   3.973  12.494  1.2885  0.9248 -0.3421
 2578TIP3    H229226   5.211   4.102  12.443 -1.4106  0.6320  1.9356
 2579TIP3   OH229227   0.658   0.715  10.836 -0.0331 -0.2143 -0.7775
 2579TIP3    H129228   0.658   0.793  10.782  1.4559 -0.4769 -1.1862
 2579TIP3    H229229   0.651   0.748  10.926  0.6654  0.4092 -0.9415
 2580TIP3   OH229230   1.673   0.170   3.904  0.2245  0.1734  0.1576
 2580TIP3    H129231   1.707   0.146   3.817  2.2296 -0.1929  1.0056
 2580TIP3    H229232   1.672   0.265   3.904  3.3594  0.3216  0.7854
 2581TIP3   OH229233   4.815   5.170  15.415 -1.0210  0.1734 -0.4533
 2581TIP3    H129234   4.859   5.255  15.407  1.1999 -0.7609  0.6698
 2581TIP3    H229235   4.813   5.135  15.326 -1.3680  1.1253 -0.8260
 2582TIP3   OH229236   4.262   3.117   2.064 -0.5483 -0.3484 -0.1140
 2582TIP3    H129237   4.192   3.110   2.000 -1.1513 -2.9507  0.7245
 2582TIP3    H229238   4.222   3.159   2.140 -1.0564 -1.2979  0.1497
 2583TIP3   OH229239   6.194   1.731   2.273 -0.0859  0.5516  0.2075
 2583TIP3    H129240   6.276   1.778   2.263 -0.5340  1.2146 -0.5077
 2583TIP3    H229241   6.127   1.799   2.267 -0.6868  0.0193  0.7611
 2584TIP3   OH229242   0.570   1.426  12.888  0.1003  0.1958 -0.3112
 2584TIP3    H129243   0.476   1.426  12.869 -0.0138 -0.6550  0.2022
 2584TIP3    H229244   0.606   1.497  12.834 -1.1036  1.7467  0.8365
 2585TIP3   OH229245   2.667   3.116   1.341 -0.2692 -0.1325 -0.1890
 2585TIP3    H129246   2.675   3.195   1.395  3.0838 -1.0825  0.9306
 2585TIP3    H229247   2.669   3.148   1.251  0.7037  1.1081  0.2402
 2586TIP3   OH229248   2.059   4.137  13.943 -0.1579 -0.1441 -0.4823
 2586TIP3    H129249   2.060   4.164  14.035 -0.5844  1.0602 -0.8112
 2586TIP3    H229250   2.114   4.059  13.941  2.0805  1.2833  0.3776
 2587TIP3   OH229251   2.872   3.359  11.456  0.3772 -0.4869 -0.1130
 2587TIP3    H129252   2.799   3.335  11.399 -2.1366 -0.0724  2.7071
 2587TIP3    H229253   2.925   3.419  11.403 -2.5485  0.9630 -1.6349
 2588TIP3   OH229254   5.467   5.474  14.955  0.2605  0.2270  0.5415
 2588TIP3    H129255   5.476   5.561  14.917 -1.8906  0.0353 -0.5591
 2588TIP3    H229256   5.513   5.416  14.894  0.4883  0.4119  0.5339
 2589TIP3   OH229257   5.583   5.766   0.005  0.3468  0.3550 -0.0951
 2589TIP3    H129258   5.530   5.711   0.063  0.5529 -0.2588 -0.4775
 2589TIP3    H229259   5.672   5.733   0.016  0.1892 -0.8437 -1.9228
 2590TIP3   OH229260   2.024   0.369  14.574  0.3574 -0.7919  0.5605
 2590TIP3    H129261   2.010   0.375  14.668  1.6291  0.3137  0.7178
 2590TIP3    H229262   2.059   0.455  14.549 -0.7701 -0.7569 -1.0807
 2591TIP3   OH229263   1.856   1.382   2.397 -0.4436  0.3148 -0.3431
 2591TIP3    H129264   1.857   1.405   2.304  0.4308  0.4608 -0.3099
 2591TIP3    H229265   1.855   1.466   2.443 -0.1854  0.2528 -0.2228
 2592TIP3   OH229266   4.027   6.483   5.003 -0.1367 -0.1788 -0.0122
 2592TIP3    H129267   4.049   6.420   4.935  1.9281  3.6066 -3.2890
 2592TIP3    H229268   4.110   6.497   5.050 -0.4721  0.2729  0.4559
 2593TIP3   OH229269   5.233   1.112  12.555 -0.1651  0.3195 -0.2259
 2593TIP3    H129270   5.161   1.112  12.492  1.2589 -0.3049 -1.9336
 2593TIP3    H229271   5.263   1.203  12.556 -2.0596  1.0048  1.8866
 2594TIP3   OH229272   6.097   6.604  16.572  0.9420  0.1425  0.5968
 2594TIP3    H129273   6.028   6.570  16.628  0.4665  1.4611  0.8593
 2594TIP3    H229274   6.093   6.551  16.492  0.2633 -0.4021  0.9881
 2595TIP3   OH229275   5.154   1.392  13.661 -0.1506 -0.0389 -0.2174
 2595TIP3    H129276   5.221   1.410  13.727 -0.3081 -1.1369  0.2675
 2595TIP3    H229277   5.199   1.336  13.597 -1.1833 -2.8635  1.3673
 2596TIP3   OH229278   4.168   5.618  16.318  0.4743  0.2837 -0.4667
 2596TIP3    H129279   4.207   5.531  16.310 -0.2757 -0.1294  0.2077
 2596TIP3    H229280   4.205   5.654  16.398 -2.0769 -0.9990  1.4450
 2597TIP3   OH229281   3.024   3.014  12.555  0.1697  0.1123 -0.7417
 2597TIP3    H129282   3.025   3.055  12.468 -1.9567 -2.9961 -2.4411
 2597TIP3    H229283   3.084   2.940  12.547 -2.0645 -1.8246 -0.5909
 2598TIP3   OH229284   5.336   3.211   2.443  0.5828  0.3626 -0.2354
 2598TIP3    H129285   5.395   3.239   2.372 -0.9124 -0.7103 -1.9800
 2598TIP3    H229286   5.264   3.167   2.398 -3.1714  4.0829  1.4173
 2599TIP3   OH229287   2.465   0.289   2.565  0.4830 -0.4668  0.6760
 2599TIP3    H129288   2.469   0.229   2.490  0.1635  0.5237 -0.1517
 2599TIP3    H229289   2.400   0.355   2.539  1.3153  0.6132  1.2872
 2600TIP3   OH229290   1.515   6.477   0.177  0.4582 -0.1810  0.1581
 2600TIP3    H129291   1.426   6.464   0.209 -0.6384 -0.6184 -2.7437
 2600TIP3    H229292   1.570   6.430   0.239 -1.1612  0.9379  2.6035
 2601TIP3   OH229293   4.422   6.434  15.850 -0.0111  0.0241 -0.2783
 2601TIP3    H129294   4.373   6.434  15.932 -0.2335  1.7702 -0.3692
 2601TIP3    H229295   4.512   6.450  15.875  0.4666 -2.5007 -0.1687
 2602TIP3   OH229296   4.940   5.666  16.967  0.1790  0.2934 -0.3974
 2602TIP3    H129297   5.018   5.657  17.022  0.4456  0.0177 -0.8138
 2602TIP3    H229298   4.868   5.635  17.023  0.4282  0.1273 -0.1623
 2603TIP3   OH229299   4.036   5.357   1.296 -0.1463  0.0200  0.1411
 2603TIP3    H129300   4.080   5.321   1.373  1.5167  1.5581 -0.0155
 2603TIP3    H229301   4.093   5.336   1.223  0.0701  1.5584 -0.1595
 2604TIP3   OH229302   2.713   2.781  13.599 -0.6599 -0.0856  0.0760
 2604TIP3    H129303   2.635   2.825  13.566  0.8194  3.4122  0.6787
 2604TIP3    H229304   2.750   2.843  13.662  3.3322 -0.8024 -1.2303
 2605TIP3   OH229305   0.598   1.662  14.588  0.2043  0.5569  0.3964
 2605TIP3    H129306   0.602   1.587  14.529 -1.8886  0.5719  0.1635
 2605TIP3    H229307   0.549   1.729  14.539  2.7323  2.4507  0.2582
 2606TIP3   OH229308   5.854   2.110  15.919 -0.2497 -0.2303  0.1352
 2606TIP3    H129309   5.922   2.076  15.978 -1.5058 -1.9719  0.6749
 2606TIP3    H229310   5.880   2.078  15.832 -0.0579 -0.3841  0.2483
 2607TIP3   OH229311   1.160   0.670  13.889 -0.2891  0.1218 -0.1881
 2607TIP3    H129312   1.144   0.716  13.971  1.3345 -2.5895  1.8083
 2607TIP3    H229313   1.095   0.600  13.888  0.3684 -0.4886 -0.6830
 2608TIP3   OH229314   5.677   1.562   2.141  0.2154 -0.0339 -0.2411
 2608TIP3    H129315   5.698   1.621   2.214  1.7846  0.5098 -1.0831
 2608TIP3    H229316   5.657   1.621   2.068  0.1100 -0.5699 -0.6491
 2609TIP3   OH229317   5.303   4.509  14.294  0.4212  0.0192 -0.6305
 2609TIP3    H129318   5.317   4.439  14.358 -0.5434  0.5639  0.2159
 2609TIP3    H229319   5.312   4.466  14.209 -0.0537 -1.1228 -0.1246
 2610TIP3   OH229320   0.243   0.666  14.251  0.0019  0.1261  0.0771
 2610TIP3    H129321   0.323   0.676  14.201  1.4864 -0.2294  2.2438
 2610TIP3    H229322   0.173   0.692  14.191  1.1346 -4.0616 -3.5902
 2611TIP3   OH229323   0.875   1.566  16.993  0.4916  0.3289  0.3382
 2611TIP3    H129324   0.886   1.536  16.903  3.4769 -1.8340  1.2592
 2611TIP3    H229325   0.874   1.661  16.987 -1.5809  0.2611 -2.0979
 2612TIP3   OH229326   5.939   5.251   4.209  0.2360  0.2569 -0.1296
 2612TIP3    H129327   6.000   5.190   4.168 -0.1706  1.4936 -2.7775
 2612TIP3    H229328   5.969   5.258   4.300  0.6342 -3.3584  0.1603
 2613TIP3   OH229329   4.457   2.255  16.482  0.2955  0.8136  0.0792
 2613TIP3    H129330   4.407   2.335  16.501  1.7358  2.0732 -1.0940
 2613TIP3    H229331   4.439   2.239  16.389 -1.2942 -1.2586  0.6797
 2614TIP3   OH229332   1.328   0.234  14.695  0.3764  0.1295 -0.1483
 2614TIP3    H129333   1.240   0.216  14.664 -0.2789  0.4075  1.4807
 2614TIP3    H229334   1.385   0.184  14.636 -0.9695 -1.6946  0.0276
 2615TIP3   OH229335   5.684   4.518   2.109 -0.0329  0.1113  0.1373
 2615TIP3    H129336   5.590   4.500   2.114  0.1451 -0.4304  3.9192
 2615TIP3    H229337   5.716   4.460   2.039 -2.0553 -1.9649  0.8152
 2616TIP3   OH229338   6.667   6.586  11.494 -0.6816  0.3534 -0.1628
 2616TIP3    H129339   6.637   6.543  11.414 -1.9940  0.3607  0.3029
 2616TIP3    H229340   6.692   6.674  11.466  0.2749 -0.0996 -0.7994
 2617TIP3   OH229341   2.862   4.675   3.880 -0.4627  0.1617 -0.3708
 2617TIP3    H129342   2.851   4.581   3.897  0.1656  0.0197 -0.6803
 2617TIP3    H229343   2.896   4.678   3.790 -0.9341  0.7158 -0.5327
 2618TIP3   OH229344   6.204   1.053   5.183  0.5830 -0.3327 -0.4881
 2618TIP3    H129345   6.163   1.032   5.100  1.4551 -1.4335 -0.6711
 2618TIP3    H229346   6.145   1.116   5.225 -1.4746 -2.1073 -0.5607
 2619TIP3   OH229347   6.602   1.699   4.657  0.0365 -0.4223 -0.4017
 2619TIP3    H129348   6.555   1.647   4.722 -0.5667 -0.5874 -0.9599
 2619TIP3    H229349   6.539   1.764   4.628  1.2575  1.7084  1.4465
 2620TIP3   OH229350   5.470   2.455  13.762 -0.9274  0.3393  0.5581
 2620TIP3    H129351   5.467   2.548  13.737 -0.8799 -0.1016 -1.1637
 2620TIP3    H229352   5.553   2.424  13.728 -1.3517 -0.5560  0.3138
 2621TIP3   OH229353   2.470   1.253   4.765 -0.1483  0.1000 -0.6693
 2621TIP3    H129354   2.411   1.322   4.795 -0.0156  0.1510 -0.5252
 2621TIP3    H229355   2.416   1.199   4.708 -0.7183 -0.6612  0.5607
 2622TIP3   OH229356   5.499   4.547  15.544 -0.0041  0.2670  0.0768
 2622TIP3    H129357   5.577   4.591  15.576 -0.0556  0.9614 -0.7423
 2622TIP3    H229358   5.454   4.612  15.491 -0.5204 -0.4999 -0.4488
 2623TIP3   OH229359   3.417   2.548   1.816  0.6733 -0.0638 -0.6103
 2623TIP3    H129360   3.447   2.484   1.881  1.4281  0.9546  0.0748
 2623TIP3    H229361   3.462   2.629   1.840 -2.4102  1.5153  0.2848
 2624TIP3   OH229362   2.042   0.800  14.683  0.2151  0.5843 -0.3636
 2624TIP3    H129363   2.066   0.722  14.634  0.7029  0.4263  0.1186
 2624TIP3    H229364   2.054   0.775  14.775 -0.0208  1.0938 -0.1912
 2625TIP3   OH229365   3.893   4.421  11.671 -0.0588 -0.5956 -0.9997
 2625TIP3    H129366   3.953   4.347  11.658 -1.9864 -2.4611  0.0650
 2625TIP3    H229367   3.855   4.406  11.758 -1.8883  0.5968 -1.5380
 2626TIP3   OH229368   3.763   1.235   1.465 -0.2821  0.1653  0.0365
 2626TIP3    H129369   3.847   1.280   1.463  0.1970 -0.6541  0.8468
 2626TIP3    H229370   3.742   1.228   1.559 -0.7437 -0.5614 -0.1111
 2627TIP3   OH229371   1.020   6.025  11.356 -0.6292  0.2097 -0.0632
 2627TIP3    H129372   1.054   5.991  11.439 -0.3675  0.7520  0.0636
 2627TIP3    H229373   0.959   6.094  11.382  0.4086  1.2646 -0.3169
 2628TIP3   OH229374   4.755   1.097  15.530 -0.0536  0.5262 -0.0438
 2628TIP3    H129375   4.773   1.096  15.624  0.2143 -1.3290 -0.0712
 2628TIP3    H229376   4.840   1.082  15.489 -0.4311 -0.6473 -0.4683
 2629TIP3   OH229377   3.444   4.957  14.125  0.8227 -0.1328  0.2362
 2629TIP3    H129378   3.435   5.049  14.101  1.5256 -0.1887 -0.2644
 2629TIP3    H229379   3.422   4.954  14.218 -0.1042  0.3873  0.0443
 2630TIP3   OH229380   4.863   2.742   2.170  0.2116  0.4859 -0.9289
 2630TIP3    H129381   4.946   2.748   2.122  0.1840  0.5220 -0.9725
 2630TIP3    H229382   4.803   2.799   2.122  0.2860  0.8108 -0.6357
 2631TIP3   OH229383   1.276   1.848  12.494 -0.2453  0.1055 -0.4865
 2631TIP3    H129384   1.366   1.874  12.474 -0.3126  0.5275 -0.2561
 2631TIP3    H229385   1.251   1.790  12.422 -0.7579  2.2321 -2.1328
 2632TIP3   OH229386   1.335   3.106  10.768 -0.5034 -0.2666 -0.0666
 2632TIP3    H129387   1.417   3.115  10.719  0.1254 -0.9422  0.8224
 2632TIP3    H229388   1.285   3.040  10.720  0.0313 -0.7879  0.0736
 2633TIP3   OH229389   3.525   4.978   4.106  0.1662 -0.4358 -0.4365
 2633TIP3    H129390   3.443   4.944   4.069  1.3745 -0.2143 -3.6402
 2633TIP3    H229391   3.501   5.061   4.145 -1.0897 -0.0167 -1.9721
 2634TIP3   OH229392   5.448   0.282  15.390  0.4310  0.1679 -0.2670
 2634TIP3    H129393   5.427   0.371  15.364  0.3916  0.1347 -0.3509
 2634TIP3    H229394   5.536   0.267  15.356  1.6834  1.1771  2.2595
 2635TIP3   OH229395   1.004   1.313   3.946  0.2427  0.2592  0.3301
 2635TIP3    H129396   1.063   1.281   4.015  3.0018 -1.2943 -2.4673
 2635TIP3    H229397   1.038   1.400   3.924 -1.6195  1.4466  1.8544
 2636TIP3   OH229398   1.337   5.977   0.767 -0.3097 -0.0112  0.5622
 2636TIP3    H129399   1.268   5.969   0.832  0.1927 -0.6056  1.0338
 2636TIP3    H229400   1.400   5.908   0.789  1.7916  2.1344  1.8138
 2637TIP3   OH229401   6.616   2.351  15.641 -0.5355 -0.0499  0.2046
 2637TIP3    H129402   6.567   2.433  15.648 -1.9336 -0.6866 -1.4952
 2637TIP3    H229403   6.567   2.289  15.694 -2.1531 -0.8940 -2.1365
 2638TIP3   OH229404   2.712   1.116   2.688 -0.1028  0.2303 -0.1065
 2638TIP3    H129405   2.747   1.036   2.648 -0.6708 -2.2770  3.8355
 2638TIP3    H229406   2.789   1.166   2.714  0.3496 -0.5786  0.1422
 2639TIP3   OH229407   0.473   6.474   0.790 -0.5078  0.1790  0.0035
 2639TIP3    H129408   0.424   6.435   0.718 -2.4437  1.1356  0.7240
 2639TIP3    H229409   0.437   6.432   0.869 -0.5822  1.3099  0.5870
 2640TIP3   OH229410   2.093   0.660   4.305  0.3761 -0.0119  0.1217
 2640TIP3    H129411   2.117   0.727   4.241  1.8329 -1.0992 -0.5236
 2640TIP3    H229412   2.001   0.679   4.325  0.0995  0.8580 -1.6936
 2641TIP3   OH229413   2.386   6.591  15.539  0.1542  0.0326  0.0417
 2641TIP3    H129414   2.437   6.567  15.617  0.4524 -0.4623 -0.2945
 2641TIP3    H229415   2.295   6.582  15.566  0.2582 -0.4873  0.2334
 2642TIP3   OH229416   4.610   6.610   0.451 -0.3101  0.1231  0.2153
 2642TIP3    H129417   4.549   6.618   0.377  0.3258 -0.3566 -0.3704
 2642TIP3    H229418   4.695   6.595   0.410  0.0316 -0.2493  1.0511
 2643TIP3   OH229419   1.092   0.378  11.650  0.3388 -0.5117 -0.2539
 2643TIP3    H129420   1.024   0.446  11.646 -0.2578 -1.1409 -1.1028
 2643TIP3    H229421   1.141   0.398  11.730  0.0155  0.7661 -0.3523
 2644TIP3   OH229422   0.175   1.326  11.029  1.1365  0.1211  0.2843
 2644TIP3    H129423   0.129   1.318  10.945  0.6128  1.3984  0.4319
 2644TIP3    H229424   0.222   1.409  11.022  3.7552 -1.2715  0.0006
 2645TIP3   OH229425   4.293   0.027  14.649 -0.4502 -0.6804  0.4682
 2645TIP3    H129426   4.258  -0.025  14.577  0.5143  0.7712 -1.1463
 2645TIP3    H229427   4.367  -0.023  14.682  0.5329 -0.3456 -1.1276
 2646TIP3   OH229428   3.768   1.485   2.935  0.3861 -0.0278  0.2391
 2646TIP3    H129429   3.791   1.427   2.863 -0.5468  0.1476 -0.2274
 2646TIP3    H229430   3.689   1.446   2.973  0.3387  0.3770  0.5681
 2647TIP3   OH229431   0.100   2.990  15.292 -0.1961  0.1790 -0.4201
 2647TIP3    H129432   0.037   2.967  15.360  0.8901 -3.0413 -0.3209
 2647TIP3    H229433   0.056   2.968  15.210 -0.1638  0.5112 -0.5271
 2648TIP3   OH229434   0.709   2.191  12.970  0.5061  0.6156  0.1568
 2648TIP3    H129435   0.749   2.217  13.053  2.5531  1.0733 -0.8968
 2648TIP3    H229436   0.711   2.096  12.971 -1.0568  0.5652  1.3181
 2649TIP3   OH229437   3.087   3.936  13.788 -0.3493  0.4701 -0.0578
 2649TIP3    H129438   3.129   4.013  13.749  0.4071  0.6214  0.9983
 2649TIP3    H229439   3.134   3.923  13.871 -0.3327 -1.2351 -0.2909
 2650TIP3   OH229440   6.107   4.640  12.979 -0.2547 -0.1486  0.3846
 2650TIP3    H129441   6.044   4.620  13.047 -0.4612 -0.3942  0.1244
 2650TIP3    H229442   6.055   4.651  12.900  0.0327 -0.5132  0.1347
 2651TIP3   OH229443   0.706   0.348   0.340  0.2312 -0.2497 -0.1657
 2651TIP3    H129444   0.773   0.366   0.274 -0.2521 -0.3991 -0.7054
 2651TIP3    H229445   0.705   0.426   0.396  0.1347  0.1966 -0.7793
 2652TIP3   OH229446   4.952   2.080   1.090  0.6093  0.3019 -0.4196
 2652TIP3    H129447   5.045   2.062   1.104  0.0939 -1.5269  1.1500
 2652TIP3    H229448   4.928   2.137   1.163  0.0357 -1.1793  0.6011
 2653TIP3   OH229449   4.459   5.386  12.821  0.2881 -0.7837 -0.3045
 2653TIP3    H129450   4.416   5.346  12.745  0.9006 -0.5202 -0.8041
 2653TIP3    H229451   4.414   5.470  12.833 -2.0374 -2.1828  1.6891
 2654TIP3   OH229452   0.667   4.994   3.895  0.5578  0.2286  0.1278
 2654TIP3    H129453   0.688   5.082   3.863  0.6526 -0.1815 -0.9921
 2654TIP3    H229454   0.587   5.006   3.947 -0.9036  0.6349 -2.0661
 2655TIP3   OH229455   1.252   4.156   0.038 -0.3845  0.0222  0.0452
 2655TIP3    H129456   1.253   4.094   0.110  0.0076  0.1340  0.1356
 2655TIP3    H229457   1.288   4.236   0.075 -0.5255  0.1895 -0.1771
 2656TIP3   OH229458   4.380   2.160   4.553 -0.3281  0.4651  0.2984
 2656TIP3    H129459   4.405   2.071   4.577  2.9576  0.9598 -0.7390
 2656TIP3    H229460   4.381   2.209   4.635 -2.4431 -0.4286  0.9170
 2657TIP3   OH229461   6.104   3.166   0.939  0.6292 -0.2995 -0.2051
 2657TIP3    H129462   6.188   3.213   0.934 -0.1442  1.1036 -0.6546
 2657TIP3    H229463   6.104   3.108   0.863  0.5740  0.8121 -1.0794
 2658TIP3   OH229464   6.305   3.546   1.917  0.6487  0.2296 -0.0738
 2658TIP3    H129465   6.263   3.502   1.843  0.9959 -0.3341  0.0548
 2658TIP3    H229466   6.245   3.616   1.941 -1.1601 -1.6916  1.3123
 2659TIP3   OH229467   0.614   0.625   0.763  0.4201  0.4101 -0.1180
 2659TIP3    H129468   0.548   0.694   0.765  1.6814  1.6822 -0.3784
 2659TIP3    H229469   0.575   0.553   0.812 -1.1495  1.1140 -0.2795
 2660TIP3   OH229470   4.711   0.688   1.232 -0.3871  0.2172 -0.2520
 2660TIP3    H129471   4.798   0.687   1.271 -0.3552 -1.9537 -0.2914
 2660TIP3    H229472   4.726   0.701   1.139 -0.2592  1.6938 -0.0603
 2661TIP3   OH229473   1.708   2.915  16.356 -0.1583 -0.1562 -0.6163
 2661TIP3    H129474   1.661   2.960  16.426 -1.6480 -1.2992 -0.8366
 2661TIP3    H229475   1.785   2.970  16.339 -0.4807  0.8386  0.9750
 2662TIP3   OH229476   4.923   4.522  15.645 -0.0654 -0.3516  0.0621
 2662TIP3    H129477   4.898   4.430  15.649  1.6510 -0.8339  0.5145
 2662TIP3    H229478   4.967   4.532  15.561 -0.4243  0.1227 -0.0773
 2663TIP3   OH229479   3.204   4.576   3.039  0.0621  0.0594  0.5604
 2663TIP3    H129480   3.115   4.555   3.010  0.2679 -0.0276 -0.0151
 2663TIP3    H229481   3.243   4.491   3.057 -0.4410  0.1492  2.2777
 2664TIP3   OH229482   6.337   0.458  14.668  0.1513 -0.2193  0.3504
 2664TIP3    H129483   6.278   0.533  14.661  0.7621  0.1928 -0.4523
 2664TIP3    H229484   6.413   0.482  14.615  0.2339 -1.5162 -0.1470
 2665TIP3   OH229485   6.148   6.180   0.285 -0.0857  0.6643  0.0781
 2665TIP3    H129486   6.119   6.143   0.368  2.1485 -0.5847  0.3949
 2665TIP3    H229487   6.234   6.217   0.305  0.2107  0.9058 -1.5348
 2666TIP3   OH229488   5.155   4.152   5.075  0.1888 -0.0108  0.0160
 2666TIP3    H129489   5.084   4.185   5.020  0.5222 -0.5383 -0.7464
 2666TIP3    H229490   5.113   4.125   5.156 -0.4154  0.1006 -0.2564
 2667TIP3   OH229491   2.552   5.164   2.510  0.3390 -0.4176 -0.0452
 2667TIP3    H129492   2.482   5.203   2.563  1.6251  0.5461  1.0199
 2667TIP3    H229493   2.547   5.209   2.426 -0.5651 -0.6505 -0.1207
 2668TIP3   OH229494   6.205   4.025   5.571  0.5985  0.0627 -0.2850
 2668TIP3    H129495   6.225   4.028   5.478  0.2054 -0.0821 -0.3762
 2668TIP3    H229496   6.225   4.113   5.603  1.8295 -0.2062 -0.2715
 2669TIP3   OH229497   5.568   6.600   2.810 -0.4552  0.6924 -0.4009
 2669TIP3    H129498   5.478   6.611   2.840 -0.4699  2.5752 -0.9981
 2669TIP3    H229499   5.604   6.530   2.865 -1.5835  1.5210  1.4553
 2670TIP3   OH229500   3.065   2.275   6.578  0.2103  0.0329  0.4087
 2670TIP3    H129501   3.073   2.369   6.594 -0.6582 -0.1465  2.0669
 2670TIP3    H229502   3.118   2.260   6.499  0.5003  1.8679  0.2087
 2671TIP3   OH229503   2.828   5.408  13.498  0.4780  0.4480  0.1097
 2671TIP3    H129504   2.844   5.340  13.433 -0.3948  1.1611 -0.8948
 2671TIP3    H229505   2.769   5.470  13.454  0.3283  1.2566  1.3842
 2672TIP3   OH229506   3.796   3.308  14.037  0.4372 -0.3043  0.3165
 2672TIP3    H129507   3.871   3.312  14.096  1.7073 -0.4672 -1.2189
 2672TIP3    H229508   3.830   3.266  13.958 -1.3060 -0.4639 -0.3962
 2673TIP3   OH229509   2.860   4.470  16.954 -0.7789  0.0980  0.3562
 2673TIP3    H129510   2.942   4.442  16.912 -1.6825 -1.6963 -0.3069
 2673TIP3    H229511   2.875   4.456  17.047 -0.1626  0.2579  0.2903
 2674TIP3   OH229512   5.872   2.249   2.846  0.4332 -0.0135  0.5060
 2674TIP3    H129513   5.883   2.336   2.808  0.2080 -0.2130 -0.0239
 2674TIP3    H229514   5.910   2.189   2.782  0.3769 -0.3283  0.7613
 2675TIP3   OH229515   1.104   5.637  13.189  0.3573 -0.0595  0.4155
 2675TIP3    H129516   1.074   5.728  13.195 -0.1972 -0.2611  0.7071
 2675TIP3    H229517   1.024   5.585  13.187  0.4841 -0.3955 -3.2952
 2676TIP3   OH229518   1.679   2.509  13.516 -0.3514 -0.6624  0.0541
 2676TIP3    H129519   1.736   2.560  13.458 -3.0700  1.9291 -0.5688
 2676TIP3    H229520   1.726   2.504  13.599  1.9008 -1.0097 -1.1690
 2677TIP3   OH229521   5.831   3.647  11.260 -0.9142 -0.0062  0.2936
 2677TIP3    H129522   5.788   3.657  11.175  1.5882 -0.6028 -1.1490
 2677TIP3    H229523   5.878   3.564  11.253  2.0836  1.5073  0.8943
 2678TIP3   OH229524   6.027   2.913   1.618 -0.3217 -0.3239 -0.1237
 2678TIP3    H129525   5.974   2.843   1.579  0.2325 -0.1563 -1.2108
 2678TIP3    H229526   6.094   2.866   1.668 -1.0984 -0.5406  0.7372
 2679TIP3   OH229527   2.068   3.539   0.413  0.0731 -0.2783 -0.4813
 2679TIP3    H129528   2.091   3.493   0.494 -0.0983 -3.1363 -1.9395
 2679TIP3    H229529   2.078   3.632   0.435 -0.6708 -0.8824  2.9944
 2680TIP3   OH229530   1.436   5.088   3.827  0.3160 -0.1687 -0.1338
 2680TIP3    H129531   1.474   5.106   3.741  0.2147  0.6076 -0.0268
 2680TIP3    H229532   1.342   5.096   3.815  0.1097 -2.6103 -0.5120
 2681TIP3   OH229533   4.951   1.045   1.474  0.2771  0.2834  0.0846
 2681TIP3    H129534   4.860   1.014   1.473 -0.8844  3.3298  0.1335
 2681TIP3    H229535   4.979   1.034   1.565  0.4038 -1.6888 -0.1542
 2682TIP3   OH229536   3.185   3.895   2.303  0.3609  0.4398  0.1425
 2682TIP3    H129537   3.276   3.914   2.282  0.7767 -0.8713  0.6752
 2682TIP3    H229538   3.183   3.801   2.319 -0.9716  0.5513  0.7592
 2683TIP3   OH229539   5.164   3.759   2.697 -0.3921  0.5795  0.7063
 2683TIP3    H129540   5.072   3.767   2.720 -0.7656  0.5877 -0.7275
 2683TIP3    H229541   5.165   3.710   2.615  0.7774  1.8017 -0.0668
 2684TIP3   OH229542   1.286   2.990   1.690  0.0101  0.2814 -0.1062
 2684TIP3    H129543   1.224   3.052   1.651  0.3909 -0.0610 -1.3112
 2684TIP3    H229544   1.338   3.043   1.750 -2.1979  0.3461  1.8828
 2685TIP3   OH229545   1.364   1.636   2.437 -0.3754  0.3932 -0.3809
 2685TIP3    H129546   1.368   1.624   2.342  0.9870  0.0558 -0.2930
 2685TIP3    H229547   1.352   1.547   2.471  0.8281  0.3063 -0.1642
 2686TIP3   OH229548   5.629   3.453  16.210  0.5995  0.0256  0.2647
 2686TIP3    H129549   5.590   3.490  16.131 -0.6118  0.1106  0.8915
 2686TIP3    H229550   5.667   3.370  16.181  0.4567  0.2129 -0.4670
 2687TIP3   OH229551   2.042   3.689  10.710  0.3921  0.3863 -0.2893
 2687TIP3    H129552   1.953   3.670  10.680  0.0893 -0.4787  1.1066
 2687TIP3    H229553   2.098   3.635  10.654 -0.1137 -0.6433  0.1860
 2688TIP3   OH229554   3.895   5.532   5.332  0.0625 -0.1420  0.1879
 2688TIP3    H129555   3.827   5.598   5.346  1.1828  0.9840  0.4733
 2688TIP3    H229556   3.976   5.582   5.325  1.0003 -1.5300  0.7610
 2689TIP3   OH229557   0.331   4.703   0.918 -0.3233 -0.5498 -0.5688
 2689TIP3    H129558   0.365   4.791   0.931  1.5718 -0.9229 -2.3707
 2689TIP3    H229559   0.264   4.692   0.986  1.5336  1.1393  1.7116
 2690TIP3   OH229560   2.325   1.757   0.865  0.1446  0.2081 -0.6826
 2690TIP3    H129561   2.374   1.746   0.946  2.3393 -0.1395 -1.9707
 2690TIP3    H229562   2.240   1.716   0.882  0.8811 -0.6618  1.1364
 2691TIP3   OH229563   3.096   1.599  14.535 -0.3734 -0.6994 -0.2780
 2691TIP3    H129564   3.148   1.671  14.501 -1.0696  0.8220  1.6697
 2691TIP3    H229565   3.076   1.545  14.459  3.3223 -0.9569 -1.2703
 2692TIP3   OH229566   3.607   1.717  11.417  0.4030 -0.3202  0.1612
 2692TIP3    H129567   3.572   1.633  11.446 -0.8839 -0.5414 -1.8918
 2692TIP3    H229568   3.550   1.744  11.346  2.5743  0.8645 -1.2380
 2693TIP3   OH229569   2.987   4.537   5.934  0.5837 -0.2423  0.0309
 2693TIP3    H129570   2.939   4.513   6.014 -0.9394  0.6489 -0.5729
 2693TIP3    H229571   3.051   4.601   5.963  0.7815 -0.7343  0.7078
 2694TIP3   OH229572   2.129   0.333  11.131  0.5423 -0.3826  0.5976
 2694TIP3    H129573   2.187   0.389  11.183 -3.3356  1.3384  3.5631
 2694TIP3    H229574   2.091   0.392  11.066  1.1711 -1.2195 -0.5658
 2695TIP3   OH229575   4.446   0.817  16.771  0.5831  0.2014 -0.4087
 2695TIP3    H129576   4.374   0.760  16.798  0.2589  0.7786 -0.0309
 2695TIP3    H229577   4.520   0.758  16.758 -0.2854 -0.5829 -2.0929
 2696TIP3   OH229578   1.973   3.501   1.395  0.0335 -0.3493 -0.4014
 2696TIP3    H129579   1.885   3.522   1.364  0.3826 -0.3142 -1.4001
 2696TIP3    H229580   1.967   3.508   1.490 -0.7420  0.8776 -0.5133
 2697TIP3   OH229581   0.282   4.289   3.753  0.0975  0.1906  0.1298
 2697TIP3    H129582   0.360   4.329   3.714 -1.2656 -0.0824 -3.2098
 2697TIP3    H229583   0.291   4.196   3.734 -1.0003  0.1598 -0.2784
 2698TIP3   OH229584   6.249   5.159   4.857 -0.3567 -0.0787 -0.1794
 2698TIP3    H129585   6.279   5.069   4.868  0.6805  0.1833 -0.7114
 2698TIP3    H229586   6.235   5.192   4.946  0.1154 -0.4828  0.0453
 2699TIP3   OH229587   6.697   2.503   4.041  0.3551  0.3156 -0.3920
 2699TIP3    H129588   6.702   2.452   4.121  0.6303  1.1802  0.1615
 2699TIP3    H229589   6.604   2.503   4.018  0.1226  0.8994  0.4981
 2700TIP3   OH229590   2.604   1.847   3.468 -0.5788  0.1234 -0.2881
 2700TIP3    H129591   2.597   1.931   3.424 -2.7499 -1.0562 -2.4195
 2700TIP3    H229592   2.563   1.860   3.553 -1.0476  1.1722 -0.6608
 2701TIP3   OH229593   5.841   4.573  14.735 -0.4121 -0.4699 -0.1255
 2701TIP3    H129594   5.921   4.624  14.723  0.3015 -0.9323  2.2159
 2701TIP3    H229595   5.782   4.606  14.668  0.7500  1.9428 -0.0655
 2702TIP3   OH229596   3.669   6.774   0.969 -0.3240 -0.5614 -0.1479
 2702TIP3    H129597   3.595   6.751   0.913 -1.4138 -0.1032  1.0482
 2702TIP3    H229598   3.721   6.835   0.917 -1.1027 -0.4427 -0.7985
 2703TIP3   OH229599   5.909   0.864  13.172  0.4341 -0.1607 -0.5816
 2703TIP3    H129600   5.983   0.851  13.232  0.5100  0.8279 -0.4303
 2703TIP3    H229601   5.876   0.776  13.154  1.8996 -0.6581 -0.9828
 2704TIP3   OH229602   6.453   6.376   2.028 -0.1223 -0.1178  0.3622
 2704TIP3    H129603   6.525   6.372   1.966  1.2363 -0.6604  1.9027
 2704TIP3    H229604   6.465   6.459   2.074 -0.9760  0.1695  0.0901
 2705TIP3   OH229605   0.721   4.954   5.990  0.3106  0.4774 -0.3919
 2705TIP3    H129606   0.636   4.985   5.959 -0.0297 -0.0712 -0.0143
 2705TIP3    H229607   0.778   5.031   5.983 -0.0887  0.7130 -1.1137
 2706TIP3   OH229608   2.780   3.306  14.463  0.6798  0.5397  0.2809
 2706TIP3    H129609   2.857   3.270  14.420  0.5016  0.2806  0.1774
 2706TIP3    H229610   2.733   3.230  14.498  0.1857  0.6447 -0.1385
 2707TIP3   OH229611   4.306   1.805   1.664  0.0787  0.0597 -0.0952
 2707TIP3    H129612   4.349   1.727   1.697 -0.3885 -0.4630 -0.7122
 2707TIP3    H229613   4.288   1.857   1.743  1.7615  0.2810  0.1852
 2708TIP3   OH229614   1.563   1.721   2.605 -0.2539  0.0604  0.6364
 2708TIP3    H129615   1.485   1.701   2.553 -0.3721  0.3763  0.6901
 2708TIP3    H229616   1.538   1.799   2.655 -0.2784 -0.4668  1.4514
 2709TIP3   OH229617   2.245   2.630   4.028 -0.0450  0.1219 -0.0833
 2709TIP3    H129618   2.207   2.559   3.976 -2.0747 -0.0345  1.4835
 2709TIP3    H229619   2.252   2.594   4.116  1.4565  1.0151  0.1888
 2710TIP3   OH229620   1.582   0.926   1.739  0.7613 -0.2486 -0.2640
 2710TIP3    H129621   1.589   1.008   1.690  1.1400 -0.7773 -1.1151
 2710TIP3    H229622   1.577   0.953   1.831 -0.4005  0.7812 -0.6116
 2711TIP3   OH229623   6.608   1.235   2.664  0.1162 -0.1144 -0.7566
 2711TIP3    H129624   6.627   1.297   2.734 -1.4330 -0.3646 -0.0718
 2711TIP3    H229625   6.572   1.289   2.593  0.8358  0.0287 -1.0164
 2712TIP3   OH229626   2.325   1.214  12.705  0.5319 -0.3641  0.0819
 2712TIP3    H129627   2.317   1.161  12.625  1.4984  0.9211 -0.9042
 2712TIP3    H229628   2.342   1.150  12.774 -1.9984 -1.6673 -0.3982
 2713TIP3   OH229629   4.704   5.699  11.146 -0.9608  0.4246  0.2811
 2713TIP3    H129630   4.776   5.717  11.086 -0.5818 -0.6273  0.4082
 2713TIP3    H229631   4.644   5.645  11.095 -1.8223  1.5321  0.0803
 2714TIP3   OH229632   6.430   0.347  15.764  0.2603 -0.5066  0.2331
 2714TIP3    H129633   6.368   0.379  15.698 -2.0143  0.8049  2.7782
 2714TIP3    H229634   6.479   0.278  15.720 -3.5215 -2.1799 -1.8199
 2715TIP3   OH229635   4.191   0.924   4.949  0.4815  0.1725  1.0965
 2715TIP3    H129636   4.185   0.880   4.864 -0.7707  0.2921  1.1056
 2715TIP3    H229637   4.112   0.897   4.996  1.5359 -0.5390  2.5526
 2716TIP3   OH229638   3.698   4.770   2.968  0.3701 -0.4450 -0.0779
 2716TIP3    H129639   3.658   4.772   2.882  0.2780 -0.1634 -0.0286
 2716TIP3    H229640   3.627   4.747   3.028  0.1478  0.6120  0.0814
 2717TIP3   OH229641   0.121   3.296   3.318  0.6243  0.5178  0.0195
 2717TIP3    H129642   0.183   3.228   3.345 -1.2101 -0.5789  1.8177
 2717TIP3    H229643   0.074   3.258   3.244  0.3975  0.2777  0.2821
 2718TIP3   OH229644   4.646   6.333  13.957 -0.4968 -0.4460 -0.3759
 2718TIP3    H129645   4.705   6.401  13.923 -1.2511 -0.5041 -1.9006
 2718TIP3    H229646   4.676   6.317  14.047 -0.0888  1.6627 -0.0849
 2719TIP3   OH229647   6.089   6.257   0.929 -0.1119 -0.2255  0.3035
 2719TIP3    H129648   6.040   6.322   0.978 -0.6264  0.2789 -0.8416
 2719TIP3    H229649   6.154   6.307   0.880  1.1154 -0.8172  1.2608
 2720TIP3   OH229650   6.235   5.727   4.215  0.3024 -0.4355 -0.4608
 2720TIP3    H129651   6.267   5.637   4.221 -1.9587 -1.3237 -0.6573
 2720TIP3    H229652   6.227   5.756   4.306 -2.6055 -1.9106 -0.1243
 2721TIP3   OH229653   1.296   2.835   3.199 -0.2611  0.3574 -0.0570
 2721TIP3    H129654   1.386   2.866   3.193 -0.3677  0.7780  0.4263
 2721TIP3    H229655   1.256   2.890   3.267 -0.5743 -0.5511  0.5250
 2722TIP3   OH229656   3.290   0.716   4.577  0.2957 -0.4347 -0.1659
 2722TIP3    H129657   3.224   0.755   4.635 -0.0222 -0.0217 -0.7941
 2722TIP3    H229658   3.338   0.791   4.542 -1.1061 -0.4766 -2.3425
 2723TIP3   OH229659   6.483   5.925   6.667  0.4092  1.0803 -0.2339
 2723TIP3    H129660   6.571   5.919   6.704  1.0930  0.6164 -1.8206
 2723TIP3    H229661   6.426   5.943   6.741  1.3118 -2.3972  1.5318
 2724TIP3   OH229662   6.810   4.904   3.199 -0.0884 -0.0333 -0.1935
 2724TIP3    H129663   6.862   4.831   3.233  0.2960  0.7950  1.0646
 2724TIP3    H229664   6.807   4.889   3.105  2.6804  0.0099 -0.3779
 2725TIP3   OH229665   1.320   3.355   0.756  0.1993  0.2838  0.4294
 2725TIP3    H129666   1.250   3.413   0.785  0.8089  1.5258 -0.5294
 2725TIP3    H229667   1.381   3.411   0.710  0.6490 -1.1679 -0.8315
 2726TIP3   OH229668   3.048   5.889  10.787  0.1710 -0.1450  0.2653
 2726TIP3    H129669   3.097   5.966  10.814  0.0187 -0.4201  1.3689
 2726TIP3    H229670   3.090   5.816  10.832 -0.3472 -0.5675  0.0798
 2727TIP3   OH229671   4.582   2.273   2.811  0.6399 -0.1439 -0.0843
 2727TIP3    H129672   4.563   2.181   2.829  3.3353 -0.7498  0.1468
 2727TIP3    H229673   4.536   2.293   2.729  1.1649 -2.1316 -0.9030
 2728TIP3   OH229674   5.732   2.831   5.823  0.2218 -0.2838 -0.1810
 2728TIP3    H129675   5.682   2.895   5.873 -0.9810 -1.4489  0.1717
 2728TIP3    H229676   5.821   2.837   5.857 -0.0207  0.7093  0.3056
 2729TIP3   OH229677   5.415   1.724   2.830 -0.0902  0.2046 -0.0651
 2729TIP3    H129678   5.398   1.742   2.738  0.4866 -0.0924 -0.2382
 2729TIP3    H229679   5.505   1.755   2.843 -0.1153  0.0978  0.3566
 2730TIP3   OH229680   5.144   4.599   5.162 -0.0471 -0.6277  0.0549
 2730TIP3    H129681   5.080   4.626   5.227  0.1827 -1.3515  0.5920
 2730TIP3    H229682   5.188   4.523   5.200  0.1313 -1.0354 -0.9174
 2731TIP3   OH229683   3.227   3.447  11.417 -0.2545  0.1035 -0.1943
 2731TIP3    H129684   3.295   3.381  11.405  0.8699  1.3802 -1.0992
 2731TIP3    H229685   3.211   3.482  11.329  0.9546  2.7106  0.5346
 2732TIP3   OH229686   4.853   3.061   4.737  0.3148  0.0679 -1.0154
 2732TIP3    H129687   4.913   3.060   4.662 -1.6266 -0.5719 -2.6555
 2732TIP3    H229688   4.902   3.104   4.806  2.3637  0.3060 -2.5111
 2733TIP3   OH229689   6.011   4.427  12.336  0.1709 -0.2046  0.2592
 2733TIP3    H129690   5.918   4.405  12.330  0.1732 -0.3257  0.6884
 2733TIP3    H229691   6.037   4.401  12.424  0.8236 -0.9773 -0.1424
 2734TIP3   OH229692   3.684   1.588   3.206  0.4583  0.4483 -0.1370
 2734TIP3    H129693   3.721   1.502   3.225  0.6194  0.6154  0.3161
 2734TIP3    H229694   3.589   1.576   3.214  0.4105  0.0514 -1.1688
 2735TIP3   OH229695   2.501   5.296  14.262 -0.1388  0.3148 -0.2266
 2735TIP3    H129696   2.419   5.343  14.249 -0.2374  0.8564  1.9751
 2735TIP3    H229697   2.563   5.338  14.203 -1.1276  0.7384 -0.9884
 2736TIP3   OH229698   4.647   5.120  12.820  0.6721 -0.3061  0.9062
 2736TIP3    H129699   4.584   5.124  12.747 -2.3223 -0.6516  3.2502
 2736TIP3    H229700   4.691   5.205  12.817  0.3145 -0.1252 -1.0001
 2737TIP3   OH229701   1.221   3.577   6.694 -0.0516 -0.9288 -1.0570
 2737TIP3    H129702   1.293   3.636   6.715 -1.3310  0.0706  0.7931
 2737TIP3    H229703   1.214   3.518   6.769 -1.0571 -1.0882 -1.2558
 2738TIP3   OH229704   5.544   4.796   4.994  0.6279  0.6591  0.1003
 2738TIP3    H129705   5.452   4.778   4.974  0.8107 -0.2889  0.0866
 2738TIP3    H229706   5.581   4.828   4.911  0.5905 -0.0845 -0.2034
 2739TIP3   OH229707   2.900   5.809   4.281 -0.2214  0.0279  0.2112
 2739TIP3    H129708   2.933   5.826   4.192 -2.2196  0.8364 -0.4242
 2739TIP3    H229709   2.850   5.728   4.272  0.2219 -0.3140  0.7943
 2740TIP3   OH229710   4.957   3.339  12.450 -0.3710 -0.4688  0.6966
 2740TIP3    H129711   4.936   3.322  12.359 -2.2790 -2.7441  1.4590
 2740TIP3    H229712   5.040   3.387  12.447 -1.1735  0.9838 -2.2279
 2741TIP3   OH229713   4.619   3.202   1.676 -0.3971  0.0170  0.0241
 2741TIP3    H129714   4.636   3.119   1.630 -0.9591  0.1470 -0.4365
 2741TIP3    H229715   4.657   3.190   1.762 -0.5061 -0.7447 -0.0260
 2742TIP3   OH229716   6.353   5.860  11.664 -0.1937 -0.0256  0.2512
 2742TIP3    H129717   6.417   5.855  11.735 -1.0403  1.4962  1.1676
 2742TIP3    H229718   6.272   5.827  11.702 -0.7753  1.2480  0.1695
 2743TIP3   OH229719   2.822   4.703   4.328  0.4251 -0.3011 -0.0689
 2743TIP3    H129720   2.897   4.662   4.284 -0.5689 -2.0729 -0.2188
 2743TIP3    H229721   2.860   4.755   4.399  1.9981  1.7551 -2.2918
 2744TIP3   OH229722   0.608   4.680   1.944 -0.2523 -0.2658 -0.0912
 2744TIP3    H129723   0.694   4.716   1.922 -1.1145  1.3980 -0.9448
 2744TIP3    H229724   0.601   4.691   2.039  0.7701 -1.1424  0.1008
 2745TIP3   OH229725   3.317   2.018  11.926 -0.8035 -0.1647  0.6323
 2745TIP3    H129726   3.320   2.104  11.968  0.1796 -0.5425  1.3822
 2745TIP3    H229727   3.230   2.014  11.885 -0.4191  1.6412 -0.4545
 2746TIP3   OH229728   2.984   2.835  10.589  0.1489 -0.1620 -0.0380
 2746TIP3    H129729   2.943   2.753  10.618  1.4623 -1.2444 -1.1395
 2746TIP3    H229730   3.068   2.837  10.634 -0.5570  1.4945  1.3282
 2747TIP3   OH229731   0.411   4.140  14.737 -0.2705  0.5668  0.5197
 2747TIP3    H129732   0.379   4.231  14.738 -0.5866  0.4934 -0.7146
 2747TIP3    H229733   0.497   4.145  14.778  0.6211  1.8212 -1.3480
 2748TIP3   OH229734   3.202   2.283  17.084 -0.5070 -0.1496 -0.0280
 2748TIP3    H129735   3.120   2.333  17.088  0.3862  1.3206  0.7894
 2748TIP3    H229736   3.183   2.201  17.129 -0.6704  1.5265  3.2665
 2749TIP3   OH229737   3.088   6.100   3.460 -0.7179 -0.1739  0.1354
 2749TIP3    H129738   3.026   6.145   3.517 -0.8911 -0.6643  0.3422
 2749TIP3    H229739   3.174   6.132   3.488 -0.5913 -2.1051  2.2828
 2750TIP3   OH229740   5.971   5.700   1.013 -0.0286  1.2020 -0.1516
 2750TIP3    H129741   6.048   5.756   1.001 -0.2734  1.3559 -1.0802
 2750TIP3    H229742   5.990   5.622   0.961 -1.3391  2.0910 -2.0799
 2751TIP3   OH229743   6.132   0.892   1.912  0.2011 -0.7796  0.5094
 2751TIP3    H129744   6.214   0.913   1.957  0.5302 -2.6429  0.8513
 2751TIP3    H229745   6.138   0.799   1.894 -1.4241 -0.7388 -0.3726
 2752TIP3   OH229746   4.542   4.964   3.605 -0.0140  0.2241 -0.0065
 2752TIP3    H129747   4.541   4.931   3.515  0.1582  1.0938 -0.3341
 2752TIP3    H229748   4.581   5.051   3.598  0.0975  0.2543  0.9281
 2753TIP3   OH229749   3.785   0.843  16.847  0.3875 -0.8261 -0.2916
 2753TIP3    H129750   3.802   0.791  16.925 -1.0441  0.7459  1.1629
 2753TIP3    H229751   3.716   0.904  16.874  1.0468  0.9109 -2.2713
 2754TIP3   OH229752   3.814   4.150  15.881  0.1619  0.0460 -0.5947
 2754TIP3    H129753   3.834   4.071  15.831 -0.3958  0.2514 -1.1584
 2754TIP3    H229754   3.768   4.207  15.818  3.1296  2.0700 -1.1265
 2755TIP3   OH229755   5.412   1.489   1.818 -0.2990 -0.6701 -0.0772
 2755TIP3    H129756   5.470   1.501   1.893 -1.6403  0.3750  0.8239
 2755TIP3    H229757   5.367   1.407   1.835 -0.0618 -0.8144 -0.1316
 2756TIP3   OH229758   2.402   3.590   6.696 -0.1748  0.7753  0.0207
 2756TIP3    H129759   2.454   3.511   6.707 -0.4216  0.7021  0.7057
 2756TIP3    H229760   2.360   3.580   6.610 -2.1367 -0.9999  1.0984
 2757TIP3   OH229761   1.420   6.732   3.350 -0.4874  0.1799  0.5865
 2757TIP3    H129762   1.372   6.773   3.278 -0.2795  0.8847  0.8416
 2757TIP3    H229763   1.411   6.638   3.334 -2.4644  0.2724  0.9728
 2758TIP3   OH229764   5.265   5.926   3.410  0.3514 -0.0870  0.1252
 2758TIP3    H129765   5.296   5.862   3.474  0.6095  1.2108  1.3457
 2758TIP3    H229766   5.318   5.910   3.332  2.7186  0.6945  1.4693
 2759TIP3   OH229767   1.778   2.525   3.649 -0.4332 -0.2335  0.0845
 2759TIP3    H129768   1.762   2.541   3.742  0.8534  2.1934 -0.0449
 2759TIP3    H229769   1.695   2.547   3.606 -0.4714  0.4325  0.4904
 2760TIP3   OH229770   2.207   6.093  15.393 -0.6520 -0.1697 -0.4018
 2760TIP3    H129771   2.247   6.171  15.355 -0.1074 -0.8018 -1.1787
 2760TIP3    H229772   2.234   6.095  15.485 -0.1960  0.2820 -0.5377
 2761TIP3   OH229773   3.943   6.261  12.662  0.3061 -0.3918 -0.2636
 2761TIP3    H129774   3.947   6.345  12.709  0.2750 -1.3479  1.5139
 2761TIP3    H229775   3.855   6.260  12.624 -0.6807 -0.6752  1.8612
 2762TIP3   OH229776   4.274   4.104   5.455  0.1000  0.7150  0.5625
 2762TIP3    H129777   4.311   4.188   5.482  0.9826  1.6535 -2.9916
 2762TIP3    H229778   4.349   4.054   5.425 -0.3002 -1.8168  3.3463
 2763TIP3   OH229779   4.742   6.217   5.084  0.1345 -0.4590 -0.5664
 2763TIP3    H129780   4.710   6.287   5.140  0.2779 -0.6291 -0.2711
 2763TIP3    H229781   4.704   6.137   5.121 -0.9830 -0.4277 -1.5856
 2764TIP3   OH229782   4.992   3.737  12.509 -0.0349 -1.0520 -0.1072
 2764TIP3    H129783   5.064   3.777  12.558 -0.3357 -0.4088 -0.1849
 2764TIP3    H229784   5.020   3.646  12.496  0.1530 -1.1770  1.0450
 2765TIP3   OH229785   0.169   3.020  15.900 -0.4377 -0.1613 -0.6337
 2765TIP3    H129786   0.223   3.019  15.979 -0.4470 -1.1272 -0.6215
 2765TIP3    H229787   0.182   2.933  15.862 -0.4225  0.2969 -1.7034
 2766TIP3   OH229788   5.786   6.387   3.300 -0.6254  0.2867  0.0195
 2766TIP3    H129789   5.755   6.384   3.391 -2.2243  0.3737 -0.4949
 2766TIP3    H229790   5.802   6.296   3.277  2.0376  0.3779  1.0570
 2767TIP3   OH229791   3.803   6.148   0.195  0.6230  0.3869 -0.4846
 2767TIP3    H129792   3.752   6.173   0.272  0.3430 -0.6258 -0.3285
 2767TIP3    H229793   3.863   6.222   0.181 -0.9747  1.6818 -0.7780
 2768TIP3   OH229794   3.495   6.774   0.065  0.6574  0.1433  0.4863
 2768TIP3    H129795   3.447   6.692   0.050  0.0105  0.1233  2.4017
 2768TIP3    H229796   3.506   6.812  -0.022 -0.8182 -1.0058 -0.2386
 2769TIP3   OH229797   6.302   0.474   3.730 -0.3160 -0.0307  0.5150
 2769TIP3    H129798   6.265   0.523   3.804 -0.7377  0.7656 -0.2018
 2769TIP3    H229799   6.360   0.410   3.770 -1.2039 -0.1951  1.5841
 2770TIP3   OH229800   2.488   0.263   4.055 -0.0699  0.5185  0.1432
 2770TIP3    H129801   2.546   0.274   3.980  2.0246 -0.3512  1.5528
 2770TIP3    H229802   2.402   0.246   4.016  0.8384  0.6145 -2.0423
 2771TIP3   OH229803   2.967   6.014  11.106  0.7224  0.1103 -0.0643
 2771TIP3    H129804   2.955   6.102  11.071 -0.2888  0.4397  1.0592
 2771TIP3    H229805   2.974   5.958  11.028  0.7248  1.0969 -0.7825
 2772TIP3   OH229806   4.884   4.201  13.766  0.1122  0.0017  0.5077
 2772TIP3    H129807   4.849   4.233  13.683 -1.5753 -3.6518 -0.3528
 2772TIP3    H229808   4.969   4.164  13.743  0.5935  0.8275  0.8842
 2773TIP3   OH229809   2.844   2.166   5.678  0.0143 -0.0368  0.5831
 2773TIP3    H129810   2.758   2.198   5.652  0.0457 -0.9224 -0.7287
 2773TIP3    H229811   2.902   2.192   5.606  0.3476 -1.5756  0.2615
 2774TIP3   OH229812   6.061   6.445   5.698 -0.1588  0.9820 -0.1883
 2774TIP3    H129813   6.137   6.454   5.755  1.7796  1.9265 -2.7186
 2774TIP3    H229814   6.060   6.353   5.673  1.1059  1.2527 -1.3091
 2775TIP3   OH229815   4.600   3.082   4.676  0.3017 -0.3356 -0.6115
 2775TIP3    H129816   4.600   3.169   4.637  0.5080 -0.5825 -1.1664
 2775TIP3    H229817   4.686   3.074   4.717 -0.5895  0.6822  1.6483
 2776TIP3   OH229818   0.262   0.937   3.050 -0.0623 -0.0801 -0.6322
 2776TIP3    H129819   0.198   1.002   3.078 -2.8311 -1.1476 -3.8407
 2776TIP3    H229820   0.331   0.988   3.007 -0.6889  0.9113 -0.4953
 2777TIP3   OH229821   0.926   6.352  15.369  0.0084 -0.2494  1.2247
 2777TIP3    H129822   0.981   6.311  15.436 -0.9712 -2.6335  0.6664
 2777TIP3    H229823   0.851   6.293  15.360 -0.4706  0.6118 -1.1467
 2778TIP3   OH229824   5.446   4.670   1.138 -0.4029  0.5738 -0.1956
 2778TIP3    H129825   5.364   4.637   1.175 -1.7678  3.3088 -0.5926
 2778TIP3    H229826   5.457   4.757   1.175  0.1331  1.9492 -3.2793
 2779TIP3   OH229827   3.979   3.921   1.833  0.3848 -0.0463  0.1211
 2779TIP3    H129828   4.036   3.974   1.778  0.9818 -0.2151  0.5661
 2779TIP3    H229829   3.998   3.950   1.922  1.5246 -1.7470  0.4765
 2780TIP3   OH229830   2.576   3.083  15.266  0.6830 -0.0862 -0.3434
 2780TIP3    H129831   2.518   3.008  15.265  0.9032 -0.2609 -1.3511
 2780TIP3    H229832   2.520   3.157  15.289  0.7201 -0.7218  2.0475
 2781TIP3   OH229833   2.840   5.586  13.218  0.4401  0.5111 -0.0143
 2781TIP3    H129834   2.870   5.677  13.229  1.2375  0.4601 -1.4810
 2781TIP3    H229835   2.831   5.575  13.123 -0.7507 -0.6174  0.2019
 2782TIP3   OH229836   3.180   2.968   5.850  0.0312 -0.3715 -0.1266
 2782TIP3    H129837   3.224   2.884   5.860 -0.6038 -0.7408 -0.3344
 2782TIP3    H229838   3.249   3.034   5.861  0.5164 -0.9154  0.1242
 2783TIP3   OH229839   3.629   4.194  12.743 -0.8941 -0.8223 -0.7964
 2783TIP3    H129840   3.619   4.232  12.830  0.3156 -1.0136 -0.5521
 2783TIP3    H229841   3.654   4.267  12.687  0.8920 -1.0987 -0.4354
 2784TIP3   OH229842   0.862   1.014   1.639  0.2251 -0.3562 -0.2761
 2784TIP3    H129843   0.803   0.949   1.676  0.7318 -0.5718  0.1695
 2784TIP3    H229844   0.926   1.030   1.708  0.4270  0.2045 -0.5883
 2785TIP3   OH229845   2.816   2.623   1.734 -0.9203  0.1251  0.5952
 2785TIP3    H129846   2.743   2.679   1.707  0.2257  1.6545  0.5414
 2785TIP3    H229847   2.858   2.596   1.653  0.5184  1.9789  0.6620
 2786TIP3   OH229848   0.757   5.421  11.720  0.2262  0.0450  0.4962
 2786TIP3    H129849   0.848   5.451  11.728  0.4462 -0.9528  2.4614
 2786TIP3    H229850   0.709   5.475  11.784 -0.4634  0.1834 -0.1279
 2787TIP3   OH229851   6.807   5.521  11.898  0.0867  0.5902 -0.2117
 2787TIP3    H129852   6.835   5.469  11.973 -1.3704 -1.5518 -1.0676
 2787TIP3    H229853   6.735   5.471  11.859 -0.0326  2.2510 -2.3223
 2788TIP3   OH229854   3.788   2.018   1.675  0.3287 -0.1534  0.0622
 2788TIP3    H129855   3.834   1.940   1.705  0.6702 -0.4320 -1.1137
 2788TIP3    H229856   3.723   2.037   1.743 -0.0922 -1.7499  0.1263
 2789TIP3   OH229857   0.123   1.891   2.203 -0.1377 -0.0977 -0.1517
 2789TIP3    H129858   0.092   1.806   2.170  0.5118 -0.7938  0.9921
 2789TIP3    H229859   0.081   1.900   2.288 -0.8441  1.1271 -0.6130
 2790TIP3   OH229860   4.391   6.613  14.158  0.1155  0.9526  0.1810
 2790TIP3    H129861   4.482   6.634  14.180  0.1983 -0.7878  1.7728
 2790TIP3    H229862   4.347   6.698  14.157  1.6834  1.8037 -0.3168
 2791TIP3   OH229863   5.400   3.385   3.113 -0.1065  0.9561  0.5232
 2791TIP3    H129864   5.325   3.416   3.063 -0.0829 -0.2790 -0.3263
 2791TIP3    H229865   5.375   3.298   3.144  1.4359 -0.1316 -1.0109
 2792TIP3   OH229866   0.353   5.092   2.948 -0.2264  0.0532 -0.1471
 2792TIP3    H129867   0.314   5.048   2.873  1.0021 -1.0576 -0.1597
 2792TIP3    H229868   0.370   5.181   2.916 -0.1461 -0.2683 -1.0427
 2793TIP3   OH229869   2.005   0.465   5.552 -0.4976 -0.2323  0.5816
 2793TIP3    H129870   1.954   0.503   5.624  0.1073 -0.0895  0.9535
 2793TIP3    H229871   2.056   0.395   5.594 -2.6696 -2.4874 -0.3629
 2794TIP3   OH229872   2.958   2.339  16.957 -0.2317  0.6017  0.2802
 2794TIP3    H129873   2.900   2.415  16.959  0.3898  1.0884  0.2984
 2794TIP3    H229874   2.934   2.287  17.033  0.6764  1.8155  1.4434
 2795TIP3   OH229875   0.443   6.361  14.065 -0.4385 -0.3590 -0.1512
 2795TIP3    H129876   0.383   6.372  13.992  1.4870  0.2485 -1.7477
 2795TIP3    H229877   0.520   6.413  14.041  0.2006  0.0283  2.4207
 2796TIP3   OH229878   4.826   0.300  11.297 -0.5953  0.1828  0.0006
 2796TIP3    H129879   4.783   0.243  11.233  0.0773 -0.2526 -0.0755
 2796TIP3    H229880   4.904   0.333  11.252 -0.3357  0.2011  0.4497
 2797TIP3   OH229881   0.007   6.484   4.285  0.0125  0.4605 -0.2846
 2797TIP3    H129882   0.073   6.419   4.259  1.4107  1.1710  1.2765
 2797TIP3    H229883   0.052   6.568   4.280 -0.6007  0.9267  1.2756
 2798TIP3   OH229884   3.660   1.778   5.899 -0.2105  0.2671  0.1554
 2798TIP3    H129885   3.583   1.821   5.936 -1.0088  1.6948 -2.8046
 2798TIP3    H229886   3.734   1.815   5.947 -1.2360 -0.3057  2.3135
 2799TIP3   OH229887   0.825   2.326  16.383  0.4781  0.0150  0.1623
 2799TIP3    H129888   0.755   2.387  16.402  0.6933  1.1000 -2.1721
 2799TIP3    H229889   0.857   2.298  16.469 -1.4359  1.0416  1.2720
 2800TIP3   OH229890   3.123   5.644   3.435 -0.3987  0.0355 -0.0443
 2800TIP3    H129891   3.031   5.631   3.458 -0.5117 -1.0031 -0.9787
 2800TIP3    H229892   3.128   5.620   3.342  0.8225  0.0390  0.0027
 2801TIP3   OH229893   3.977   1.356   3.192  0.3126  0.5516  0.2145
 2801TIP3    H129894   3.958   1.263   3.180  0.7343  0.6207 -1.1779
 2801TIP3    H229895   3.902   1.390   3.241 -0.9208 -0.0744 -1.1698
 2802TIP3   OH229896   1.408   3.186   5.101 -0.4023 -0.0877 -0.0934
 2802TIP3    H129897   1.404   3.273   5.062  0.2476 -0.8664 -2.0192
 2802TIP3    H229898   1.502   3.169   5.111 -0.4101 -1.4109 -1.8386
 2803TIP3   OH229899   5.145   3.741  17.214 -0.0063  0.1218  0.0389
 2803TIP3    H129900   5.184   3.653  17.207  0.1757  0.1720  0.3904
 2803TIP3    H229901   5.085   3.746  17.140  0.6310  0.0268 -0.4971
 2804TIP3   OH229902   4.112   6.389   3.114 -0.4215  0.0931 -0.4374
 2804TIP3    H129903   4.026   6.349   3.113 -0.2769 -0.2368 -0.1359
 2804TIP3    H229904   4.139   6.393   3.023  0.5996 -2.7872 -0.3529
 2805TIP3   OH229905   6.451   2.160  16.605  0.5916 -0.3764  0.4871
 2805TIP3    H129906   6.526   2.214  16.627  0.6932 -0.4496  0.3252
 2805TIP3    H229907   6.489   2.077  16.577  0.5151  0.0751 -1.0073
 2806TIP3   OH229908   3.329   1.495  12.003 -0.3718 -0.3360  0.3148
 2806TIP3    H129909   3.323   1.585  11.972  0.2913  0.5514  2.5401
 2806TIP3    H229910   3.419   1.469  11.983 -1.1174 -1.2765 -2.1097
 2807TIP3   OH229911   0.569   0.008   4.336  0.0993  0.3213 -0.4744
 2807TIP3    H129912   0.503  -0.045   4.291  0.4751  1.1821 -2.1110
 2807TIP3    H229913   0.644  -0.051   4.346  0.3563  0.3737 -1.8827
 2808TIP3   OH229914   1.809   0.555  12.320  0.1639 -0.0743  0.0987
 2808TIP3    H129915   1.887   0.543  12.375  0.1125  0.5275  0.3086
 2808TIP3    H229916   1.821   0.642  12.280 -0.1552 -0.1942 -0.2643
 2809TIP3   OH229917   5.342   5.425   4.854  0.3671 -0.0263  0.2419
 2809TIP3    H129918   5.389   5.342   4.859 -0.8334 -0.7195  0.5094
 2809TIP3    H229919   5.410   5.490   4.838  1.1208 -1.3374 -2.7503
 2810TIP3   OH229920   6.295   4.919   3.878 -0.7514  0.0568 -0.4853
 2810TIP3    H129921   6.280   4.940   3.786 -3.9556  1.5512  0.2459
 2810TIP3    H229922   6.385   4.945   3.894 -1.1806  3.1663 -2.3722
 2811TIP3   OH229923   6.260   4.743  14.020 -0.1512 -0.3502 -0.4061
 2811TIP3    H129924   6.233   4.817  14.074 -0.2562 -1.7482  1.5514
 2811TIP3    H229925   6.208   4.752  13.940 -2.1969  0.2013  0.9108
 2812TIP3   OH229926   6.282   4.394   1.276 -0.1933  0.3399  0.3381
 2812TIP3    H129927   6.315   4.443   1.352  1.7905  1.5671 -1.2100
 2812TIP3    H229928   6.213   4.449   1.240 -1.4972 -0.4807  1.4491
 2813TIP3   OH229929   0.826   2.630   4.409  0.3359 -0.0133 -0.5199
 2813TIP3    H129930   0.793   2.654   4.323  1.0558  1.4911 -0.4108
 2813TIP3    H229931   0.762   2.667   4.470  1.4639  1.7677 -0.3476
 2814TIP3   OH229932   3.409   0.951  13.136 -0.6689  0.1242  0.3454
 2814TIP3    H129933   3.394   0.857  13.128 -1.4717  0.2526  0.2111
 2814TIP3    H229934   3.378   0.987  13.052  1.6669  0.2996 -0.5210
 2815TIP3   OH229935   6.598   5.161   1.252  0.6749 -0.2465  0.3588
 2815TIP3    H129936   6.538   5.087   1.263  0.7647 -0.3944 -0.1194
 2815TIP3    H229937   6.640   5.146   1.167 -1.0759  1.6305 -0.9240
 2816TIP3   OH229938   1.572   1.593   5.073 -0.2118  0.3892  0.1034
 2816TIP3    H129939   1.642   1.636   5.122  0.7552  1.2335 -1.9042
 2816TIP3    H229940   1.611   1.512   5.042  0.8378  1.9435 -3.0583
 2817TIP3   OH229941   6.111   6.597   4.658  1.0051  0.0166 -0.7212
 2817TIP3    H129942   6.066   6.603   4.742  2.2530  1.0012 -0.0806
 2817TIP3    H229943   6.191   6.549   4.677  2.2988  2.0077 -0.8398
 2818TIP3   OH229944   2.224   3.429   1.410 -0.4185 -0.0298  0.2069
 2818TIP3    H129945   2.264   3.490   1.346 -0.4826 -0.8369 -0.6243
 2818TIP3    H229946   2.131   3.450   1.408 -0.5842 -0.8004 -0.8208
 2819TIP3   OH229947   1.631   3.976  15.117  0.5199 -0.3268 -0.6574
 2819TIP3    H129948   1.658   4.066  15.130 -0.8537 -0.1610  1.5925
 2819TIP3    H229949   1.658   3.930  15.196 -2.0660 -0.9758 -0.0245
 2820TIP3   OH229950   2.463   4.422   1.771  0.7225 -0.1907  0.2210
 2820TIP3    H129951   2.507   4.341   1.743 -0.1025 -0.8807  0.8779
 2820TIP3    H229952   2.373   4.395   1.791  0.1358  1.0846 -0.5481
 2821TIP3   OH229953   5.978   3.367  13.032  0.0007 -0.9701 -1.1834
 2821TIP3    H129954   6.014   3.283  13.060 -0.0869 -1.0748 -1.3848
 2821TIP3    H229955   5.934   3.401  13.110  1.6558 -0.2198 -0.5250
 2822TIP3   OH229956   4.013   3.248  11.298 -0.5543  0.2101 -0.2350
 2822TIP3    H129957   4.072   3.185  11.339  0.4405  0.7069 -0.8476
 2822TIP3    H229958   4.047   3.257  11.209 -3.7118 -2.2328 -1.8635
 2823TIP3   OH229959   5.383   5.396   0.053 -0.0177 -0.4128 -0.7111
 2823TIP3    H129960   5.345   5.331   0.112 -0.8813  0.9916  0.3483
 2823TIP3    H229961   5.310   5.422  -0.004 -0.4703  1.5715  0.6727
 2824TIP3   OH229962   1.242   4.882   0.623  0.0941 -0.0838 -0.3777
 2824TIP3    H129963   1.282   4.801   0.655  2.4539  0.9616 -0.4015
 2824TIP3    H229964   1.193   4.916   0.697  1.3007 -0.2358  0.5210
 2825TIP3   OH229965   4.225   3.617   5.901  0.3941  0.1239  0.7291
 2825TIP3    H129966   4.249   3.627   5.994 -2.1728 -0.4309  1.5270
 2825TIP3    H229967   4.178   3.697   5.879  1.7849  0.6628 -0.4193
 2826TIP3   OH229968   4.367   3.206   6.072  0.5674 -0.2562 -0.4633
 2826TIP3    H129969   4.287   3.248   6.103  1.0476  0.8003 -0.6048
 2826TIP3    H229970   4.345   3.175   5.984 -0.5639 -2.6051  0.5648
 2827TIP3   OH229971   0.568   1.934  11.170 -0.1611 -0.3770  0.1983
 2827TIP3    H129972   0.558   1.849  11.127 -0.5716  0.5262 -1.5670
 2827TIP3    H229973   0.479   1.969  11.175 -0.0959 -0.3214  1.5882
 2828TIP3   OH229974   0.470   0.287   1.580 -0.0569  0.0154 -0.2551
 2828TIP3    H129975   0.510   0.218   1.528 -1.1005 -0.4378 -0.4825
 2828TIP3    H229976   0.432   0.347   1.515  0.4766  0.5824 -0.0506
 2829TIP3   OH229977   2.093   1.246   3.393  1.0412  0.1906  0.0174
 2829TIP3    H129978   2.105   1.188   3.318 -0.9270  0.8867 -0.8955
 2829TIP3    H229979   2.146   1.322   3.373  0.2221  0.5399 -0.8827
 2830TIP3   OH229980   1.009   5.821   3.208  0.0903 -0.0623 -0.1881
 2830TIP3    H129981   1.011   5.835   3.113 -1.0383 -0.0403 -0.2135
 2830TIP3    H229982   1.089   5.864   3.239  0.6117 -0.2852 -1.1466
 2831TIP3   OH229983   1.494   1.709   2.998  0.4783  0.4849 -0.5263
 2831TIP3    H129984   1.571   1.744   2.955  0.6401  1.1352  0.2717
 2831TIP3    H229985   1.480   1.623   2.957  0.2292  1.3385 -2.3163
 2832TIP3   OH229986   4.692   1.127   3.413 -0.0026 -0.5924 -0.3398
 2832TIP3    H129987   4.786   1.143   3.406 -0.3562  1.5421 -1.2301
 2832TIP3    H229988   4.662   1.188   3.480 -0.8803 -0.5274 -0.7695
 2833TIP3   OH229989   5.145   4.083   6.502  0.3132  0.1958 -0.1465
 2833TIP3    H129990   5.135   4.169   6.460  0.6391 -0.0780 -0.8019
 2833TIP3    H229991   5.084   4.027   6.454  0.4778 -0.0572 -0.0575
 2834TIP3   OH229992   6.531   2.058  13.089  0.4830 -0.2014 -0.0371
 2834TIP3    H129993   6.540   2.153  13.086 -1.5597  0.1244  1.5759
 2834TIP3    H229994   6.447   2.041  13.046 -0.0212 -1.0612  1.2205
 2835TIP3   OH229995   2.189   4.822  16.275 -0.1024  0.3914 -0.0368
 2835TIP3    H129996   2.272   4.844  16.319  0.1074  0.3931 -0.4309
 2835TIP3    H229997   2.177   4.729  16.292 -0.3007  0.5064  0.4820
 2836TIP3   OH229998   0.446   5.867  10.148  0.2929  0.5408 -0.0566
 2836TIP3    H129999   0.362   5.830  10.124 -0.3970  0.6336  2.0508
 2836TIP3    H230000   0.430   5.962  10.153  1.3611  0.9632 -2.6929
 2837TIP3   OH230001   1.237   6.223   5.549 -0.5903 -0.1787 -0.2738
 2837TIP3    H130002   1.331   6.225   5.566 -0.9022 -1.7768  2.0624
 2837TIP3    H230003   1.198   6.269   5.623 -1.7294 -1.0451 -0.3047
 2838TIP3   OH230004   5.945   1.529  11.099  0.3335  0.1898  0.2710
 2838TIP3    H130005   5.949   1.475  11.020  1.0526  1.2143 -0.4195
 2838TIP3    H230006   5.852   1.544  11.113  0.2419  1.3723 -1.3703
 2839TIP3   OH230007   4.904   5.092   3.369  0.5690 -0.9170 -0.0574
 2839TIP3    H130008   4.891   5.151   3.295  0.1302  0.9691  1.4454
 2839TIP3    H230009   4.982   5.041   3.346  1.4028  0.7615 -1.1072
 2840TIP3   OH230010   2.919   6.268   1.507  0.0787  0.1656  0.0244
 2840TIP3    H130011   2.912   6.361   1.529 -1.5298  0.4904 -1.5488
 2840TIP3    H230012   3.012   6.253   1.496  0.3898  1.5556  0.4632
 2841TIP3   OH230013   6.542   6.470  14.560 -0.7638  0.0434  0.2138
 2841TIP3    H130014   6.597   6.437  14.630  2.7744  1.0635 -1.8298
 2841TIP3    H230015   6.498   6.392  14.525 -0.4781 -0.8647  1.7979
 2842TIP3   OH230016   0.085   3.396  16.320 -0.1732 -0.0399 -0.2409
 2842TIP3    H130017   0.120   3.307  16.330  1.2430  0.5557  0.4386
 2842TIP3    H230018   0.027   3.408  16.394 -0.5410 -0.4706 -0.4571
 2843TIP3   OH230019   2.921   4.633  11.538  0.2243 -0.1275 -0.0083
 2843TIP3    H130020   2.832   4.657  11.510  0.9649  2.3058 -0.5171
 2843TIP3    H230021   2.927   4.664  11.628  1.1805  1.7426 -0.6537
 2844TIP3   OH230022   5.556   6.652   5.565  0.0988 -0.4348 -0.7448
 2844TIP3    H130023   5.556   6.711   5.640  1.0318 -0.9692 -0.3054
 2844TIP3    H230024   5.472   6.606   5.571 -0.0358 -0.1396 -0.2949
 2845TIP3   OH230025   6.273   5.369  14.009  0.1918 -0.3658  0.1197
 2845TIP3    H130026   6.203   5.364  13.944  0.3233  0.0781 -0.0591
 2845TIP3    H230027   6.336   5.302  13.980  0.5151  0.2064 -0.5402
 2846TIP3   OH230028   6.323   1.694   0.590  0.3616  0.2367  0.3174
 2846TIP3    H130029   6.398   1.745   0.558 -0.1818  1.9722  1.6060
 2846TIP3    H230030   6.311   1.625   0.525  1.1931  1.7213 -1.5178
 2847TIP3   OH230031   4.234   1.020   6.217  0.5741 -0.1062 -0.1886
 2847TIP3    H130032   4.154   0.986   6.256  0.9101 -3.9220 -2.3263
 2847TIP3    H230033   4.296   1.026   6.289 -1.3317  2.4967  1.4277
 2848TIP3   OH230034   3.790   3.858  13.060 -0.3670 -0.1217  0.4493
 2848TIP3    H130035   3.727   3.881  12.992 -0.7317 -1.2933  0.3532
 2848TIP3    H230036   3.742   3.797  13.116  0.7712 -1.2947  0.1899
 2849TIP3   OH230037   3.566   0.613  16.897 -0.5769  0.4940  0.3072
 2849TIP3    H130038   3.504   0.540  16.898  0.1998 -0.1778 -0.1710
 2849TIP3    H230039   3.595   0.620  16.806  0.8324  0.1114  0.6957
 2850TIP3   OH230040   1.269   0.845   2.304  0.8596 -0.2032  0.5034
 2850TIP3    H130041   1.331   0.917   2.309 -1.2489  1.7212  0.2279
 2850TIP3    H230042   1.317   0.775   2.260  3.7210  0.1400  2.7874
 2851TIP3   OH230043   2.499   0.299   4.796 -0.1403 -0.3603  0.3060
 2851TIP3    H130044   2.515   0.340   4.881  0.7943 -1.5974  0.7605
 2851TIP3    H230045   2.581   0.311   4.748 -0.9462  1.0639 -0.7611
 2852TIP3   OH230046   0.048   4.807  17.180 -0.1555 -0.6959  0.3148
 2852TIP3    H130047   0.038   4.816  17.085 -0.9923  2.7723  0.6216
 2852TIP3    H230048   0.119   4.866  17.203 -1.7673  0.6936  2.0929
 2853TIP3   OH230049   5.570   1.755  12.410 -0.6885 -0.4686 -0.1747
 2853TIP3    H130050   5.582   1.845  12.382  1.2974 -0.9225 -0.9031
 2853TIP3    H230051   5.614   1.750  12.495  0.2311 -1.0002 -0.6628
 2854TIP3   OH230052   6.662   2.601   5.531  1.0521  0.1831 -0.8038
 2854TIP3    H130053   6.734   2.544   5.503  1.4481 -0.7313  1.8586
 2854TIP3    H230054   6.689   2.688   5.502  2.0205 -0.4865 -2.0307
 2855TIP3   OH230055   6.189   0.978   0.684  0.2189  0.3291  0.2884
 2855TIP3    H130056   6.142   0.977   0.600 -0.1987 -0.5928  0.5215
 2855TIP3    H230057   6.263   1.037   0.670  0.7650 -0.6475 -1.0556
 2856TIP3   OH230058   0.858   0.755   0.837  0.1838 -0.3242  0.2973
 2856TIP3    H130059   0.857   0.835   0.889  1.3083 -0.5109  0.6348
 2856TIP3    H230060   0.766   0.727   0.835 -0.0592  0.3519  1.1415
 2857TIP3   OH230061   5.535   0.907   1.654  0.0176  0.1951 -0.5226
 2857TIP3    H130062   5.606   0.917   1.718  0.1359 -0.7577 -0.4961
 2857TIP3    H230063   5.455   0.915   1.706  0.1007 -1.7829 -0.0081
 2858TIP3   OH230064   0.668   3.933   2.491 -0.0817  0.6917 -0.4280
 2858TIP3    H130065   0.749   3.903   2.532  0.4290  0.2118 -1.7466
 2858TIP3    H230066   0.651   3.869   2.422 -2.3959 -0.0752  0.7578
 2859TIP3   OH230067   4.560   3.177  17.026 -0.3416  0.3568  0.4937
 2859TIP3    H130068   4.494   3.136  16.971  1.5683  0.8413 -2.3754
 2859TIP3    H230069   4.523   3.262  17.049  0.4611  2.2996 -4.2087
 2860TIP3   OH230070   3.268   0.931  14.218 -0.5075 -0.9779 -0.4603
 2860TIP3    H130071   3.225   0.846  14.222 -0.2249 -1.1382 -0.7832
 2860TIP3    H230072   3.198   0.994  14.234 -0.7295 -1.2694 -0.2919
 2861TIP3   OH230073   0.409   2.562  13.597  0.3287 -0.0856  0.3788
 2861TIP3    H130074   0.329   2.530  13.639 -2.7199  3.5122 -1.9617
 2861TIP3    H230075   0.415   2.511  13.516 -0.0732  0.1161  0.2170
 2862TIP3   OH230076   3.441   6.596   3.066  0.5604  0.9239  0.1357
 2862TIP3    H130077   3.391   6.529   3.020  1.2145  1.0418 -0.7702
 2862TIP3    H230078   3.434   6.572   3.159  1.8223 -1.1353 -0.2506
 2863TIP3   OH230079   0.134   5.133  15.420 -0.1747  0.6041  0.4307
 2863TIP3    H130080   0.059   5.159  15.367  0.2859  0.4539 -0.3031
 2863TIP3    H230081   0.099   5.126  15.509 -0.9279  0.9660  0.1721
 2864TIP3   OH230082   3.981   3.989   4.412  0.2338  0.3665 -0.1903
 2864TIP3    H130083   3.951   3.992   4.321 -0.4990  0.6891  0.0542
 2864TIP3    H230084   3.921   3.928   4.455  0.2324  0.6345  0.1948
 2865TIP3   OH230085   0.380   2.867   0.288 -0.0767  0.1131 -0.3027
 2865TIP3    H130086   0.322   2.927   0.336 -0.6613 -1.2392  0.7296
 2865TIP3    H230087   0.394   2.911   0.204 -2.3340  0.6636 -0.4769
 2866TIP3   OH230088   2.451   0.580   4.344 -0.6296  0.8936 -0.2164
 2866TIP3    H130089   2.387   0.534   4.290 -0.9995  1.2935 -0.1264
 2866TIP3    H230090   2.474   0.519   4.413  0.7742 -0.1020 -1.4962
 2867TIP3   OH230091   6.373   0.034   3.129  0.9212  0.8906 -0.7099
 2867TIP3    H130092   6.280   0.042   3.152  0.8817  0.6352 -0.7786
 2867TIP3    H230093   6.374   0.035   3.033  0.9925  0.9433 -0.7079
 2868TIP3   OH230094   5.623   1.323  11.482  0.3730 -0.1430 -0.0661
 2868TIP3    H130095   5.612   1.380  11.406 -0.9010 -0.5147 -0.1821
 2868TIP3    H230096   5.611   1.234  11.448  1.3805 -0.4248  0.2879
 2869TIP3   OH230097   4.440   3.745  17.042  0.1203  0.1507 -0.3494
 2869TIP3    H130098   4.462   3.772  17.132  2.4723  1.5401 -1.2567
 2869TIP3    H230099   4.482   3.810  16.986  0.3553 -1.7485 -2.5342
 2870TIP3   OH230100   6.650   4.068   0.416 -0.8318  0.2900  0.3703
 2870TIP3    H130101   6.720   4.030   0.470 -0.4020  1.2742  0.5227
 2870TIP3    H230102   6.687   4.069   0.327 -0.1113  2.0007  0.6476
 2871TIP3   OH230103   1.089   4.923  17.264  0.8350  0.8941  0.1908
 2871TIP3    H130104   1.100   4.838  17.223 -2.7230  0.1256  0.4454
 2871TIP3    H230105   1.161   4.976  17.231  3.5357 -2.2840  0.4483
 2872TIP3   OH230106   0.394   1.972  13.416  0.3870  0.5432 -0.0227
 2872TIP3    H130107   0.462   1.945  13.354  0.0113  0.9837 -0.6514
 2872TIP3    H230108   0.362   1.890  13.454 -0.9969 -0.0296 -2.1667
 2873TIP3   OH230109   1.179   3.349   2.430 -0.4694 -0.2980 -0.1700
 2873TIP3    H130110   1.256   3.401   2.407  0.6052 -0.8945  1.8450
 2873TIP3    H230111   1.197   3.262   2.394 -0.6448 -0.1890 -0.5212
 2874TIP3   OH230112   4.616   6.023  12.560  0.2573 -0.0449  0.2043
 2874TIP3    H130113   4.528   6.058  12.573  1.3292  2.2392  2.0895
 2874TIP3    H230114   4.645   6.059  12.476 -0.8592 -1.5511 -0.8799
 2875TIP3   OH230115   3.321   6.478   4.107  0.4433  0.3612 -0.9866
 2875TIP3    H130116   3.401   6.461   4.156  0.6752  0.0396 -1.4669
 2875TIP3    H230117   3.340   6.559   4.059  0.2470  0.6306 -0.6084
 2876TIP3   OH230118   4.435   3.004  12.053 -0.3229  0.4693 -0.4617
 2876TIP3    H130119   4.391   3.082  12.019 -0.8188 -0.1769 -1.3520
 2876TIP3    H230120   4.372   2.933  12.041  0.8694 -0.4534 -1.6476
 2877TIP3   OH230121   4.051   5.110  12.391  0.1842  0.0849 -0.2640
 2877TIP3    H130122   4.072   5.017  12.382 -3.1512 -0.8561  0.5721
 2877TIP3    H230123   4.115   5.143  12.454 -0.4491 -2.4281  1.8545
 2878TIP3   OH230124   1.076   3.369   3.480  0.0217  0.0305  0.4677
 2878TIP3    H130125   1.016   3.321   3.538 -0.1293 -0.0078  0.2819
 2878TIP3    H230126   1.159   3.369   3.527  0.5833 -2.1736 -0.3918
 2879TIP3   OH230127   4.527   2.764   5.219 -0.6649 -0.9918 -0.0397
 2879TIP3    H130128   4.604   2.707   5.216 -0.6687 -0.9415 -1.2080
 2879TIP3    H230129   4.510   2.775   5.313  2.0188  0.7408  0.3206
 2880TIP3   OH230130   6.224   3.288  13.152 -0.0444  0.4007  0.6572
 2880TIP3    H130131   6.280   3.239  13.212 -0.3534  1.3957  1.7885
 2880TIP3    H230132   6.166   3.338  13.209  0.2519  2.0615 -0.4526
 2881TIP3   OH230133   2.686   6.769  16.846 -0.4145  0.2883  0.7371
 2881TIP3    H130134   2.597   6.759  16.878 -0.1098 -2.5280  0.9295
 2881TIP3    H230135   2.677   6.773  16.751 -0.8428  2.2470  0.8139
 2882TIP3   OH230136   3.087   4.823  13.619 -0.3098 -0.0754 -0.2609
 2882TIP3    H130137   3.110   4.916  13.619  0.6884 -0.2980 -0.9362
 2882TIP3    H230138   3.008   4.817  13.672  0.4421  0.9558  1.0302
 2883TIP3   OH230139   5.366   6.533  14.472  0.2364  0.1877 -0.6767
 2883TIP3    H130140   5.413   6.594  14.529  0.2681  0.7480 -1.2921
 2883TIP3    H230141   5.367   6.575  14.386  0.3770 -0.7496 -1.1407
 2884TIP3   OH230142   0.542   3.081  14.902 -0.0363 -0.0931 -0.1850
 2884TIP3    H130143   0.624   3.037  14.880 -0.6766 -1.9151  0.8553
 2884TIP3    H230144   0.481   3.056  14.833  0.1128  0.8073 -0.6581
 2885TIP3   OH230145   2.725   1.185   2.066  0.1261  0.2111  0.0423
 2885TIP3    H130146   2.714   1.098   2.028 -0.0005 -0.0899  0.7529
 2885TIP3    H230147   2.716   1.245   1.992 -0.5242 -0.3407 -0.3355
 2886TIP3   OH230148   4.271   3.498   2.214 -0.1779  0.1007  0.3784
 2886TIP3    H130149   4.224   3.552   2.277  1.1407  0.7569  0.8374
 2886TIP3    H230150   4.237   3.526   2.129  0.9801  2.2251  0.5512
 2887TIP3   OH230151   2.427   0.858  15.424  0.2303 -0.2950  0.2574
 2887TIP3    H130152   2.360   0.902  15.371 -1.4226 -0.1307  2.3528
 2887TIP3    H230153   2.411   0.764  15.410  0.6498 -0.2553 -0.5189
 2888TIP3   OH230154   6.823   0.987   2.516  0.5597  0.2267  1.1854
 2888TIP3    H130155   6.764   1.031   2.578 -1.2566  1.9903 -1.6006
 2888TIP3    H230156   6.779   0.904   2.496  0.7792 -0.0077  1.6462
 2889TIP3   OH230157   6.659   5.954  11.874 -0.4548 -0.3954 -0.4917
 2889TIP3    H130158   6.724   5.921  11.937  0.9881  1.5161 -0.8715
 2889TIP3    H230159   6.682   5.911  11.791  0.1333 -0.0056 -0.5414
 2890TIP3   OH230160   2.544   0.209   5.349  0.0823 -0.6423 -0.1092
 2890TIP3    H130161   2.450   0.189   5.341  0.0154 -0.4636  0.2508
 2890TIP3    H230162   2.547   0.300   5.376  0.3371 -0.9275  0.8652
 2891TIP3   OH230163   4.310   3.787   4.254 -0.3844  0.0510  0.2322
 2891TIP3    H130164   4.360   3.705   4.258  2.0341  1.2481 -2.3899
 2891TIP3    H230165   4.339   3.836   4.331  0.9804 -0.1023 -0.1624
 2892TIP3   OH230166   2.800   2.075   2.595  0.0363 -0.5639 -0.3230
 2892TIP3    H130167   2.793   2.168   2.616 -2.3005 -0.5949 -0.7449
 2892TIP3    H230168   2.823   2.074   2.502  2.2628 -0.4696  0.1565
 2893TIP3   OH230169   1.153   2.069   0.970 -0.5829 -0.1416  0.2395
 2893TIP3    H130170   1.066   2.039   0.998 -1.5476  2.9868  0.9682
 2893TIP3    H230171   1.142   2.162   0.952  2.2500 -0.0237 -1.4982
 2894TIP3   OH230172   1.807   6.355  14.466 -0.3727  0.2838 -0.0132
 2894TIP3    H130173   1.892   6.332  14.427 -0.6156 -0.3348 -0.1738
 2894TIP3    H230174   1.778   6.276  14.510 -1.6159 -0.0227 -1.3034
 2895TIP3   OH230175   1.673   3.577  14.149 -0.2132 -0.2340 -0.3877
 2895TIP3    H130176   1.672   3.664  14.188 -1.5037 -0.1026 -0.6756
 2895TIP3    H230177   1.594   3.573  14.096  1.8697 -0.0830 -3.7910
 2896TIP3   OH230178   0.642   0.545   2.198 -0.7423  0.4188  0.2371
 2896TIP3    H130179   0.607   0.598   2.127 -3.7418 -1.0503  0.4859
 2896TIP3    H230180   0.598   0.461   2.190  1.6408 -1.0751  1.6449
 2897TIP3   OH230181   1.153   4.811   2.401  0.1577  0.0791  0.1994
 2897TIP3    H130182   1.104   4.889   2.377  0.3826 -0.6016 -2.8653
 2897TIP3    H230183   1.085   4.747   2.425 -0.1466  0.5479  0.6080
 2898TIP3   OH230184   0.283   1.543   6.183 -0.1925 -0.3051 -0.2333
 2898TIP3    H130185   0.350   1.564   6.248  0.8268 -1.2291 -0.9515
 2898TIP3    H230186   0.202   1.535   6.234  0.0772  1.4999  0.5606
 2899TIP3   OH230187   4.974   0.795  16.881  0.4399  0.1459 -0.2970
 2899TIP3    H130188   4.972   0.711  16.926 -2.0143  0.2676 -0.0234
 2899TIP3    H230189   4.951   0.774  16.790  0.2730  0.4630 -0.3295
 2900TIP3   OH230190   2.678   3.578   5.934  0.1795 -0.0256 -0.7542
 2900TIP3    H130191   2.674   3.673   5.925 -0.6453  0.0233 -0.0393
 2900TIP3    H230192   2.714   3.547   5.851 -0.2144  0.8590 -1.2662
 2901TIP3   OH230193   0.783   4.375  12.509 -0.6139 -0.1948  0.5610
 2901TIP3    H130194   0.867   4.396  12.550 -0.9292  1.1681  0.5475
 2901TIP3    H230195   0.799   4.384  12.415 -0.6368 -0.4886  0.5274
 2902TIP3   OH230196   5.927   1.074   5.675 -0.0449  0.0749  0.2357
 2902TIP3    H130197   6.008   1.123   5.664  1.6216 -2.0077  2.2351
 2902TIP3    H230198   5.864   1.140   5.707  1.1085  1.5318 -0.3728
 2903TIP3   OH230199   2.485   3.905  14.299 -0.4052  0.2152 -0.9491
 2903TIP3    H130200   2.434   3.841  14.249 -2.3780  1.9700 -1.3365
 2903TIP3    H230201   2.514   3.858  14.377 -0.4560 -1.5404 -1.9440
 2904TIP3   OH230202   6.520   6.287  14.193 -0.1047 -0.3376 -0.4558
 2904TIP3    H130203   6.591   6.351  14.207 -0.0313 -0.2748 -1.0823
 2904TIP3    H230204   6.501   6.293  14.099 -1.0675 -0.2244 -0.2592
 2905TIP3   OH230205   0.233   3.770   2.707  0.8647  0.0251 -0.4891
 2905TIP3    H130206   0.245   3.735   2.619 -1.1610  0.3870 -0.9469
 2905TIP3    H230207   0.242   3.695   2.765 -2.2103 -1.1240 -1.3603
 2906TIP3   OH230208   0.466   2.190   1.173 -0.1892  0.0251 -0.3146
 2906TIP3    H130209   0.406   2.178   1.247  0.1224  0.2985 -0.0172
 2906TIP3    H230210   0.502   2.103   1.156 -1.4518 -0.3614 -1.1714
 2907TIP3   OH230211   0.078   3.260   5.770 -0.3771  0.5798  0.5965
 2907TIP3    H130212   0.071   3.233   5.679  0.4172  0.6363  0.5067
 2907TIP3    H230213   0.154   3.318   5.772 -0.9762  1.3689  1.1198
 2908TIP3   OH230214   4.966   6.700   3.987  0.3852  0.1041  0.2973
 2908TIP3    H130215   5.021   6.695   4.064 -1.8293  0.4731  1.9977
 2908TIP3    H230216   4.931   6.611   3.976 -1.3346  0.6027  1.3622
 2909TIP3   OH230217   1.984   3.923  17.224 -0.3622  0.9069 -0.0033
 2909TIP3    H130218   1.971   3.884  17.137 -0.1040 -0.2312  0.4429
 2909TIP3    H230219   1.964   4.015  17.212  1.7084  1.2152 -1.7875
 2910TIP3   OH230220   0.533   1.747   5.299  0.0659  0.2058 -0.3223
 2910TIP3    H130221   0.573   1.723   5.382  2.5236 -1.8153 -1.9327
 2910TIP3    H230222   0.452   1.696   5.296  0.4619 -0.4977  0.4131
 2911TIP3   OH230223   2.555   1.538   5.709  0.0492  0.0729  0.4216
 2911TIP3    H130224   2.586   1.465   5.762  1.2979  0.4108  0.2022
 2911TIP3    H230225   2.629   1.559   5.651 -1.1927 -0.1646 -1.3341
 2912TIP3   OH230226   1.875   0.962   3.000 -0.0348  0.3281  0.1880
 2912TIP3    H130227   1.890   1.048   3.039  1.4437  0.4483 -0.5638
 2912TIP3    H230228   1.884   0.901   3.073 -1.6908  0.8289  0.8401
 2913TIP3   OH230229   5.232   6.798  16.102 -0.0038 -0.3283  0.5830
 2913TIP3    H130230   5.260   6.766  16.016  0.9926  1.0008  0.3843
 2913TIP3    H230231   5.300   6.767  16.162 -0.8341 -1.4835  0.9679
 2914TIP3   OH230232   4.514   4.217   0.603  0.1735  0.0708 -0.6644
 2914TIP3    H130233   4.497   4.123   0.608 -1.1859  0.3678  0.7844
 2914TIP3    H230234   4.610   4.224   0.597  0.3400 -1.3728  0.0903
 2915TIP3   OH230235   5.077   0.080  13.854 -0.2713  0.5464 -0.2671
 2915TIP3    H130236   5.166   0.060  13.882  0.3783  2.0115 -1.1561
 2915TIP3    H230237   5.023   0.067  13.932  0.5236 -1.4779 -0.0176
 2916TIP3   OH230238   1.629   0.439   3.908  0.5000 -0.2428 -0.5779
 2916TIP3    H130239   1.574   0.475   3.977  0.4259  1.0266 -1.2724
 2916TIP3    H230240   1.643   0.512   3.847  1.3237 -1.0748 -1.4289
 2917TIP3   OH230241   2.236   3.458  10.993  0.4620 -0.1856 -0.5969
 2917TIP3    H130242   2.303   3.430  10.932  1.3494 -0.9733  0.6887
 2917TIP3    H230243   2.166   3.393  10.983  1.2230 -1.1641  0.2220
 2918TIP3   OH230244   1.636   2.534  15.772  0.2209 -1.0114  0.2244
 2918TIP3    H130245   1.724   2.498  15.787  1.5132  1.7216 -0.1084
 2918TIP3    H230246   1.635   2.559  15.680 -0.4012  0.1846  0.5347
 2919TIP3   OH230247   3.358   3.652  11.549  0.3608  0.2182  0.2852
 2919TIP3    H130248   3.295   3.582  11.534  2.2547 -1.3065 -0.9670
 2919TIP3    H230249   3.415   3.620  11.618  1.4250  0.3719 -0.4993
 2920TIP3   OH230250   0.609   1.343   4.834  0.0564  0.4188 -0.1760
 2920TIP3    H130251   0.599   1.278   4.904 -1.2157  1.9069  1.1030
 2920TIP3    H230252   0.521   1.354   4.799 -0.0085  2.3055  0.4806
 2921TIP3   OH230253   1.584   2.680   4.407  0.4190  1.5607  0.8847
 2921TIP3    H130254   1.578   2.768   4.443 -1.6246  1.5382  0.6930
 2921TIP3    H230255   1.494   2.655   4.387  1.1547  0.3225 -1.2701
 2922TIP3   OH230256   6.226   4.777   3.168  0.3948 -0.0084  0.2433
 2922TIP3    H130257   6.145   4.818   3.138  0.6436  0.9201  0.7935
 2922TIP3    H230258   6.205   4.738   3.252  0.8041  1.3405  1.0058
 2923TIP3   OH230259   5.723   3.835  12.117 -0.0588  0.0079 -0.1041
 2923TIP3    H130260   5.814   3.814  12.096  0.3093 -0.0112  1.3635
 2923TIP3    H230261   5.672   3.793  12.049  1.1005  1.6202 -2.0777
 2924TIP3   OH230262   6.299   0.102   1.495 -0.0393  0.0617 -0.1472
 2924TIP3    H130263   6.296   0.194   1.523  1.7854  0.1438 -0.1313
 2924TIP3    H230264   6.290   0.106   1.400 -0.9079  0.1585 -0.0761
 2925TIP3   OH230265   3.588   1.530   1.824 -0.0672 -0.2683 -0.3758
 2925TIP3    H130266   3.563   1.568   1.740 -0.5174  1.1583  0.3588
 2925TIP3    H230267   3.680   1.507   1.815  0.3743  1.4872 -0.7337
 2926TIP3   OH230268   3.488   6.812  17.108  0.6929  0.5448 -0.5853
 2926TIP3    H130269   3.426   6.775  17.045  0.0864  1.8851 -0.8110
 2926TIP3    H230270   3.565   6.834  17.055  0.8573  0.0993 -0.5384
 2927TIP3   OH230271   2.082   5.128   2.966  0.0998 -0.2792 -0.3837
 2927TIP3    H130272   1.994   5.131   2.927 -0.1013  0.2968  0.1041
 2927TIP3    H230273   2.093   5.213   3.008  0.8916 -0.3505 -0.4239
 2928TIP3   OH230274   6.196   1.613  10.637  0.6142  0.0935  0.6289
 2928TIP3    H130275   6.174   1.520  10.642 -4.5859  0.6714 -2.6476
 2928TIP3    H230276   6.241   1.623  10.553 -0.8082  0.6200 -0.1180
 2929TIP3   OH230277   3.412   5.228   5.642  0.0007 -0.0549 -0.3591
 2929TIP3    H130278   3.468   5.262   5.712 -1.6135  0.3867  0.7690
 2929TIP3    H230279   3.472   5.179   5.585  1.6502  1.0782  0.3356
 2930TIP3   OH230280   0.063   1.753  16.655  0.2795 -0.5028 -0.3407
 2930TIP3    H130281   0.016   1.675  16.683  0.7042 -0.2442  1.1694
 2930TIP3    H230282   0.116   1.778  16.730  2.5345 -0.5301 -1.8153
 2931TIP3   OH230283   4.766   2.591   1.736 -0.1940  0.0070 -0.1464
 2931TIP3    H130284   4.703   2.589   1.664 -0.8083 -0.0944  0.3829
 2931TIP3    H230285   4.729   2.653   1.798 -0.8775 -1.6129  1.1377
 2932TIP3   OH230286   4.231   5.651  15.514 -0.7230 -0.1895 -0.0322
 2932TIP3    H130287   4.217   5.690  15.428 -0.5711 -1.0225 -0.4495
 2932TIP3    H230288   4.151   5.601  15.531  0.1124 -1.8221 -0.7001
 2933TIP3   OH230289   3.485   1.182  16.756 -0.0976  0.0490  0.0135
 2933TIP3    H130290   3.511   1.139  16.837 -0.4791 -1.4221 -0.6154
 2933TIP3    H230291   3.567   1.196  16.708  0.1902  1.4177  0.8567
 2934TIP3   OH230292   4.616   0.766  13.940  1.0970 -0.0785  0.1052
 2934TIP3    H130293   4.559   0.755  14.017 -0.5032 -1.0836 -1.1724
 2934TIP3    H230294   4.671   0.687  13.939 -0.1594 -0.9709 -0.7799
 2935TIP3   OH230295   0.854   4.606  16.022  0.1380  0.1047  0.5984
 2935TIP3    H130296   0.857   4.702  16.016  0.1364  0.2991  2.8198
 2935TIP3    H230297   0.767   4.587  16.057  0.0216 -0.7526 -0.1199
 2936TIP3   OH230298   0.348   4.651  12.488  0.2896  0.3197  0.3473
 2936TIP3    H130299   0.426   4.623  12.441 -0.4791 -2.3582  0.4896
 2936TIP3    H230300   0.374   4.652  12.580  0.5412  0.9354  0.2737
 2937TIP3   OH230301   1.921   5.113   1.655 -0.2545  0.2554 -0.1814
 2937TIP3    H130302   2.008   5.148   1.636 -0.6629  2.3222  1.3733
 2937TIP3    H230303   1.938   5.029   1.698  0.8635 -0.3985 -1.8013
 2938TIP3   OH230304   4.573   2.068  12.442 -0.0050  0.5738 -0.8098
 2938TIP3    H130305   4.492   2.110  12.472 -0.0226  1.3178 -1.8322
 2938TIP3    H230306   4.569   2.074  12.347  0.2244 -1.3719 -0.9833
 2939TIP3   OH230307   4.976   0.408  13.855 -0.7532  0.0224  0.1100
 2939TIP3    H130308   5.007   0.395  13.766 -1.6992 -2.6669  0.0761
 2939TIP3    H230309   5.023   0.342  13.907  1.0817  2.6267  2.0245
 2940TIP3   OH230310   3.755   3.560   1.055  0.2463 -0.7782 -0.5124
 2940TIP3    H130311   3.769   3.468   1.035  0.2891 -1.1124  0.9453
 2940TIP3    H230312   3.674   3.562   1.106 -0.3802  0.1316 -1.5180
 2941TIP3   OH230313   0.951   6.214  14.394  0.3828 -0.6188 -0.1936
 2941TIP3    H130314   0.936   6.305  14.420  1.1027 -0.5220 -0.0968
 2941TIP3    H230315   0.893   6.163  14.451  0.8728 -0.3009  0.6008
 2942TIP3   OH230316   5.815   2.507  15.934 -0.0853  0.6120  0.3524
 2942TIP3    H130317   5.791   2.450  16.007  1.2299  0.1720  0.4662
 2942TIP3    H230318   5.788   2.459  15.856 -1.0316  0.8558  0.5207
 2943TIP3   OH230319   5.049   0.152  15.693 -0.1956  0.2932 -0.5472
 2943TIP3    H130320   5.024   0.200  15.614 -1.0749  0.0373 -0.4244
 2943TIP3    H230321   5.039   0.216  15.764 -0.2266  0.2693 -0.5306
 2944TIP3   OH230322   1.246   1.467   3.897  0.0726 -0.3992 -0.1553
 2944TIP3    H130323   1.306   1.476   3.971 -0.4505  0.0764  0.2121
 2944TIP3    H230324   1.241   1.555   3.860 -1.8870  0.0096  0.9795
 2945TIP3   OH230325   2.977   4.983  12.625  0.0863 -0.2283  0.5424
 2945TIP3    H130326   2.992   4.930  12.548 -0.7279  0.0435  0.1809
 2945TIP3    H230327   2.937   5.064  12.592 -2.0360 -0.8524  1.3728
 2946TIP3   OH230328   3.761   0.842   6.014 -0.2328  0.7625  0.1806
 2946TIP3    H130329   3.839   0.846   5.958 -0.8013 -0.2477 -0.7123
 2946TIP3    H230330   3.795   0.822   6.101  0.3638 -2.7209 -0.7149
 2947TIP3   OH230331   2.712   2.623  13.124  0.5344  0.2602  0.4849
 2947TIP3    H130332   2.680   2.578  13.201  1.1268 -1.4929 -0.2553
 2947TIP3    H230333   2.749   2.554  13.068 -1.4846  1.1887 -2.1992
 2948TIP3   OH230334   3.843   5.411  17.138  0.3310  0.0302  0.2573
 2948TIP3    H130335   3.807   5.386  17.053 -0.1485  0.0260  0.4628
 2948TIP3    H230336   3.901   5.338  17.161  0.2255 -0.1117  0.0802
 2949TIP3   OH230337   5.402   1.513  16.056 -0.1595 -0.5745 -0.5631
 2949TIP3    H130338   5.386   1.581  15.989 -0.1605 -0.5458 -0.5331
 2949TIP3    H230339   5.456   1.557  16.122 -0.9192 -0.3317 -0.0908
 2950TIP3   OH230340   5.498   3.144  11.494 -0.5731 -0.0068  0.0957
 2950TIP3    H130341   5.514   3.182  11.407  3.0412 -0.0029  0.5968
 2950TIP3    H230342   5.546   3.061  11.492 -1.6610 -0.7121  1.6599
 2951TIP3   OH230343   0.003   4.347  16.102  0.0825  0.3071  0.2495
 2951TIP3    H130344  -0.005   4.389  16.016  1.9253  0.1117 -0.0507
 2951TIP3    H230345  -0.064   4.279  16.101 -1.0496  1.3780 -0.3567
 2952TIP3   OH230346   5.624   0.934   3.223  0.8582 -0.2102  0.0240
 2952TIP3    H130347   5.651   0.853   3.265  1.6889  0.5049  0.9182
 2952TIP3    H230348   5.689   0.950   3.155 -0.4935 -1.3731 -1.6242
 2953TIP3   OH230349   2.710   2.387  15.962  0.3423  0.8144 -0.6369
 2953TIP3    H130350   2.749   2.402  15.876 -0.5575 -0.5475 -1.3348
 2953TIP3    H230351   2.645   2.456  15.972  2.9663  3.2877  0.6706
 2954TIP3   OH230352   5.515   2.085  13.736 -1.2909 -0.0375  0.4758
 2954TIP3    H130353   5.551   2.058  13.652 -1.2756  1.2253  0.0586
 2954TIP3    H230354   5.459   2.160  13.715 -1.0019  0.5210  1.6332
 2955TIP3   OH230355   0.667   5.705  13.819  0.1325 -0.4896  0.4629
 2955TIP3    H130356   0.601   5.642  13.847  0.2726 -1.0491 -0.4074
 2955TIP3    H230357   0.624   5.757  13.751  0.9726 -1.8193 -1.1750
 2956TIP3   OH230358   2.298   3.930  12.918 -0.6974  0.1930  0.3641
 2956TIP3    H130359   2.289   3.836  12.901  1.9257 -0.1331  0.3761
 2956TIP3    H230360   2.212   3.966  12.899 -2.2353 -2.4121  1.7946
 2957TIP3   OH230361   5.845   1.755  15.796  0.2442 -0.2500  0.4592
 2957TIP3    H130362   5.826   1.774  15.888 -2.9089 -1.4418  0.1619
 2957TIP3    H230363   5.910   1.685  15.799  0.6177  0.1218  1.7342
 2958TIP3   OH230364   4.023   3.743  11.897  0.2448 -0.2319 -0.1783
 2958TIP3    H130365   4.118   3.734  11.906  0.0674 -1.7611  0.4732
 2958TIP3    H230366   3.987   3.701  11.975 -0.9883 -0.3351 -0.7710
 2959TIP3   OH230367   5.665   0.373   2.879 -0.8167  0.1851 -0.4054
 2959TIP3    H130368   5.602   0.301   2.878 -1.8419  1.0442  0.3573
 2959TIP3    H230369   5.643   0.423   2.957 -2.2270  3.1399 -2.5223
 2960TIP3   OH230370   0.471   4.250   0.853  0.3021  0.3067  0.5120
 2960TIP3    H130371   0.378   4.270   0.864  0.2618 -0.3104  1.3908
 2960TIP3    H230372   0.499   4.306   0.780 -1.4269 -1.6321 -1.7789
 2961TIP3   OH230373   2.814   1.035  17.112 -0.3719  0.1672 -0.1083
 2961TIP3    H130374   2.838   0.993  17.029 -0.5624  0.4692 -0.3170
 2961TIP3    H230375   2.736   1.085  17.091  0.3685  1.3611 -0.0898
 2962TIP3   OH230376   5.530   2.377  15.188 -0.2877 -0.5278  0.1620
 2962TIP3    H130377   5.439   2.347  15.190 -1.1539  1.8072 -0.6725
 2962TIP3    H230378   5.576   2.308  15.140 -1.7627 -1.4114 -0.0787
 2963TIP3   OH230379   4.177   3.007  15.969 -0.1605  0.0516  0.1421
 2963TIP3    H130380   4.155   3.038  16.057  1.4758 -1.6711  1.2339
 2963TIP3    H230381   4.184   2.912  15.978 -1.2954 -0.3324 -2.2012
 2964TIP3   OH230382   4.955   0.521   0.235 -0.5379 -0.0477  0.2271
 2964TIP3    H130383   4.885   0.460   0.213 -0.8495 -0.2612  1.6798
 2964TIP3    H230384   5.022   0.507   0.169 -1.6409 -0.2036 -0.8910
 2965TIP3   OH230385   3.349   3.369   4.981  0.1617  0.1869 -0.4123
 2965TIP3    H130386   3.397   3.298   5.024  1.6843  0.6973 -1.2011
 2965TIP3    H230387   3.405   3.446   4.993 -1.0096  1.0619 -0.4015
 2966TIP3   OH230388   6.564   0.549   5.462  0.2241  0.4142 -0.1333
 2966TIP3    H130389   6.619   0.550   5.540  1.6826  0.0747 -1.1207
 2966TIP3    H230390   6.494   0.488   5.483  2.1438 -1.8790 -0.0732
 2967TIP3   OH230391   3.276   6.652   2.534 -0.2672 -0.6987  0.0426
 2967TIP3    H130392   3.229   6.591   2.592 -0.7119 -0.8702 -0.4892
 2967TIP3    H230393   3.280   6.607   2.450 -1.8838  0.5751 -0.7768
 2968TIP3   OH230394   6.592   4.897  11.566 -0.1293 -0.2933 -0.6560
 2968TIP3    H130395   6.603   4.808  11.531  2.0471 -1.3672  2.3233
 2968TIP3    H230396   6.547   4.884  11.649  2.0079  1.0419  0.8142
 2969TIP3   OH230397   3.593   4.128   5.296 -0.0569 -0.4126 -0.3100
 2969TIP3    H130398   3.623   4.202   5.349  0.0971 -0.7883  0.1276
 2969TIP3    H230399   3.552   4.169   5.220  0.1469  0.1241 -0.1364
 2970TIP3   OH230400   2.442   3.036  14.431 -0.3258  0.0047 -0.2613
 2970TIP3    H130401   2.535   3.046  14.454 -0.2967  4.1566 -1.3156
 2970TIP3    H230402   2.443   2.998  14.343  0.5351  1.3190 -0.8555
 2971TIP3   OH230403   2.327   1.153   3.040  0.6526  0.0128  0.1992
 2971TIP3    H130404   2.390   1.222   3.060  0.2863  0.2785  0.4473
 2971TIP3    H230405   2.377   1.088   2.991  1.0040  0.4453 -0.0189
 2972TIP3   OH230406   4.182   1.394   3.666  0.5388 -0.7053 -0.3586
 2972TIP3    H130407   4.205   1.485   3.649  0.3597 -0.3646  1.0612
 2972TIP3    H230408   4.087   1.396   3.681  0.3315 -1.3313 -1.5276
 2973TIP3   OH230409   6.643   5.417   1.492  0.6310 -0.4423  0.3558
 2973TIP3    H130410   6.737   5.410   1.478  0.7433  0.5085  0.5820
 2973TIP3    H230411   6.616   5.329   1.519  1.2625 -1.0155 -0.7816
 2974TIP3   OH230412   3.700   4.823  10.776 -0.2558  0.2198 -0.4473
 2974TIP3    H130413   3.682   4.775  10.695 -2.4788  3.6253 -2.1901
 2974TIP3    H230414   3.788   4.859  10.764 -0.0879 -0.2968 -0.7916
 2975TIP3   OH230415   4.052   3.417  13.811 -0.3500 -0.0113  0.3372
 2975TIP3    H130416   3.986   3.349  13.802 -0.4642  0.1631 -0.1379
 2975TIP3    H230417   4.013   3.480  13.872 -0.4520 -0.1138  0.3780
 2976TIP3   OH230418   5.537   3.235   0.934  0.7709  0.2125  0.5784
 2976TIP3    H130419   5.608   3.203   0.878 -0.0182 -0.2234 -0.2052
 2976TIP3    H230420   5.470   3.167   0.928  0.5991  0.2440  1.9363
 2977TIP3   OH230421   4.454   3.430  15.711 -0.1714  0.1421  0.7904
 2977TIP3    H130422   4.518   3.392  15.651  0.0274 -0.7008  1.5131
 2977TIP3    H230423   4.443   3.364  15.780 -2.7928 -0.3252  0.0419
 2978TIP3   OH230424   2.998   4.553  14.511 -0.7563  0.5650 -0.4846
 2978TIP3    H130425   2.953   4.605  14.444 -0.4226  1.4555 -0.0391
 2978TIP3    H230426   2.936   4.484  14.533 -1.4875  1.1677 -0.6171
 2979TIP3   OH230427   0.192   0.323  13.561  0.3404  0.4803 -0.2327
 2979TIP3    H130428   0.280   0.293  13.587  0.0709  0.7587  1.0779
 2979TIP3    H230429   0.208   0.401  13.507  1.0617 -1.9066 -3.8125
 2980TIP3   OH230430   2.873   0.652   6.228 -0.1984  0.0387  0.2327
 2980TIP3    H130431   2.824   0.627   6.307  0.5023  1.0807  1.0281
 2980TIP3    H230432   2.898   0.743   6.243 -0.5863  0.4675 -1.4944
 2981TIP3   OH230433   0.268   2.502  16.097 -0.1679 -0.0146 -0.0445
 2981TIP3    H130434   0.192   2.468  16.049  0.0327  0.0838 -0.4401
 2981TIP3    H230435   0.325   2.426  16.107 -1.3456 -0.6578  2.3444
 2982TIP3   OH230436   2.249   1.150   2.618 -0.0942  0.1671  0.0627
 2982TIP3    H130437   2.282   1.237   2.598 -0.5699  0.6784  1.4557
 2982TIP3    H230438   2.163   1.164   2.657 -0.5909 -0.9818 -0.5482
 2983TIP3   OH230439   2.389   4.926  11.903 -0.5400  0.0136  0.0443
 2983TIP3    H130440   2.352   4.887  11.824  0.7807  1.3417 -1.3051
 2983TIP3    H230441   2.401   5.018  11.881 -1.0674  0.6654  2.1784
 2984TIP3   OH230442   3.157   2.207   6.323 -0.1337  0.5178 -0.2591
 2984TIP3    H130443   3.222   2.161   6.270  0.6683  0.1393  1.0016
 2984TIP3    H230444   3.073   2.172   6.294  0.3474 -0.3372 -0.6547
 2985TIP3   OH230445   6.647   3.764  12.655  0.3387  0.0652  0.0933
 2985TIP3    H130446   6.595   3.687  12.677  1.4911 -0.0393  2.8855
 2985TIP3    H230447   6.701   3.779  12.733  1.5812  2.5271 -1.1374
 2986TIP3   OH230448   3.877   0.139  15.087 -0.5592 -0.0883  0.0563
 2986TIP3    H130449   3.913   0.227  15.083  0.0951 -0.3689 -0.4024
 2986TIP3    H230450   3.811   0.143  15.156 -0.5573  0.7629  0.0212
 2987TIP3   OH230451   5.719   3.057  12.919 -0.0843 -0.4593 -0.5486
 2987TIP3    H130452   5.809   3.073  12.891  0.2230 -0.9041  0.1730
 2987TIP3    H230453   5.666   3.117  12.866  0.5843 -0.5356 -1.3212
 2988TIP3   OH230454   5.929   0.857   1.678  0.0719  0.0177 -0.9419
 2988TIP3    H130455   5.867   0.903   1.735 -1.5315 -1.3568 -1.4781
 2988TIP3    H230456   5.965   0.787   1.733 -0.1919 -0.2522 -1.1037
 2989TIP3   OH230457   2.234   0.499   1.847  0.4294 -0.0936  0.1759
 2989TIP3    H130458   2.161   0.495   1.786 -0.1051  0.4108  0.7657
 2989TIP3    H230459   2.217   0.578   1.899  1.4153  0.0525  0.2890
 2990TIP3   OH230460   0.773   4.181  14.068 -0.0274  0.1616  0.0824
 2990TIP3    H130461   0.702   4.151  14.125  0.2362 -0.4807  0.0845
 2990TIP3    H230462   0.800   4.265  14.106  0.5731 -0.5489  1.2905
 2991TIP3   OH230463   4.205   2.897  17.323  0.1720 -0.4729  0.0305
 2991TIP3    H130464   4.178   2.814  17.363  2.8539 -0.8457  1.2994
 2991TIP3    H230465   4.248   2.871  17.242 -1.0182 -0.1020 -0.7350
 2992TIP3   OH230466   0.436   0.160  13.538  0.1252  0.0798 -0.4585
 2992TIP3    H130467   0.398   0.129  13.455 -0.5765  1.1901 -0.5665
 2992TIP3    H230468   0.529   0.167  13.519  0.1411 -0.7998 -0.7904
 2993TIP3   OH230469   0.059   3.681  16.378 -0.6892 -0.1968  0.0078
 2993TIP3    H130470   0.084   3.599  16.335  0.9313  1.4766 -2.5370
 2993TIP3    H230471  -0.009   3.718  16.321 -1.0647  0.4635  0.8538
 2994TIP3   OH230472   5.830   5.994  16.356 -0.2713 -0.3096 -0.2597
 2994TIP3    H130473   5.848   6.023  16.446 -2.0719  0.9161 -0.2387
 2994TIP3    H230474   5.734   5.990  16.351 -0.2683  0.8962 -2.4929
 2995TIP3   OH230475   1.257   5.475   5.944  0.4221  0.0656  0.5315
 2995TIP3    H130476   1.338   5.513   5.977  1.5142 -0.1776 -1.6412
 2995TIP3    H230477   1.189   5.506   6.003  2.3989 -2.2767  4.4300
 2996TIP3   OH230478   0.597   3.358  11.746 -0.6057 -0.3646  0.4186
 2996TIP3    H130479   0.599   3.285  11.683  1.9439 -1.1175  1.2310
 2996TIP3    H230480   0.577   3.316  11.830 -1.6438  0.2831  0.5075
 2997TIP3   OH230481   3.549   0.251   6.336  0.1654  0.5918  0.5788
 2997TIP3    H130482   3.526   0.187   6.404  3.2488 -0.6805  0.5678
 2997TIP3    H230483   3.499   0.224   6.259 -0.3976 -0.3272  1.2505
 2998TIP3   OH230484   5.699   5.731   2.119 -0.0526 -0.2493 -0.1751
 2998TIP3    H130485   5.765   5.776   2.172  0.8812 -0.4113 -1.1448
 2998TIP3    H230486   5.703   5.775   2.034 -0.4754 -0.9275 -0.5565
 2999TIP3   OH230487   1.805   4.320   0.019  0.1134  0.0787 -0.1665
 2999TIP3    H130488   1.835   4.280   0.100 -0.7209 -0.1045  0.0606
 2999TIP3    H230489   1.779   4.409   0.044 -1.0222 -0.2751 -0.0329
 3000TIP3   OH230490   1.744   3.911  16.294  0.2288 -0.3575 -0.2807
 3000TIP3    H130491   1.703   3.997  16.307  0.1964 -0.0568 -2.0933
 3000TIP3    H230492   1.798   3.899  16.372 -2.1650 -0.1447  1.5373
 3001TIP3   OH230493   1.579   1.508   5.901 -0.2035 -0.4728  0.5698
 3001TIP3    H130494   1.498   1.517   5.953  0.1117 -1.7649  1.3309
 3001TIP3    H230495   1.605   1.417   5.913  0.3026 -0.6070 -1.2860
 3002TIP3   OH230496   4.379   4.602  17.275  0.7979  0.2055  0.3644
 3002TIP3    H130497   4.322   4.591  17.199  2.1037 -0.8688 -0.4993
 3002TIP3    H230498   4.432   4.679  17.254  0.7901  0.2272  0.4262
 3003TIP3   OH230499   0.920   3.345   5.072 -0.3991  0.1012  0.5115
 3003TIP3    H130500   0.986   3.414   5.079 -0.3513 -0.0082  1.1435
 3003TIP3    H230501   0.853   3.369   5.135 -0.5717 -0.2252  0.4559
 3004TIP3   OH230502   0.031   4.536   5.202 -0.2380  0.2020  0.3763
 3004TIP3    H130503   0.053   4.629   5.194 -1.2645  0.4106 -0.2163
 3004TIP3    H230504  -0.017   4.530   5.285  1.1129 -0.0720  1.1555
 3005TIP3   OH230505   0.195   3.079  11.673  0.2774 -0.0704  0.0425
 3005TIP3    H130506   0.218   3.163  11.713  1.1335 -0.5936  0.6737
 3005TIP3    H230507   0.138   3.037  11.737  1.8132 -0.9961  0.8585
 3006TIP3   OH230508   5.030   1.759  13.691 -0.0497  0.5910  0.0977
 3006TIP3    H130509   5.126   1.762  13.694  0.0338  2.9365 -1.6636
 3006TIP3    H230510   5.009   1.666  13.698  2.5318 -0.2932 -1.9076
 3007TIP3   OH230511   4.825   1.358   3.165  0.5310 -0.7485  0.1157
 3007TIP3    H130512   4.782   1.401   3.239  0.6833 -0.0721 -0.1842
 3007TIP3    H230513   4.813   1.265   3.182 -0.9182 -0.5905  0.1119
 3008TIP3   OH230514   0.917   6.113   6.192 -0.4013  0.0832  0.4290
 3008TIP3    H130515   0.864   6.149   6.263 -0.8047 -0.9229  0.6569
 3008TIP3    H230516   0.882   6.025   6.178 -0.6675  0.4304 -1.3680
 3009TIP3   OH230517   5.008   5.312   5.603  0.5458  0.3222 -0.4531
 3009TIP3    H130518   5.073   5.290   5.536 -0.2318  0.3841 -1.2405
 3009TIP3    H230519   5.032   5.401   5.630  3.1134 -0.9647  2.0581
 3010TIP3   OH230520   6.734   0.334   0.917  0.3070 -0.6944 -0.2179
 3010TIP3    H130521   6.677   0.390   0.970  1.0820 -1.6448  1.7070
 3010TIP3    H230522   6.791   0.395   0.870  1.0433  0.1850  1.7115
 3011TIP3   OH230523   3.775   5.659  11.314  0.0422  0.5363 -0.0388
 3011TIP3    H130524   3.789   5.623  11.226  0.1418 -1.8983  0.9009
 3011TIP3    H230525   3.773   5.753  11.300 -0.0170  0.2436 -2.6634
 3012TIP3   OH230526   1.921   5.443  12.362 -0.0487  0.2661 -0.0068
 3012TIP3    H130527   1.857   5.417  12.296 -0.4012  1.2065 -0.0521
 3012TIP3    H230528   1.978   5.366  12.372 -0.8230 -0.3773 -0.3918
 3013TIP3   OH230529   0.554   2.701  12.190  0.0000  0.2547 -0.0453
 3013TIP3    H130530   0.504   2.727  12.113  3.2195 -2.1708 -3.3124
 3013TIP3    H230531   0.494   2.644  12.239 -1.5034  0.1055 -1.9354
 3014TIP3   OH230532   4.771   3.649  11.424 -0.0704 -0.6423  0.5314
 3014TIP3    H130533   4.702   3.633  11.359 -0.5985  1.1065  0.5923
 3014TIP3    H230534   4.827   3.571  11.420 -0.3441 -0.7979 -1.6760
 3015TIP3   OH230535   2.612   2.771   5.582 -0.0309  0.7538  0.4962
 3015TIP3    H130536   2.583   2.695   5.632  2.5449 -0.1213  0.7921
 3015TIP3    H230537   2.630   2.737   5.494  0.0804  1.2581  0.3176
 3016TIP3   OH230538   5.901   4.187   4.062 -0.2231 -0.9331 -0.3330
 3016TIP3    H130539   5.874   4.265   4.013 -2.4362 -1.3280  0.1269
 3016TIP3    H230540   5.974   4.216   4.115  0.0814  0.3811 -1.4133
 3017TIP3   OH230541   0.312   5.017  11.301  0.3494  0.6532  0.3020
 3017TIP3    H130542   0.244   5.078  11.271 -0.7902 -0.0877  1.3139
 3017TIP3    H230543   0.268   4.960  11.363  1.9274  0.1800  1.0436
 3018TIP3   OH230544   3.895   4.998   3.263 -0.2481  0.1724  0.1437
 3018TIP3    H130545   3.888   4.973   3.355 -0.7736 -2.1787 -0.4719
 3018TIP3    H230546   3.817   4.962   3.222  1.8319 -2.3663 -1.9179
 3019TIP3   OH230547   3.951   4.503  11.406  0.1339 -0.0263 -0.1129
 3019TIP3    H130548   3.930   4.508  11.499 -0.8420 -0.3381 -0.3084
 3019TIP3    H230549   3.869   4.524  11.361  0.2466 -1.1698 -0.8997
 3020TIP3   OH230550   5.954   4.420  16.825  0.1662 -0.1534 -0.4768
 3020TIP3    H130551   5.873   4.467  16.807 -0.3534 -1.3637 -1.4753
 3020TIP3    H230552   5.959   4.354  16.756  1.3646 -0.9127  0.2978
 3021TIP3   OH230553   4.372   6.442  16.980  0.1008  0.2745 -0.5926
 3021TIP3    H130554   4.394   6.471  16.892 -0.2091 -0.7770 -1.0358
 3021TIP3    H230555   4.276   6.440  16.981  0.0946 -1.2033 -0.7771
 3022TIP3   OH230556   3.947   3.948  15.740  0.2923  0.2640 -0.3010
 3022TIP3    H130557   3.942   3.853  15.730 -3.0856  0.2478  0.3710
 3022TIP3    H230558   3.928   3.982  15.653 -1.7748  0.2416  0.0959
 3023TIP3   OH230559   3.506   6.045  14.097 -0.2120  0.1158  0.5057
 3023TIP3    H130560   3.488   6.078  14.009 -1.1558  0.1780  0.7144
 3023TIP3    H230561   3.602   6.044  14.103 -0.1409  0.2289 -0.4718
 3024TIP3   OH230562   0.864   4.793  16.316 -0.6202  0.1346 -0.3455
 3024TIP3    H130563   0.955   4.763  16.318 -0.8396 -0.5451  0.5143
 3024TIP3    H230564   0.870   4.888  16.329 -0.0735 -0.0436  0.8743
 3025TIP3   OH230565   0.255   3.425   2.261 -0.1768 -0.5906 -0.3245
 3025TIP3    H130566   0.225   3.466   2.180 -1.2362  2.4805  1.4605
 3025TIP3    H230567   0.180   3.375   2.292  0.3320 -2.0328 -1.3067
 3026TIP3   OH230568   0.504   4.713  14.868 -0.7559  0.0536  0.1232
 3026TIP3    H130569   0.419   4.697  14.827 -2.1029  1.2489  2.2063
 3026TIP3    H230570   0.484   4.721  14.962  1.8751 -0.9700  0.8636
 3027TIP3   OH230571   3.041   3.677  15.005  0.1375  0.6023 -0.1347
 3027TIP3    H130572   3.022   3.600  14.951 -0.2154  2.2786 -2.5354
 3027TIP3    H230573   3.137   3.682  15.007  0.1884 -0.3361  0.7661
 3028TIP3   OH230574   5.154   2.244  16.472  0.1886 -0.2163 -0.3938
 3028TIP3    H130575   5.112   2.204  16.548  1.1377  1.8394  1.3434
 3028TIP3    H230576   5.117   2.198  16.396 -1.7013 -1.5441  1.2299
 3029TIP3   OH230577   5.352   0.841  12.567 -0.1329 -0.0789 -0.3073
 3029TIP3    H130578   5.319   0.931  12.563 -0.1158 -0.1148 -1.5421
 3029TIP3    H230579   5.431   0.842  12.513  0.7710 -0.4749  0.9610
 3030TIP3   OH230580   4.743   3.758   1.582  0.2814  0.0283 -0.6133
 3030TIP3    H130581   4.696   3.784   1.661  0.9825 -0.1679 -0.1231
 3030TIP3    H230582   4.674   3.735   1.520 -0.3049  1.1662 -0.4095
 3031TIP3   OH230583   1.522   6.493  16.042 -0.5215 -0.6768  0.1727
 3031TIP3    H130584   1.496   6.429  15.975 -0.9931 -2.6070  2.0649
 3031TIP3    H230585   1.575   6.442  16.104 -0.7390  0.8371  1.6770
 3032TIP3   OH230586   2.545   2.379   6.142  0.2739 -0.8787 -0.9614
 3032TIP3    H130587   2.534   2.466   6.104  2.1482  0.4931  1.3474
 3032TIP3    H230588   2.477   2.375   6.210 -0.2111 -1.5045 -1.4731
 3033TIP3   OH230589   2.194   0.201   0.449 -0.5099  0.2153 -0.2619
 3033TIP3    H130590   2.232   0.192   0.536 -2.7260  3.5039  1.2556
 3033TIP3    H230591   2.162   0.114   0.427  0.1715 -0.7091  2.1585
 3034TIP3   OH230592   0.028   5.357  12.617  0.7684 -0.4690  0.5358
 3034TIP3    H130593  -0.014   5.433  12.658  1.5692 -0.1127  0.7181
 3034TIP3    H230594   0.054   5.387  12.530 -1.4340 -1.3939 -0.5178
 3035TIP3   OH230595   4.485   5.424  16.333  0.3054 -0.0616 -0.2223
 3035TIP3    H130596   4.405   5.418  16.281  0.7100 -0.5528 -0.8148
 3035TIP3    H230597   4.545   5.476  16.279  0.7548 -0.6305 -0.2872
 3036TIP3   OH230598   1.201   1.358   2.684  0.1400  0.0124  0.3303
 3036TIP3    H130599   1.270   1.424   2.696  0.8589 -0.3525 -1.4571
 3036TIP3    H230600   1.248   1.275   2.677 -0.6910 -0.5813  1.5075
 3037TIP3   OH230601   0.298   6.720   0.653  0.3312  0.0851  0.1508
 3037TIP3    H130602   0.393   6.718   0.669  0.5267 -2.0364 -0.9203
 3037TIP3    H230603   0.259   6.717   0.740  1.2973 -1.7839  0.5694
 3038TIP3   OH230604   5.933   5.509   2.672 -0.1981 -0.4078  0.2022
 3038TIP3    H130605   5.859   5.522   2.732 -0.3274 -1.6152  0.3389
 3038TIP3    H230606   5.905   5.549   2.590  0.7718  3.1034  1.4061
 3039TIP3   OH230607   3.880   5.913   5.843  0.1118  0.6917 -0.2462
 3039TIP3    H130608   3.852   5.972   5.914 -1.7841  0.3965 -0.6982
 3039TIP3    H230609   3.817   5.929   5.773 -0.1720 -1.5338 -0.5558
 3040TIP3   OH230610   5.722   1.091  10.481 -0.2141 -0.2458  0.2103
 3040TIP3    H130611   5.672   1.160  10.436 -0.8226 -0.0468  1.1765
 3040TIP3    H230612   5.809   1.128  10.492 -0.1648 -0.1498 -0.4670
 3041TIP3   OH230613   3.485   1.429   0.336 -0.2184 -0.1106 -0.4102
 3041TIP3    H130614   3.556   1.393   0.389 -0.8676 -0.9410 -0.0786
 3041TIP3    H230615   3.456   1.357   0.281  0.0975  0.6035 -1.5496
 3042TIP3   OH230616   4.303   6.360   1.269  0.3011  0.1160 -0.3094
 3042TIP3    H130617   4.333   6.419   1.200  1.6435 -0.1596 -0.0086
 3042TIP3    H230618   4.371   6.367   1.336 -1.2611  0.8438  1.2820
 3043TIP3   OH230619   1.379   0.538   2.657  0.0670 -0.5530 -0.0250
 3043TIP3    H130620   1.295   0.578   2.636  1.2642  1.1143 -1.9199
 3043TIP3    H230621   1.427   0.606   2.705  1.7389  0.0606 -2.3781
 3044TIP3   OH230622   5.016   0.639   1.267  0.0763 -0.2864  0.7705
 3044TIP3    H130623   4.988   0.590   1.345  2.2255 -1.3756  0.9106
 3044TIP3    H230624   5.097   0.597   1.240  0.5870  1.5496 -0.7099
 3045TIP3   OH230625   5.291   0.667  14.751  0.3126 -0.6369  0.3494
 3045TIP3    H130626   5.268   0.681  14.843  0.0035 -0.0625  0.1911
 3045TIP3    H230627   5.338   0.747  14.726 -0.3021 -0.4400 -0.2067
 3046TIP3   OH230628   2.472   5.205   3.182  0.2235  0.2026 -0.2878
 3046TIP3    H130629   2.522   5.123   3.181  0.4325  0.2765  1.2873
 3046TIP3    H230630   2.497   5.247   3.264 -1.0932  1.0834 -0.3080
 3047TIP3   OH230631   2.133   1.643  17.038 -0.3486  0.1235 -0.4854
 3047TIP3    H130632   2.076   1.668  16.965 -1.7486  0.8078  0.7792
 3047TIP3    H230633   2.105   1.554  17.061  0.8728 -0.5430 -1.4751
 3048TIP3   OH230634   1.266   1.935   5.066  0.0576 -0.2677 -0.1054
 3048TIP3    H130635   1.316   1.872   5.015  1.6556  0.6598  0.2521
 3048TIP3    H230636   1.205   1.973   5.003  0.9216 -0.2596 -0.9625
 3049TIP3   OH230637   0.601   0.013  13.899 -0.1861 -0.1289 -0.0505
 3049TIP3    H130638   0.669   0.022  13.832  0.5506 -3.0383  0.1894
 3049TIP3    H230639   0.573  -0.078  13.894 -3.5986  0.7428  0.4107
 3050TIP3   OH230640   4.375   2.727  15.207  0.0539 -0.2975 -0.0893
 3050TIP3    H130641   4.396   2.719  15.300 -0.2490 -1.1508 -0.0856
 3050TIP3    H230642   4.429   2.660  15.165 -1.1886 -1.1926 -0.3049
 3051TIP3   OH230643   5.538   6.181  11.261  0.4890  0.0669 -0.1362
 3051TIP3    H130644   5.506   6.264  11.298  1.3236  1.1008 -1.6317
 3051TIP3    H230645   5.620   6.165  11.308 -0.4515 -0.8034  1.2939
 3052TIP3   OH230646   5.438   3.138   5.062 -0.1879 -0.0774  0.5657
 3052TIP3    H130647   5.490   3.104   4.989 -0.9940  3.2761 -1.8669
 3052TIP3    H230648   5.359   3.173   5.021 -2.2755 -0.9011  3.5487
 3053TIP3   OH230649   4.622   3.107  14.717  0.0702 -0.3337 -0.2289
 3053TIP3    H130650   4.693   3.146  14.666 -0.6737 -0.0608 -1.0649
 3053TIP3    H230651   4.602   3.172  14.784  0.2944 -0.2223 -0.2693
 3054TIP3   OH230652   0.231   5.565  15.263 -0.3021  0.4545 -0.1610
 3054TIP3    H130653   0.278   5.503  15.318 -0.8324  1.7138  1.7875
 3054TIP3    H230654   0.275   5.558  15.178  2.1594  0.1647  1.0322
 3055TIP3   OH230655   5.916   2.337  10.935  0.1312 -0.3759  0.2396
 3055TIP3    H130656   5.844   2.352  10.996  1.1698  0.6827  1.2477
 3055TIP3    H230657   5.969   2.269  10.976  0.9618  0.5086  0.6694
 3056TIP3   OH230658   1.118   4.211  12.259  0.3432  0.3567  0.2139
 3056TIP3    H130659   1.070   4.129  12.265  0.0456  0.5585  0.6377
 3056TIP3    H230660   1.148   4.229  12.348 -0.4042  1.1755  0.3212
 3057TIP3   OH230661   6.573   4.476   4.446  0.2920  0.1002  0.0606
 3057TIP3    H130662   6.634   4.542   4.411 -0.6889  0.7120 -0.5275
 3057TIP3    H230663   6.571   4.494   4.540 -1.6359  2.4195 -0.3225
 3058TIP3   OH230664   6.328   6.512  16.699  0.3631 -0.2058  0.5124
 3058TIP3    H130665   6.334   6.424  16.660  0.9313  0.5035 -1.0832
 3058TIP3    H230666   6.256   6.554  16.652 -1.1163 -0.3667  2.5130
 3059TIP3   OH230667   5.613   3.210  14.330  0.6451 -0.3727  0.2057
 3059TIP3    H130668   5.549   3.143  14.356  0.4836  0.0417  0.8816
 3059TIP3    H230669   5.623   3.197  14.235 -1.7292  0.6259 -0.2753
 3060TIP3   OH230670   4.588   3.053  13.451 -0.1302  0.3140 -0.5729
 3060TIP3    H130671   4.557   3.123  13.394 -1.6646 -0.3970 -0.6874
 3060TIP3    H230672   4.526   3.053  13.525  0.4994 -0.2025 -0.0291
 3061TIP3   OH230673   1.094   6.081  12.408  1.0517  0.1415  0.0615
 3061TIP3    H130674   1.185   6.107  12.419  1.1668 -0.2504  0.0439
 3061TIP3    H230675   1.066   6.124  12.327  1.6246 -0.8255 -0.6631
 3062TIP3   OH230676   1.106   0.236  12.781  0.5334 -0.7581  0.4717
 3062TIP3    H130677   1.033   0.271  12.729  1.7001  1.0695 -0.0134
 3062TIP3    H230678   1.114   0.145  12.751 -0.8661 -0.6960 -0.2106
 3063TIP3   OH230679   1.990   1.072  15.633  1.2745 -0.9575  0.4916
 3063TIP3    H130680   2.085   1.083  15.638  1.0676  2.2162 -0.1061
 3063TIP3    H230681   1.957   1.109  15.715  0.4917 -0.3488 -0.0810
 3064TIP3   OH230682   2.163   5.254  15.909  0.2277 -0.4727 -0.3524
 3064TIP3    H130683   2.238   5.247  15.850  0.3536 -0.2718 -0.2168
 3064TIP3    H230684   2.089   5.277  15.852  0.2734 -0.6491 -0.4824
 3065TIP3   OH230685   5.346   1.619   1.465  0.4664  0.3029 -0.2264
 3065TIP3    H130686   5.342   1.568   1.383 -1.4097 -0.0854  0.0562
 3065TIP3    H230687   5.431   1.596   1.503  2.2979  1.9400 -2.9194
 3066TIP3   OH230688   4.856   0.296   1.079  0.2218  0.5098 -0.1536
 3066TIP3    H130689   4.876   0.315   0.987  0.6053  3.1609  0.4037
 3066TIP3    H230690   4.786   0.357   1.101 -1.3849 -1.5467  0.8025
 3067TIP3   OH230691   1.286   3.113  15.655 -0.5448 -0.4596 -0.0475
 3067TIP3    H130692   1.193   3.122  15.676 -0.4361 -0.5020  0.4620
 3067TIP3    H230693   1.327   3.084  15.737 -0.2062 -1.2214 -0.4777
 3068TIP3   OH230694   4.225   2.588  12.685  0.2937 -1.6924 -0.5162
 3068TIP3    H130695   4.175   2.559  12.762  1.1308 -0.7598  0.4065
 3068TIP3    H230696   4.202   2.525  12.617 -2.3657 -1.1384 -0.2364
 3069TIP3   OH230697   6.617   1.732   5.073 -0.3340 -0.0263  0.2677
 3069TIP3    H130698   6.599   1.794   5.143 -1.8189  0.7121 -0.7316
 3069TIP3    H230699   6.536   1.682   5.063 -0.1983 -0.0239 -1.0025
 3070TIP3   OH230700   4.913   4.237  16.813  0.2264 -0.4689 -0.2652
 3070TIP3    H130701   4.914   4.176  16.740 -0.3985  0.8577 -1.4213
 3070TIP3    H230702   4.820   4.251  16.831  0.3683 -0.7079  0.7379
 3071TIP3   OH230703   4.248   4.698   5.712 -0.0615  0.1690 -0.4934
 3071TIP3    H130704   4.329   4.721   5.759  0.4377 -0.6268 -0.9372
 3071TIP3    H230705   4.276   4.683   5.622 -0.1674 -2.8127 -0.1482
 3072TIP3   OH230706   1.475   0.129   4.570 -0.0757 -0.0258 -0.3814
 3072TIP3    H130707   1.566   0.158   4.560 -0.7415  1.6107 -2.4094
 3072TIP3    H230708   1.482   0.036   4.593  2.0985  0.1122 -0.2573
 3073TIP3   OH230709   2.592   2.149   0.534  0.5484  0.2018  0.1126
 3073TIP3    H130710   2.649   2.212   0.489  1.8419 -1.0179 -0.0324
 3073TIP3    H230711   2.513   2.145   0.479  0.2805  1.9134  0.3105
 3074TIP3   OH230712   4.910   3.960   1.920 -0.3130  0.1647 -0.1499
 3074TIP3    H130713   4.935   3.970   2.012  0.5493 -0.5620 -0.2877
 3074TIP3    H230714   4.839   4.023   1.907 -0.8442 -0.1372  1.1605
 3075TIP3   OH230715   5.434   3.096  12.063 -0.4638  0.1858  0.0826
 3075TIP3    H130716   5.430   3.014  12.013  0.6384 -0.0643  0.3789
 3075TIP3    H230717   5.507   3.144  12.025 -0.3801  0.5338  0.6700
 3076TIP3   OH230718   4.456   4.289   4.065  0.4111 -0.4173  0.1103
 3076TIP3    H130719   4.512   4.364   4.044  1.2592 -1.4694 -1.6211
 3076TIP3    H230720   4.389   4.290   3.997 -1.2156  0.3202  1.6683
 3077TIP3   OH230721   1.489   5.309   5.044  0.7032 -0.2305 -0.1875
 3077TIP3    H130722   1.544   5.362   4.986  0.8886 -0.5858 -0.3354
 3077TIP3    H230723   1.474   5.228   4.995  0.2861 -0.2531 -0.0275
 3078TIP3   OH230724   2.092   4.530  11.305  0.1866 -0.2947  0.6460
 3078TIP3    H130725   2.078   4.560  11.215  0.5297  0.2903  0.7784
 3078TIP3    H230726   2.007   4.541  11.347  0.0916 -0.3130  0.4592
 3079TIP3   OH230727   5.682   3.910   2.511  0.9155  0.0820  0.1100
 3079TIP3    H130728   5.694   3.987   2.567  1.9765 -1.0592  1.5175
 3079TIP3    H230729   5.637   3.846   2.566 -0.0313 -0.3076 -1.0695
 3080TIP3   OH230730   5.502   4.174   4.824 -0.2108 -0.0936 -0.3476
 3080TIP3    H130731   5.518   4.088   4.785 -1.6772  0.2413 -1.8305
 3080TIP3    H230732   5.413   4.196   4.796  1.1001  3.1756 -2.5970
 3081TIP3   OH230733   1.429   0.658  13.914  0.3645 -0.3159  0.0277
 3081TIP3    H130734   1.335   0.671  13.901  0.0985 -0.7361  1.3529
 3081TIP3    H230735   1.435   0.596  13.987  1.6717 -0.6320 -0.3139
 3082TIP3   OH230736   1.188   1.430  11.846 -0.1974  0.1479  0.0823
 3082TIP3    H130737   1.137   1.452  11.768  0.2816  0.8242 -0.0473
 3082TIP3    H230738   1.215   1.339  11.832 -1.1492 -0.1404  0.0413
 3083TIP3   OH230739   4.961   3.490  14.512 -0.1129 -0.1715 -0.2799
 3083TIP3    H130740   4.939   3.536  14.432 -0.4761 -0.0390 -0.1068
 3083TIP3    H230741   4.891   3.513  14.573 -1.2739 -2.2687 -0.7063
 3084TIP3   OH230742   2.321   3.155  10.947  0.1772  0.0118  0.2142
 3084TIP3    H130743   2.225   3.162  10.949  0.2509  1.4524 -0.4746
 3084TIP3    H230744   2.337   3.063  10.925 -1.0687 -0.0069 -0.7550
 3085TIP3   OH230745   6.620   4.061   1.443 -0.1548 -0.5703  0.1736
 3085TIP3    H130746   6.685   3.999   1.411 -0.1971  1.1315 -3.6567
 3085TIP3    H230747   6.564   4.080   1.368 -2.4740  1.3252  2.1653
 3086TIP3   OH230748   0.860   4.586  15.246  0.0031 -0.4055  0.0759
 3086TIP3    H130749   0.786   4.574  15.305  0.3873 -1.3050  0.4013
 3086TIP3    H230750   0.876   4.498  15.209  0.0896  0.0380 -0.9767
 3087TIP3   OH230751   2.134   5.642   4.437  0.0224  0.0580 -0.1440
 3087TIP3    H130752   2.119   5.717   4.495 -0.0575  1.8426 -2.2888
 3087TIP3    H230753   2.120   5.678   4.349  1.2781 -2.1986 -1.3497
 3088TIP3   OH230754   2.536   2.460  14.171 -0.4502 -0.0048  0.2532
 3088TIP3    H130755   2.458   2.479  14.224 -1.4402 -0.0904 -1.1239
 3088TIP3    H230756   2.540   2.364  14.168 -1.8935 -0.0618 -1.8588
 3089TIP3   OH230757   2.893   5.272  13.254  0.3783 -0.0888 -0.0510
 3089TIP3    H130758   2.980   5.233  13.253  0.8687  0.9727 -0.3233
 3089TIP3    H230759   2.907   5.362  13.225 -0.6401  0.4289  0.9777
 3090TIP3   OH230760   5.889   3.906   1.631  0.2667 -0.2335 -0.0890
 3090TIP3    H130761   5.838   3.827   1.648  2.2973 -1.4026  0.9095
 3090TIP3    H230762   5.969   3.875   1.589  0.5786  1.4505 -0.8338
 3091TIP3   OH230763   3.592   6.195   6.368 -0.1117 -0.3062 -0.6911
 3091TIP3    H130764   3.599   6.105   6.399  1.8824  0.0778  0.1640
 3091TIP3    H230765   3.500   6.218   6.378  0.0548 -0.7916  3.3968
 3092TIP3   OH230766   2.698   2.090   2.006  0.4050  0.0440  0.2200
 3092TIP3    H130767   2.714   2.031   1.932  2.8529 -1.8906  2.0738
 3092TIP3    H230768   2.633   2.044   2.059  0.8227 -0.0083  0.6876
 3093TIP3   OH230769   1.893   6.204   0.141  0.4918  0.8006  0.1155
 3093TIP3    H130770   1.912   6.253   0.061  2.3483  0.3191  0.2150
 3093TIP3    H230771   1.856   6.270   0.201  3.3850  2.3033  0.4302
 3094TIP3   OH230772   0.600   0.144   5.951 -0.1446  0.3915 -0.3877
 3094TIP3    H130773   0.519   0.196   5.948  0.5882  1.7002  1.2351
 3094TIP3    H230774   0.670   0.208   5.954  0.7730 -0.5697  2.5975
 3095TIP3   OH230775   5.328   4.638  13.477 -0.6278 -0.1413 -0.5735
 3095TIP3    H130776   5.260   4.585  13.518  1.8979 -1.7825  1.8684
 3095TIP3    H230777   5.334   4.716  13.532  0.9765 -1.1145  0.7135
 3096TIP3   OH230778   4.057   6.310  13.096 -0.0514  0.5850  0.0827
 3096TIP3    H130779   4.025   6.316  13.186  2.5312  1.9658  1.0069
 3096TIP3    H230780   4.087   6.398  13.075  0.7926 -0.0546 -1.5683
 3097TIP3   OH230781   1.279   4.199   1.902  0.2095 -0.1154 -0.4045
 3097TIP3    H130782   1.317   4.205   1.814  1.3307 -1.4045 -0.0559
 3097TIP3    H230783   1.202   4.142   1.891  0.9059 -1.0865 -0.4223
 3098TIP3   OH230784   0.961   3.374   3.243 -0.6565 -0.4814  0.5404
 3098TIP3    H130785   0.911   3.456   3.246  0.4383  0.3283 -1.4577
 3098TIP3    H230786   1.006   3.370   3.327 -2.2709 -0.0746  1.4641
 3099TIP3   OH230787   0.172   1.951  12.186  0.2462  0.0489  0.1237
 3099TIP3    H130788   0.118   2.014  12.234 -1.7747 -1.2345 -0.3377
 3099TIP3    H230789   0.150   1.965  12.094 -0.2567 -1.2872  0.0072
 3100TIP3   OH230790   2.177   6.431   2.606  0.4890 -0.1318 -0.5536
 3100TIP3    H130791   2.171   6.351   2.553 -3.9280 -1.4591  1.4383
 3100TIP3    H230792   2.114   6.491   2.565  0.0350  0.3668  0.8261
 3101TIP3   OH230793   5.817   2.626  13.844 -0.2276 -0.1451 -0.5124
 3101TIP3    H130794   5.858   2.696  13.792 -0.5641 -1.0136 -2.0106
 3101TIP3    H230795   5.745   2.668  13.889 -0.0212  0.6182 -0.8782
 3102TIP3   OH230796   2.475   0.738   1.994  0.1672  0.0670  0.3274
 3102TIP3    H130797   2.456   0.709   2.083 -0.5178 -0.1479  0.1166
 3102TIP3    H230798   2.563   0.704   1.976 -1.1480 -3.2428 -0.4565
 3103TIP3   OH230799   1.326   4.568   2.081  0.7447  0.1861  0.0083
 3103TIP3    H130800   1.314   4.474   2.097 -0.5997  0.4392  0.6217
 3103TIP3    H230801   1.418   4.584   2.104  0.7707 -0.8232  0.7071
 3104TIP3   OH230802   3.739   4.610  14.319  0.3536  0.7496 -0.1164
 3104TIP3    H130803   3.785   4.574  14.395 -0.8051  0.2449  0.3682
 3104TIP3    H230804   3.756   4.548  14.249  1.0522  0.9783 -0.1550
 3105TIP3   OH230805   5.668   2.285  17.206 -0.7260  0.2314  0.2886
 3105TIP3    H130806   5.659   2.333  17.289  2.3461 -0.8829  1.4239
 3105TIP3    H230807   5.656   2.193  17.230  1.1378 -0.1890 -0.2371
 3106TIP3   OH230808   4.456   2.962   0.622 -0.1977  0.1009  0.1123
 3106TIP3    H130809   4.422   2.874   0.637 -0.0686 -0.0994 -0.7080
 3106TIP3    H230810   4.551   2.953   0.635  0.0523 -0.3158 -1.7572
 3107TIP3   OH230811   1.195   2.970   2.751 -0.0111 -0.3102  0.1674
 3107TIP3    H130812   1.198   2.986   2.845  1.9488 -0.9094  0.2422
 3107TIP3    H230813   1.142   3.042   2.716 -1.4821 -0.5547  1.7918
 3108TIP3   OH230814   5.359   1.460   0.054 -0.3336  0.3867  0.1658
 3108TIP3    H130815   5.342   1.553   0.042 -2.5902  0.3066  2.0297
 3108TIP3    H230816   5.423   1.457   0.126  1.1359  0.4630 -1.0697
 3109TIP3   OH230817   2.242   2.169  14.777 -0.1298 -0.2360  0.5153
 3109TIP3    H130818   2.300   2.147  14.703 -2.9329 -0.7150 -1.7249
 3109TIP3    H230819   2.216   2.084  14.813 -0.1708 -0.0627  0.8958
 3110TIP3   OH230820   0.512   0.153   3.284  0.3745 -0.2875  0.4498
 3110TIP3    H130821   0.422   0.153   3.249  0.3689 -0.5124  0.4661
 3110TIP3    H230822   0.552   0.075   3.246  0.2440 -0.7648  1.2791
 3111TIP3   OH230823   4.192   3.211   3.168  0.7742  0.0856 -0.4858
 3111TIP3    H130824   4.201   3.118   3.147  0.4964  0.1581 -0.9399
 3111TIP3    H230825   4.151   3.250   3.090 -2.4480 -0.0326  1.0068
 3112TIP3   OH230826   3.312   6.388  15.298  0.2175  0.3246 -0.8119
 3112TIP3    H130827   3.323   6.483  15.294 -1.5897  0.5738 -0.6918
 3112TIP3    H230828   3.305   6.361  15.206  0.6201  0.3242 -0.8416
 3113TIP3   OH230829   4.848   3.173  14.220  0.3663 -0.4004  0.5993
 3113TIP3    H130830   4.936   3.167  14.183 -0.5717 -1.1438 -1.6656
 3113TIP3    H230831   4.817   3.260  14.195  0.1641 -0.4355  0.7256
 3114TIP3   OH230832   1.235   0.972   0.284  0.4556  0.1409  0.5091
 3114TIP3    H130833   1.241   1.067   0.287  0.8529  0.1485 -0.1565
 3114TIP3    H230834   1.319   0.944   0.246  0.5151 -0.4993  1.0946
 3115TIP3   OH230835   5.692   0.052  12.098  0.1977 -0.1282  0.2712
 3115TIP3    H130836   5.774   0.076  12.055  0.2977  1.0426  1.0581
 3115TIP3    H230837   5.632   0.031  12.027  1.2907 -1.4763 -0.3084
 3116TIP3   OH230838   5.451   1.998   2.543  0.2729  0.4572 -0.0501
 3116TIP3    H130839   5.378   2.050   2.510 -0.8644 -0.1315  1.4428
 3116TIP3    H230840   5.421   1.907   2.535  0.2636  0.2655  1.7958
 3117TIP3   OH230841   3.896   1.071   5.148 -0.1563 -0.2860  0.2139
 3117TIP3    H130842   3.927   0.990   5.109  1.1266  0.7037 -0.9154
 3117TIP3    H230843   3.801   1.058   5.157 -0.5853 -0.6053 -3.3361
 3118TIP3   OH230844   3.971   5.409   2.755 -0.8020  0.1571 -0.7382
 3118TIP3    H130845   3.932   5.322   2.752  0.5086 -0.4710 -0.5177
 3118TIP3    H230846   4.015   5.419   2.670 -1.7326  1.0018 -1.1350
 3119TIP3   OH230847   1.585   4.985  11.800  0.9544  0.1099  0.1549
 3119TIP3    H130848   1.584   5.069  11.753 -0.2591 -0.0310 -0.0949
 3119TIP3    H230849   1.526   4.999  11.874 -0.0246 -0.8363 -0.4370
 3120TIP3   OH230850   3.054   2.992   0.914  0.4375 -0.2149 -0.2665
 3120TIP3    H130851   2.989   3.050   0.952  1.7371  1.0112  0.1728
 3120TIP3    H230852   3.079   3.034   0.831  2.1942  0.5199  0.5744
 3121TIP3   OH230853   1.207   2.219   4.804 -0.0991  0.0531  0.2972
 3121TIP3    H130854   1.217   2.141   4.751  1.7400 -0.0144  0.6751
 3121TIP3    H230855   1.284   2.273   4.783 -1.9191  2.4072 -0.9237
 3122TIP3   OH230856   5.353   6.658  13.868  0.1756 -0.4406 -0.0728
 3122TIP3    H130857   5.396   6.709  13.799 -2.7488  0.8522 -1.0765
 3122TIP3    H230858   5.329   6.723  13.934  0.2574 -1.2296  0.7535
 3123TIP3   OH230859   6.818   3.243   2.864  0.2597  0.0129 -0.1122
 3123TIP3    H130860   6.815   3.211   2.954 -0.3330 -1.2151 -0.5455
 3123TIP3    H230861   6.900   3.293   2.859  1.3333 -1.6058  0.5595
 3124TIP3   OH230862   3.798   1.409   0.060  0.3437 -0.5102 -0.0141
 3124TIP3    H130863   3.822   1.320   0.034  1.0479 -0.2636 -0.2423
 3124TIP3    H230864   3.762   1.449  -0.019  0.9528 -0.2826 -0.1814
 3125TIP3   OH230865   0.741   1.021   2.711  0.0814 -0.2042  0.4162
 3125TIP3    H130866   0.817   1.069   2.743 -0.7749  0.4462  1.5488
 3125TIP3    H230867   0.778   0.946   2.665  1.4286 -0.7137  2.2061
 3126TIP3   OH230868   4.792   4.572  15.180 -0.0137 -0.6533 -0.2042
 3126TIP3    H130869   4.861   4.541  15.238  1.5688  1.1822 -0.9954
 3126TIP3    H230870   4.735   4.625  15.236  1.4221  0.9862 -0.2003
 3127TIP3   OH230871   2.066   3.478  14.057  0.4110 -0.1950 -0.5450
 3127TIP3    H130872   2.024   3.504  14.139  0.3512  1.1366 -0.9838
 3127TIP3    H230873   2.148   3.436  14.085 -1.3762 -3.4594  0.3534
 3128TIP3   OH230874   2.051   5.844   4.580 -0.5043  0.6090  0.6578
 3128TIP3    H130875   2.026   5.924   4.535 -1.2803 -0.1805 -0.3423
 3128TIP3    H230876   1.992   5.838   4.655 -0.9438  0.5871  0.3086
 3129TIP3   OH230877   4.383   4.725   4.048 -0.6466 -0.1029 -0.2652
 3129TIP3    H130878   4.318   4.657   4.067  0.8917 -1.7290 -0.6331
 3129TIP3    H230879   4.465   4.678   4.035  0.1966  1.6920 -2.0293
 3130TIP3   OH230880   1.611   0.919   2.531 -0.0667 -0.1639  0.0388
 3130TIP3    H130881   1.596   0.891   2.441 -0.2624 -0.1006  0.0508
 3130TIP3    H230882   1.637   0.839   2.577 -1.2127 -0.4515  0.2058
 3131TIP3   OH230883   6.511   2.025   4.376 -0.1242  0.4552 -0.0441
 3131TIP3    H130884   6.483   2.096   4.318 -1.0418  0.6723  0.6510
 3131TIP3    H230885   6.590   1.989   4.334 -0.0508  1.4305 -0.7559
 3132TIP3   OH230886   3.847   6.028   1.342  1.0165 -0.2757  0.3773
 3132TIP3    H130887   3.862   5.948   1.394  1.8617 -0.1367  0.3711
 3132TIP3    H230888   3.772   6.070   1.384  2.1746  0.2540  2.0375
 3133TIP3   OH230889   3.737   1.073   3.338 -0.0015 -0.4450  0.1326
 3133TIP3    H130890   3.776   0.990   3.310 -0.6707 -0.9018  0.5373
 3133TIP3    H230891   3.719   1.061   3.432 -1.4304 -0.3744 -0.1143
 3134TIP3   OH230892   5.200   5.550  11.756 -0.2726  0.1094 -0.2666
 3134TIP3    H130893   5.194   5.644  11.740 -0.0561  0.1832  0.0894
 3134TIP3    H230894   5.250   5.542  11.837 -2.8854 -0.1863  1.4328
 3135TIP3   OH230895   0.887   2.623   1.750 -0.0559  0.1676  0.1083
 3135TIP3    H130896   0.933   2.588   1.827 -0.6445 -0.5861  0.1353
 3135TIP3    H230897   0.952   2.677   1.706  1.7262 -2.8044 -1.2418
 3136TIP3   OH230898   3.748   1.701  15.420  0.2837 -0.1843 -0.2145
 3136TIP3    H130899   3.775   1.609  15.423 -0.8587 -0.5440 -0.2781
 3136TIP3    H230900   3.724   1.715  15.328 -0.6010 -0.1633  0.0047
 3137TIP3   OH230901   1.428   6.217  14.877  0.3934 -0.3918 -0.3241
 3137TIP3    H130902   1.354   6.267  14.912  2.1399  2.0605  0.1494
 3137TIP3    H230903   1.450   6.156  14.947  1.2949  1.7016  1.3606
 3138TIP3   OH230904   1.161   3.461   1.731  0.2832  0.1193 -0.1551
 3138TIP3    H130905   1.189   3.459   1.822  1.6295  1.3826 -0.5027
 3138TIP3    H230906   1.079   3.510   1.732 -0.5126 -1.1681  0.5317
 3139TIP3   OH230907   2.732   5.761   5.089  0.7558  0.1296 -0.1150
 3139TIP3    H130908   2.715   5.714   5.008 -0.1940 -0.9188  0.6694
 3139TIP3    H230909   2.805   5.819   5.068  0.2822  0.1570 -1.8158
 3140TIP3   OH230910   4.317   5.424  14.141  0.4663 -0.0054 -0.3790
 3140TIP3    H130911   4.381   5.469  14.197  0.5670  0.6705 -1.0224
 3140TIP3    H230912   4.265   5.372  14.202  1.1417  0.0213  0.2436
 3141TIP3   OH230913   1.743   0.400   1.756 -0.7534  0.4994 -0.1583
 3141TIP3    H130914   1.649   0.387   1.750 -0.9164  2.0410 -1.3743
 3141TIP3    H230915   1.753   0.490   1.787  0.3208  0.4144 -0.2157
 3142TIP3   OH230916   1.112   4.101   1.160 -0.0102 -0.4867 -0.0240
 3142TIP3    H130917   1.080   4.136   1.077  2.3391 -0.3242 -0.9393
 3142TIP3    H230918   1.118   4.177   1.217  2.3420  0.2152 -1.0981
 3143TIP3   OH230919   2.069   2.865  11.676  0.6302 -0.3220  0.1793
 3143TIP3    H130920   2.076   2.865  11.581  0.0832  0.1203  0.1338
 3143TIP3    H230921   2.156   2.890  11.707  0.0283  2.7716 -0.3021
 3144TIP3   OH230922   1.368   3.313  16.297 -0.0014  0.1370 -0.1355
 3144TIP3    H130923   1.396   3.316  16.205  0.7594 -1.3215  0.0071
 3144TIP3    H230924   1.444   3.347  16.346  0.2337 -0.6178  0.0395
 3145TIP3   OH230925   3.231   3.990   1.894  0.1279  0.3514  0.1258
 3145TIP3    H130926   3.177   4.041   1.954  0.4778  0.0360  0.7138
 3145TIP3    H230927   3.260   3.914   1.945  2.6610  1.4379  0.4441
 3146TIP3   OH230928   4.003   4.199   5.126  0.1238  0.1319  0.1789
 3146TIP3    H130929   4.045   4.268   5.075 -1.5240  1.0383 -0.0332
 3146TIP3    H230930   3.980   4.241   5.209 -0.5077 -0.2666  0.2159
 3147TIP3   OH230931   5.639   6.645  11.247  0.1414  0.2559  0.0806
 3147TIP3    H130932   5.664   6.701  11.174  0.4975  0.7359  0.5603
 3147TIP3    H230933   5.605   6.705  11.313 -1.3219 -0.2954 -0.1522
 3148TIP3   OH230934   2.773   1.199  12.840  0.0762  0.2249 -0.3128
 3148TIP3    H130935   2.757   1.162  12.927 -0.5686  0.2249 -0.4297
 3148TIP3    H230936   2.705   1.266  12.829 -1.7257 -1.7494 -1.9898
 3149TIP3   OH230937   1.328   2.278  11.804 -0.0906 -0.2901 -0.3907
 3149TIP3    H130938   1.272   2.223  11.860  0.0762 -1.1924 -1.0934
 3149TIP3    H230939   1.294   2.366  11.816 -0.0037 -0.4460  1.2064
 3150TIP3   OH230940   0.510   5.369  12.070  0.0532 -0.3699  0.2248
 3150TIP3    H130941   0.479   5.296  12.017  2.1801 -1.5933  0.5895
 3150TIP3    H230942   0.558   5.425  12.009  1.3240 -1.0690  0.5487
 3151TIP3   OH230943   5.404   5.219  16.596 -0.1129  0.7464 -0.0754
 3151TIP3    H130944   5.467   5.201  16.666 -2.5379  0.3117  2.1302
 3151TIP3    H230945   5.366   5.133  16.576  1.5622  0.5886 -3.0971
 3152TIP3   OH230946   0.293   0.775  14.495  0.7622  0.2610  0.3761
 3152TIP3    H130947   0.273   0.731  14.413 -1.2672 -1.8836  1.8918
 3152TIP3    H230948   0.306   0.705  14.558  0.3556  1.8197  2.3108
 3153TIP3   OH230949   0.213   1.754  13.145 -0.1699  0.0923  0.1212
 3153TIP3    H130950   0.203   1.849  13.139  1.3548  0.2829  0.1955
 3153TIP3    H230951   0.235   1.738  13.237 -1.4257 -0.4596  0.3479
 3154TIP3   OH230952   2.999   5.503   1.745 -0.1816  0.1712  0.3641
 3154TIP3    H130953   2.926   5.521   1.804  0.7086  1.2003  1.1885
 3154TIP3    H230954   3.041   5.425   1.781 -0.1321  0.3192  0.6297
 3155TIP3   OH230955   5.070   1.153  14.110 -0.8905 -0.2713 -0.2372
 3155TIP3    H130956   5.072   1.245  14.084 -2.0948  0.3885  1.7322
 3155TIP3    H230957   5.004   1.113  14.053 -2.3862  0.7643  0.7030
 3156TIP3   OH230958   5.324   2.983  12.974 -0.4141 -0.5319 -0.1732
 3156TIP3    H130959   5.325   3.033  12.892 -1.1563 -0.9081 -0.4269
 3156TIP3    H230960   5.299   2.895  12.947 -0.9218 -0.5989  0.4830
 3157TIP3   OH230961   5.670   4.495  16.776  0.1607  0.0011 -0.1876
 3157TIP3    H130962   5.635   4.410  16.801  2.3017 -1.2407 -1.1460
 3157TIP3    H230963   5.633   4.556  16.841 -3.3937 -1.1363 -0.9417
 3158TIP3   OH230964   6.636   3.913   2.377  0.1872 -0.0412  0.9829
 3158TIP3    H130965   6.578   3.939   2.305 -1.0557 -1.1041  1.5754
 3158TIP3    H230966   6.646   3.819   2.368  2.3752  0.1825  0.5334
 3159TIP3   OH230967   5.475   4.123   2.781 -0.0258 -0.4101 -0.4558
 3159TIP3    H130968   5.516   4.045   2.817 -0.6805 -0.5012  0.1123
 3159TIP3    H230969   5.387   4.095   2.753  0.1767 -0.1572 -1.4031
 3160TIP3   OH230970   1.424   5.041   0.482 -0.0041  0.4395 -0.4538
 3160TIP3    H130971   1.363   4.990   0.535  1.9756 -1.4022  0.1917
 3160TIP3    H230972   1.379   5.124   0.468 -1.7645 -0.0281  1.7608
 3161TIP3   OH230973   3.569   1.683   2.929 -0.4976  0.3872 -0.3904
 3161TIP3    H130974   3.507   1.705   2.998  0.5510  0.7623  0.4599
 3161TIP3    H230975   3.637   1.632   2.973  0.2785  0.7737 -1.1052
 3162TIP3   OH230976   4.341   1.920  13.986  0.4359  0.0563 -0.2931
 3162TIP3    H130977   4.307   2.005  14.015 -0.5223 -0.5791  0.5040
 3162TIP3    H230978   4.347   1.928  13.891 -2.1329  0.1789 -0.5112
 3163TIP3   OH230979   3.158   4.901  16.389  0.4134  0.0022  0.2501
 3163TIP3    H130980   3.144   4.989  16.353 -1.0165  0.2007  1.1919
 3163TIP3    H230981   3.244   4.875  16.357  0.5236  1.4242 -0.6987
 3164TIP3   OH230982   1.276   0.986  13.601 -0.4932  0.4078 -0.3813
 3164TIP3    H130983   1.299   0.926  13.529 -2.3194 -1.6832  0.6731
 3164TIP3    H230984   1.349   0.978  13.663  0.1157  0.6659 -1.0498
 3165TIP3   OH230985   2.876   5.277  16.045  0.1998  0.1669  0.0346
 3165TIP3    H130986   2.801   5.323  16.006 -0.3599  0.7266  1.6988
 3165TIP3    H230987   2.922   5.345  16.095  1.0649 -0.4682  0.1107
 3166TIP3   OH230988   2.974   3.080  16.920  0.0079  0.0333  0.3926
 3166TIP3    H130989   3.061   3.121  16.929 -0.4116  0.6480  1.9620
 3166TIP3    H230990   2.934   3.091  17.006 -1.4349 -0.7214 -0.1615
 3167TIP3   OH230991   3.371   1.499   5.616  0.1891  0.1064 -0.3568
 3167TIP3    H130992   3.337   1.551   5.688 -0.2246  1.2208 -1.3174
 3167TIP3    H230993   3.297   1.487   5.557  0.3683 -1.2932 -0.3394
 3168TIP3   OH230994   1.946   5.615   0.321 -0.0669  0.0455 -0.5524
 3168TIP3    H130995   2.023   5.648   0.367 -0.7822  0.5338  0.3279
 3168TIP3    H230996   1.956   5.520   0.323 -0.2699  0.0297  0.9869
 3169TIP3   OH230997   6.296   5.986  10.690  0.5613  0.7831  0.4425
 3169TIP3    H130998   6.202   5.983  10.709  0.4095  1.4366 -0.1622
 3169TIP3    H230999   6.335   5.925  10.753 -0.3417 -0.0967  0.1651
 3170TIP3   OH231000   6.210   3.980   4.107  0.0538  0.1510 -0.1213
 3170TIP3    H131001   6.174   3.891   4.108 -2.2799  0.9727  2.2507
 3170TIP3    H231002   6.166   4.023   4.034 -3.5633  0.8741  2.1921
 3171TIP3   OH231003   4.828   0.713  13.432 -0.0408 -0.4017 -0.2592
 3171TIP3    H131004   4.739   0.715  13.468 -0.7801 -2.4175 -1.7639
 3171TIP3    H231005   4.818   0.746  13.342  0.9505  0.3544 -0.1066
 3172TIP3   OH231006   2.830   5.987  12.717 -0.0391  0.2245 -0.3083
 3172TIP3    H131007   2.813   5.899  12.683 -2.9723  0.5160  0.2172
 3172TIP3    H231008   2.825   5.977  12.812  1.0041  0.7495 -0.1797
 3173TIP3   OH231009   5.460   3.609  15.477  0.3725 -0.0328 -0.2914
 3173TIP3    H131010   5.500   3.696  15.476 -0.7687  0.5018 -1.3586
 3173TIP3    H231011   5.437   3.591  15.386 -1.5859 -0.3969  0.2118
 3174TIP3   OH231012   6.389   5.918   6.001  0.2947  0.0341 -0.1749
 3174TIP3    H131013   6.305   5.914   5.955 -0.1655  3.0303  0.2411
 3174TIP3    H231014   6.378   5.861   6.077 -0.1213 -2.2460 -1.8242
 3175TIP3   OH231015   4.363   3.507  11.010 -0.3299  0.0758 -0.2745
 3175TIP3    H131016   4.345   3.572  10.941 -0.1187  0.0155 -0.3861
 3175TIP3    H231017   4.290   3.516  11.071 -0.3519  0.3533 -0.3408
 3176TIP3   OH231018   3.094   4.987   0.089 -0.1870 -0.2158  0.4184
 3176TIP3    H131019   3.170   4.929   0.076  1.3891  1.4640  1.6294
 3176TIP3    H231020   3.073   5.019   0.001  1.7853  0.7671  0.2520
 3177TIP3   OH231021   6.383   4.482  16.406 -0.5933 -0.2960  0.2773
 3177TIP3    H131022   6.384   4.544  16.333 -0.2528  0.7766  1.1675
 3177TIP3    H231023   6.437   4.409  16.376  0.3909  0.5840 -0.1693
 3178TIP3   OH231024   5.702   0.212  16.598 -0.7002 -0.2493 -0.3590
 3178TIP3    H131025   5.760   0.161  16.655 -0.4187  0.3507 -0.1025
 3178TIP3    H231026   5.727   0.303  16.613 -1.4198 -0.0096 -0.5745
 3179TIP3   OH231027   4.988   3.802  12.880  0.6029 -0.0279 -0.7228
 3179TIP3    H131028   4.929   3.871  12.852  0.9339 -0.0169 -1.4157
 3179TIP3    H231029   4.936   3.749  12.940 -0.4389 -0.5779 -2.0565
 3180TIP3   OH231030   4.440   3.949  14.792 -0.1703 -0.2834 -0.3269
 3180TIP3    H131031   4.505   3.994  14.846 -0.4193 -0.4240  0.0978
 3180TIP3    H231032   4.425   4.008  14.718  1.9010 -1.1009 -1.4944
 3181TIP3   OH231033   6.036   4.512   2.768 -0.3417  0.4288 -0.0697
 3181TIP3    H131034   6.079   4.476   2.845 -1.2498  0.4126  0.4461
 3181TIP3    H231035   6.103   4.566   2.726  0.6405 -0.7981 -0.1361
 3182TIP3   OH231036   2.888   1.973   4.102  0.0896 -0.2052 -0.9489
 3182TIP3    H131037   2.822   2.031   4.139  1.5520  1.3955 -0.6999
 3182TIP3    H231038   2.842   1.925   4.033 -1.4469  0.4341 -0.4076
 3183TIP3   OH231039   3.405   1.668   4.989 -0.6329 -0.3004 -0.4748
 3183TIP3    H131040   3.477   1.730   4.974  1.9799 -3.1847 -0.8260
 3183TIP3    H231041   3.373   1.648   4.901  1.0651 -2.1197 -0.7455
 3184TIP3   OH231042   3.346   0.759   4.117  0.0411  0.0735 -0.1079
 3184TIP3    H131043   3.280   0.690   4.105  0.7472 -1.0930  2.1427
 3184TIP3    H231044   3.297   0.840   4.106 -1.2777 -0.7741 -0.7769
 3185TIP3   OH231045   4.222   5.448   2.918 -0.4095  0.0025  0.3146
 3185TIP3    H131046   4.147   5.419   2.866  0.6820 -3.4768  0.4920
 3185TIP3    H231047   4.266   5.512   2.862 -1.0540 -1.2387 -1.7023
 3186TIP3   OH231048   6.227   2.842  16.982  0.5034 -0.4432 -0.0716
 3186TIP3    H131049   6.261   2.918  17.029 -1.3503  0.1520  0.3958
 3186TIP3    H231050   6.285   2.833  16.906 -0.2247  2.5866 -1.1477
 3187TIP3   OH231051   2.997   0.855  14.817  0.0976  0.0589  0.1482
 3187TIP3    H131052   2.999   0.883  14.725 -0.8001  3.0383  0.9310
 3187TIP3    H231053   3.030   0.931  14.866 -1.5024 -0.6364  2.4387
 3188TIP3   OH231054   3.468   0.388   4.761 -0.2769 -0.2591  0.1567
 3188TIP3    H131055   3.474   0.304   4.716  1.3185  0.0938 -0.3506
 3188TIP3    H231056   3.459   0.452   4.691 -1.2133  0.0371  0.5304
 3189TIP3   OH231057   2.561   2.746  15.666 -0.0677 -0.2141 -0.2079
 3189TIP3    H131058   2.470   2.776  15.663  0.1550  0.4169 -0.7585
 3189TIP3    H231059   2.614   2.825  15.658  0.5962 -0.2496  2.6883
 3190TIP3   OH231060   5.352   2.636  12.992 -0.3314  0.4360 -0.3422
 3190TIP3    H131061   5.282   2.613  13.054 -0.8683  2.1746 -0.2591
 3190TIP3    H231062   5.431   2.643  13.047  0.1321 -2.1615 -0.5249
 3191TIP3   OH231063   1.327   6.771   6.104 -0.0329 -0.7599  0.5044
 3191TIP3    H131064   1.399   6.822   6.140  0.2113 -1.0305  0.4104
 3191TIP3    H231065   1.273   6.749   6.179 -0.2060 -0.2565  0.5254
 3192TIP3   OH231066   5.901   5.037   3.772  0.2716  0.2465 -0.5608
 3192TIP3    H131067   5.818   5.028   3.818  1.1059 -0.5898  0.8424
 3192TIP3    H231068   5.876   5.050   3.680 -1.3907 -0.3711 -0.2329
 3193TIP3   OH231069   6.743   3.282  11.722  0.0849 -0.4302  0.4054
 3193TIP3    H131070   6.725   3.189  11.731  0.5869 -0.5474  0.2226
 3193TIP3    H231071   6.789   3.306  11.802  0.3607 -0.4425  0.2530
 3194TIP3   OH231072   5.367   1.782   0.964 -0.5977  0.0608  0.3786
 3194TIP3    H131073   5.461   1.773   0.979 -0.3359 -0.4210 -1.2895
 3194TIP3    H231074   5.336   1.692   0.955 -0.7971  0.2592 -1.1986
 3195TIP3   OH231075   4.654   0.636   3.207  0.3092 -0.5325 -0.1019
 3195TIP3    H131076   4.579   0.691   3.231  0.1153 -0.2533 -1.2672
 3195TIP3    H231077   4.678   0.592   3.288 -1.8377 -1.5097  0.0888
 3196TIP3   OH231078   6.632   4.793  14.743  0.6681  0.3991 -0.5197
 3196TIP3    H131079   6.655   4.702  14.760 -0.5849  0.2764  0.6722
 3196TIP3    H231080   6.599   4.793  14.653 -1.5799 -0.8424  0.2073
 3197TIP3   OH231081   3.566   0.653   3.620 -0.3332  0.4316  0.3879
 3197TIP3    H131082   3.484   0.688   3.657  0.5785  1.8944  1.1376
 3197TIP3    H231083   3.541   0.569   3.581 -2.1158  0.6730  0.9083
 3198TIP3   OH231084   3.459   2.060   0.857 -0.2699 -0.2090  0.5888
 3198TIP3    H131085   3.494   2.079   0.944  0.0746  1.1353  0.1884
 3198TIP3    H231086   3.438   2.146   0.821 -3.9975 -0.8820  0.7590
 3199TIP3   OH231087   0.866   3.053  13.671  0.6087  0.2900 -0.1067
 3199TIP3    H131088   0.805   2.979  13.676 -0.7499  1.0891 -2.8932
 3199TIP3    H231089   0.940   3.020  13.621  0.6348  0.4346 -0.1635
 3200TIP3   OH231090   5.437   6.601   5.834 -0.0698  0.8161  0.4546
 3200TIP3    H131091   5.387   6.601   5.915  0.4296 -0.4728  0.7875
 3200TIP3    H231092   5.487   6.683   5.837  0.2627  0.5915  1.6656
 3201TIP3   OH231093   0.400   2.552   0.469  0.0982  0.1577 -0.5229
 3201TIP3    H131094   0.380   2.626   0.412  2.1804  0.2744 -1.1656
 3201TIP3    H231095   0.344   2.481   0.435 -0.6465  0.9442 -0.9939
 3202TIP3   OH231096   1.580   1.471   1.391 -0.1514  0.2418 -0.2820
 3202TIP3    H131097   1.602   1.392   1.342  0.8923  0.5189 -0.2760
 3202TIP3    H231098   1.511   1.444   1.451  0.1648 -0.6492 -0.3175
 3203TIP3   OH231099   3.668   4.097   2.364 -0.1501  0.2618  0.0452
 3203TIP3    H131100   3.693   4.006   2.348 -3.0741 -0.4645 -0.9745
 3203TIP3    H231101   3.750   4.146   2.353  0.9281 -1.8610 -2.9200
 3204TIP3   OH231102   5.530   1.612  15.194  0.4057 -0.8287  0.5745
 3204TIP3    H131103   5.465   1.675  15.162 -0.8266 -1.3353  2.0327
 3204TIP3    H231104   5.597   1.667  15.235 -0.0955 -0.4126  0.8436
 3205TIP3   OH231105   2.366   5.787   0.750  0.1273 -0.3099  0.2997
 3205TIP3    H131106   2.360   5.775   0.655  0.7951 -1.5486  0.3897
 3205TIP3    H231107   2.276   5.806   0.777  0.0175  0.6194 -0.6391
 3206TIP3   OH231108   2.456   5.772   3.341  0.0472  0.1372 -0.2873
 3206TIP3    H131109   2.375   5.817   3.365 -0.1339  0.6591 -1.7561
 3206TIP3    H231110   2.432   5.718   3.266  0.9512 -0.1026 -0.4180
 3207TIP3   OH231111   3.416   6.158   3.752  0.2511  0.5333 -0.2563
 3207TIP3    H131112   3.322   6.140   3.752  0.5458 -1.0959 -0.8592
 3207TIP3    H231113   3.428   6.219   3.825 -1.3148  1.0895 -0.4180
 3208TIP3   OH231114   2.391   5.870   0.155  0.1399  0.2515  0.3576
 3208TIP3    H131115   2.340   5.799   0.116  0.6842 -0.6907  1.3153
 3208TIP3    H231116   2.434   5.913   0.081 -0.0923 -0.4927 -0.2171
 3209TIP3   OH231117   5.200   6.445  17.269 -0.5791 -0.5610 -0.2840
 3209TIP3    H131118   5.120   6.418  17.316 -0.3183 -2.4120 -0.8424
 3209TIP3    H231119   5.169   6.509  17.206 -1.7398 -1.5661 -0.7911
 3210TIP3   OH231120   2.067   4.975   3.500 -0.0833  0.0962  0.3539
 3210TIP3    H131121   2.013   5.054   3.508  1.2082  0.8585  2.1729
 3210TIP3    H231122   2.120   4.974   3.580 -0.3652 -2.8729  0.6080
 3211TIP3   OH231123   2.768   2.860  15.920  0.3190 -0.4119  0.3198
 3211TIP3    H131124   2.813   2.888  16.000 -0.4683 -1.4928  1.1624
 3211TIP3    H231125   2.792   2.768  15.910 -1.0558 -0.7958  0.3537
 3212TIP3   OH231126   4.593   4.036  11.442 -0.0182  0.6767  0.1326
 3212TIP3    H131127   4.540   4.038  11.522 -0.6457 -3.1941 -0.0003
 3212TIP3    H231128   4.669   3.983  11.464  0.2782  0.3168 -1.5924
 3213TIP3   OH231129   5.055   2.778  12.071 -0.3014  0.0021 -0.3842
 3213TIP3    H131130   5.023   2.767  12.160 -0.1146 -0.9869 -0.4278
 3213TIP3    H231131   5.013   2.708  12.022  2.2129 -1.6260 -0.3712
 3214TIP3   OH231132   1.869   5.091  15.369  0.4031 -0.4761  0.0732
 3214TIP3    H131133   1.858   5.067  15.462 -0.3329 -1.4082 -0.2336
 3214TIP3    H231134   1.962   5.075  15.351  1.2054  2.2611  1.3138
 3215TIP3   OH231135   3.737   6.132   4.615 -0.0974  0.5952  0.2646
 3215TIP3    H131136   3.662   6.083   4.581  0.0379  0.1664  0.5695
 3215TIP3    H231137   3.795   6.065   4.652 -0.8730  1.1249  2.5831
 3216TIP3   OH231138   4.654   2.058   3.642 -0.2445 -0.1250 -0.1884
 3216TIP3    H131139   4.591   2.102   3.585 -0.5290  0.8977  0.8654
 3216TIP3    H231140   4.615   1.973   3.660 -0.1737 -0.4496 -1.4540
 3217TIP3   OH231141   3.792   1.908   3.683  0.0645  0.0905 -0.4037
 3217TIP3    H131142   3.711   1.861   3.702  0.4866 -0.3972  0.2567
 3217TIP3    H231143   3.824   1.936   3.769  0.5151  0.4144 -0.6694
 3218TIP3   OH231144   0.468   3.296   2.425 -0.0627  0.2560  0.0833
 3218TIP3    H131145   0.486   3.226   2.363  1.3111 -0.0182  0.7600
 3218TIP3    H231146   0.489   3.259   2.511  0.4813  1.4071  0.4769
 3219TIP3   OH231147   0.346   6.640  15.283 -0.2588  0.6349 -0.2082
 3219TIP3    H131148   0.372   6.714  15.338 -1.1974  0.4100  0.5616
 3219TIP3    H231149   0.307   6.680  15.205  2.3576  0.9895 -1.4524
 3220TIP3   OH231150   6.651   6.379   0.950 -0.0399  0.6148 -0.1899
 3220TIP3    H131151   6.704   6.348   1.023  0.2382  0.8496 -0.2853
 3220TIP3    H231152   6.660   6.311   0.883 -0.2426  0.4306 -0.0262
 3221TIP3   OH231153   4.944   2.660   0.102 -0.4923  0.1105  0.2802
 3221TIP3    H131154   5.006   2.605   0.052  0.6006  0.3400  1.3308
 3221TIP3    H231155   4.860   2.646   0.059  0.0692 -1.1242 -0.4881
 3222TIP3   OH231156   1.867   6.454  13.517  0.2723  0.9310 -0.3321
 3222TIP3    H131157   1.912   6.382  13.474 -0.8093 -1.5171  2.2975
 3222TIP3    H231158   1.822   6.500  13.446  3.4899  1.0467 -2.4926
 3223TIP3   OH231159   0.774   2.520  14.197  0.0372  0.3338  0.2932
 3223TIP3    H131160   0.703   2.465  14.164  0.2364  0.2827 -0.0611
 3223TIP3    H231161   0.758   2.527  14.291 -0.4044  0.2761  0.2253
 3224TIP3   OH231162   3.994   4.943  14.644  0.0198  0.5595 -0.7903
 3224TIP3    H131163   3.904   4.910  14.647  0.6769 -1.3707  1.4841
 3224TIP3    H231164   3.989   5.029  14.684 -0.6133 -0.2942  1.0842
 3225TIP3   OH231165   3.740   3.071  15.493 -0.2347 -0.2849 -0.3642
 3225TIP3    H131166   3.653   3.108  15.504  0.2559  0.9194 -0.2910
 3225TIP3    H231167   3.783   3.086  15.577  0.2113 -0.3601 -0.5759
 3226TIP3   OH231168   3.096   0.930  10.803 -0.0623  0.7257 -0.0821
 3226TIP3    H131169   3.041   1.005  10.824  0.3507  0.8808  0.4876
 3226TIP3    H231170   3.049   0.883  10.734 -0.6760  1.1023  0.0792
 3227TIP3   OH231171   1.763   2.864  13.487  0.4566 -0.0772 -0.4080
 3227TIP3    H131172   1.781   2.943  13.436  1.1111  0.5995  0.8164
 3227TIP3    H231173   1.678   2.834  13.456 -0.4988  1.9403  0.0660
 3228TIP3   OH231174   2.256   6.469  15.899  0.4246 -0.2396 -0.3004
 3228TIP3    H131175   2.303   6.390  15.872  1.8213 -0.4391  2.4080
 3228TIP3    H231176   2.313   6.542  15.873  0.8737 -0.3394  0.3730
 3229TIP3   OH231177   5.742   4.540  12.075  0.3926  0.1758  0.1313
 3229TIP3    H131178   5.677   4.598  12.035 -1.2560 -1.7467 -0.1802
 3229TIP3    H231179   5.748   4.570  12.165  0.4319  1.5102 -0.2932
 3230TIP3   OH231180   2.284   3.532   3.209 -0.4085 -0.8345  0.3042
 3230TIP3    H131181   2.330   3.529   3.125 -0.1300  1.0230  0.3519
 3230TIP3    H231182   2.197   3.497   3.190 -0.8459  0.8875 -1.1346
 3231TIP3   OH231183   5.883   5.763   3.009  0.2803  0.0392 -0.3061
 3231TIP3    H131184   5.803   5.813   2.998 -0.1071 -0.4626  0.2190
 3231TIP3    H231185   5.953   5.827   2.997 -0.1921  1.2837  2.7546
 3232TIP3   OH231186   5.234   1.220   1.234 -0.5053  0.3058 -0.4413
 3232TIP3    H131187   5.327   1.208   1.217 -0.4349  1.1443 -0.6947
 3232TIP3    H231188   5.191   1.178   1.160 -0.2190  3.1424 -2.3775
 3233TIP3   OH231189   3.383   0.814   2.953 -0.6494 -0.2525 -0.0208
 3233TIP3    H131190   3.402   0.905   2.930  0.6987 -0.2527  1.0117
 3233TIP3    H231191   3.462   0.766   2.929 -1.2741 -1.1400 -0.3716
 3234TIP3   OH231192   0.430   0.571  13.587 -0.1227 -0.0987 -0.3416
 3234TIP3    H131193   0.490   0.505  13.553 -0.6731  0.1522 -1.8803
 3234TIP3    H231194   0.429   0.640  13.520 -0.6952  0.7818  0.5330
 3235TIP3   OH231195   1.129   3.642  14.448  0.1968  0.0155 -0.0781
 3235TIP3    H131196   1.113   3.619  14.357  1.0723  0.0921 -0.2532
 3235TIP3    H231197   1.119   3.737  14.451  0.5522  0.0564 -0.1743
 3236TIP3   OH231198   1.945   2.594   1.136  0.2375 -0.2823  0.3205
 3236TIP3    H131199   1.911   2.505   1.150 -1.6822  0.0736 -1.6147
 3236TIP3    H231200   2.028   2.580   1.089 -0.6115 -1.0929 -1.0208
 3237TIP3   OH231201   1.284   0.188   2.007  0.6359  0.3718 -0.0117
 3237TIP3    H131202   1.290   0.167   1.914 -0.9400 -2.8303  0.4753
 3237TIP3    H231203   1.203   0.239   2.015  0.2741 -0.1437 -0.3120
 3238TIP3   OH231204   3.578   1.138   5.216 -0.4034  0.7893  0.3759
 3238TIP3    H131205   3.520   1.199   5.262 -2.4361 -0.9273  0.2765
 3238TIP3    H231206   3.529   1.115   5.137 -0.9355 -2.7831  1.5561
 3239TIP3   OH231207   3.492   6.565  11.818 -0.3229  0.2790  0.5714
 3239TIP3    H131208   3.503   6.639  11.877 -2.6251  0.2022  1.2180
 3239TIP3    H231209   3.472   6.491  11.876 -0.6962 -0.2410 -0.1979
 3240TIP3   OH231210   2.834   1.297   0.570 -0.5984 -0.6426 -0.0431
 3240TIP3    H131211   2.776   1.248   0.628 -0.6624 -1.8170 -1.0499
 3240TIP3    H231212   2.775   1.347   0.513 -0.6882 -1.9805 -1.1911
 3241TIP3   OH231213   0.735   3.420   2.900 -0.0027 -0.5005  0.5323
 3241TIP3    H131214   0.698   3.433   2.813 -0.3340 -1.1681  0.5657
 3241TIP3    H231215   0.783   3.501   2.918 -1.0442  0.1992  0.2865
 3242TIP3   OH231216   2.453   2.008  12.358 -0.1623  0.6722 -0.5710
 3242TIP3    H131217   2.488   2.065  12.426 -0.8053 -0.1843  0.4920
 3242TIP3    H231218   2.404   2.067  12.301 -2.1348  1.0288  1.3722
 3243TIP3   OH231219   6.133   3.251  12.786  0.2992  0.2688 -0.2571
 3243TIP3    H131220   6.059   3.212  12.833 -1.3152  1.7522 -1.4734
 3243TIP3    H231221   6.147   3.193  12.711  0.9672 -0.4737  0.4161
 3244TIP3   OH231222   2.067   3.015   5.185  0.3533 -0.2291 -0.0591
 3244TIP3    H131223   2.042   3.046   5.272 -5.0094  0.3361 -1.4647
 3244TIP3    H231224   2.100   3.092   5.140  0.4049  0.1489  0.6183
 3245TIP3   OH231225   4.642   4.203   0.223 -0.3275  0.2330 -0.2234
 3245TIP3    H131226   4.602   4.290   0.220  0.0278  0.4583  0.8236
 3245TIP3    H231227   4.736   4.221   0.217 -0.2616 -0.0875 -0.1268
 3246TIP3   OH231228   6.626   4.206  13.747  0.1648 -0.7834  0.0939
 3246TIP3    H131229   6.656   4.139  13.685  2.8341 -0.8140  1.2667
 3246TIP3    H231230   6.688   4.278  13.736 -2.3623  1.4224 -0.8129
 3247TIP3   OH231231   3.057   5.420   0.883 -0.2741  0.0267 -0.2597
 3247TIP3    H131232   3.064   5.368   0.803  0.8193  2.5987 -1.9591
 3247TIP3    H231233   3.131   5.481   0.880  0.5496 -0.5260  3.3818
 3248TIP3   OH231234   5.664   2.283  16.933 -0.3466 -0.2359 -0.3245
 3248TIP3    H131235   5.591   2.343  16.912  0.5346  1.1199  0.3436
 3248TIP3    H231236   5.672   2.288  17.029  0.4447 -0.5866 -0.3667
 3249TIP3   OH231237   3.935   0.196  12.694  0.1720  0.8737  0.1116
 3249TIP3    H131238   3.964   0.111  12.727 -1.6884 -0.4808 -1.4651
 3249TIP3    H231239   4.003   0.223  12.633  0.4126  0.1167  0.0348
 3250TIP3   OH231240   3.519   4.658  14.472 -0.6512  0.0424 -0.2761
 3250TIP3    H131241   3.578   4.631  14.401 -1.6078 -1.1476 -0.6612
 3250TIP3    H231242   3.552   4.612  14.549 -0.7071 -0.1375 -0.3576
 3251TIP3   OH231243   5.585   5.305   6.245 -0.1994  0.4274 -0.1192
 3251TIP3    H131244   5.612   5.234   6.303  1.0861 -0.8635 -2.1744
 3251TIP3    H231245   5.541   5.368   6.303  0.5995 -0.9718  2.1383
 3252TIP3   OH231246   2.298   4.883   1.717  0.1060  0.1909 -0.0310
 3252TIP3    H131247   2.246   4.912   1.792 -2.9061  0.7103 -2.1298
 3252TIP3    H231248   2.255   4.802   1.689  1.7486 -0.5015 -0.6518
 3253TIP3   OH231249   3.824   1.501   6.593  0.0263  0.0159 -0.3126
 3253TIP3    H131250   3.848   1.492   6.685 -1.7961 -0.4818  0.1620
 3253TIP3    H231251   3.814   1.595   6.580  0.4805  0.1016 -0.0485
 3254TIP3   OH231252   1.056   1.063   2.547 -0.2833  0.4806  0.2639
 3254TIP3    H131253   1.003   0.984   2.541  0.5265 -0.0678  0.2713
 3254TIP3    H231254   1.146   1.032   2.546  0.0438  1.4107  0.1757
 3255TIP3   OH231255   1.027   1.177   5.012 -0.6332  0.2345 -0.1438
 3255TIP3    H131256   1.043   1.084   4.995  0.5580  0.9001 -3.1862
 3255TIP3    H231257   1.000   1.213   4.928  0.6974  2.9687  0.4873
 3256TIP3   OH231258   0.978   3.377  13.316 -0.4893 -0.1500 -0.1866
 3256TIP3    H131259   0.975   3.303  13.254 -1.0996  0.6835 -1.1801
 3256TIP3    H231260   1.001   3.337  13.399  0.3360 -1.3174 -0.9392
 3257TIP3   OH231261   5.890   6.332  14.535  0.0973 -0.4304 -0.2329
 3257TIP3    H131262   5.862   6.413  14.579 -0.3890 -0.9218  0.3888
 3257TIP3    H231263   5.844   6.263  14.582 -0.3704 -0.9934 -1.4732
 3258TIP3   OH231264   1.373   1.521  13.897 -0.2850 -0.2193 -0.2005
 3258TIP3    H131265   1.308   1.506  13.966 -0.9831 -1.1470 -1.0264
 3258TIP3    H231266   1.339   1.595  13.847 -0.9198 -0.9198 -0.8405
 3259TIP3   OH231267   1.174   3.582   1.178  0.3101 -0.5001 -0.1579
 3259TIP3    H131268   1.264   3.606   1.157 -0.0322 -1.1902 -2.7072
 3259TIP3    H231269   1.123   3.660   1.155  0.1906 -0.1736  1.1163
 3260TIP3   OH231270   0.815   0.760  13.866 -0.1905  0.3558  0.1827
 3260TIP3    H131271   0.894   0.808  13.844 -0.4879  1.5844  1.6805
 3260TIP3    H231272   0.770   0.748  13.781  1.6783 -0.6386 -0.7280
 3261TIP3   OH231273   1.673   2.205  16.847 -0.7171  0.1276 -0.3522
 3261TIP3    H131274   1.656   2.284  16.897  0.0446  0.9073 -1.2842
 3261TIP3    H231275   1.729   2.234  16.775  1.3524 -1.6088  0.4635
 3262TIP3   OH231276   5.670   1.369   3.356 -0.4720 -0.1114 -0.8393
 3262TIP3    H131277   5.688   1.438   3.292 -1.9838  0.4467 -0.7264
 3262TIP3    H231278   5.574   1.359   3.353 -0.5789 -0.1494  1.2321
 3263TIP3   OH231279   2.404   2.319  14.966 -0.3666 -0.1082 -0.1088
 3263TIP3    H131280   2.354   2.276  14.897  1.8668 -2.6046 -0.3105
 3263TIP3    H231281   2.443   2.396  14.923  0.0207 -0.9633 -1.3281
 3264TIP3   OH231282   2.544   6.126   4.314  0.3244  0.5387 -0.0455
 3264TIP3    H131283   2.635   6.120   4.344 -0.0465  0.6461  1.1428
 3264TIP3    H231284   2.495   6.150   4.392 -0.6647  1.0047 -0.7907
 3265TIP3   OH231285   3.203   2.828   2.982 -0.0313 -0.1497  0.3404
 3265TIP3    H131286   3.123   2.862   2.943  0.1499 -0.6910 -0.5227
 3265TIP3    H231287   3.188   2.734   2.991  0.4504 -0.2311  0.3251
 3266TIP3   OH231288   4.777   6.167  14.772 -0.6707 -0.0325 -0.0814
 3266TIP3    H131289   4.719   6.166  14.849  0.3437  0.1966  0.7106
 3266TIP3    H231290   4.845   6.230  14.794 -0.3341  0.0021 -1.1668
 3267TIP3   OH231291   0.578   0.990   4.524  0.9564  0.3036 -0.2118
 3267TIP3    H131292   0.612   1.067   4.479  0.8392  0.3982 -0.1393
 3267TIP3    H231293   0.495   1.019   4.560  0.0100 -0.3613 -1.7387
 3268TIP3   OH231294   1.374   5.254   2.007  0.0126  0.0565 -0.0510
 3268TIP3    H131295   1.454   5.206   2.026 -0.0628  0.0392  0.2219
 3268TIP3    H231296   1.403   5.344   1.990  0.3320 -0.3883 -2.1067
 3269TIP3   OH231297   4.717   5.012  13.567 -0.6988  0.4711 -0.4910
 3269TIP3    H131298   4.707   5.096  13.521  0.2796  3.2535  3.8052
 3269TIP3    H231299   4.660   5.020  13.643 -0.1151 -2.6053  0.3859
 3270TIP3   OH231300   0.783   1.570   1.448 -0.3792  0.8552  0.5629
 3270TIP3    H131301   0.701   1.599   1.488 -0.7820 -1.8801  2.0077
 3270TIP3    H231302   0.839   1.546   1.522  0.4815 -0.3376 -0.4257
 3271TIP3   OH231303   1.929   4.873   2.851  0.1449  0.0070  0.0873
 3271TIP3    H131304   1.844   4.860   2.809 -0.0456  2.0173 -0.2295
 3271TIP3    H231305   1.983   4.913   2.783  2.1059 -3.1548 -0.4378
 3272TIP3   OH231306   5.176   0.724  13.567 -0.1634  0.7508  0.3231
 3272TIP3    H131307   5.135   0.661  13.508 -1.3000  0.8803  0.9568
 3272TIP3    H231308   5.225   0.783  13.510  1.5934 -1.1387 -0.2517
 3273TIP3   OH231309   5.108   2.292  14.411 -0.7721 -0.5671  0.6844
 3273TIP3    H131310   5.073   2.346  14.481  1.5267  0.1642  1.3743
 3273TIP3    H231311   5.046   2.303  14.339 -1.1322  1.8760  1.2677
 3274TIP3   OH231312   2.293   2.560   0.487 -0.0523  0.3899  0.0013
 3274TIP3    H131313   2.283   2.558   0.582  0.5979 -1.1136  0.0776
 3274TIP3    H231314   2.207   2.538   0.453 -0.0470 -0.0865  0.2863
 3275TIP3   OH231315   1.030   0.449   2.846 -0.0470 -0.4635 -0.9700
 3275TIP3    H131316   1.032   0.539   2.812  0.3943 -0.5895 -1.2950
 3275TIP3    H231317   0.961   0.450   2.912  0.6001  0.3567 -0.2857
 3276TIP3   OH231318   4.131   5.660  11.174  0.1377 -0.6825 -0.2554
 3276TIP3    H131319   4.097   5.729  11.231  1.2551 -0.7007  0.4536
 3276TIP3    H231320   4.180   5.603  11.232  1.2503 -0.7359 -1.2162
 3277TIP3   OH231321   4.711   0.029  11.942 -0.2984  0.7343 -0.5485
 3277TIP3    H131322   4.733  -0.003  11.855  0.3352 -0.0405 -0.1177
 3277TIP3    H231323   4.766  -0.022  12.002 -1.5408  0.4489  0.3951
 3278TIP3   OH231324   1.493   1.920  13.371  0.1905 -0.6917 -0.4335
 3278TIP3    H131325   1.453   1.849  13.422 -1.8476 -0.3669 -1.4712
 3278TIP3    H231326   1.545   1.969  13.435  1.0257 -2.6400  0.4582
 3279TIP3   OH231327   2.748   3.642  17.164  0.0459  0.3898 -0.2161
 3279TIP3    H131328   2.816   3.709  17.176  0.3548 -0.0619  0.6117
 3279TIP3    H231329   2.796   3.559  17.161 -0.5094  0.0103  1.0080
 3280TIP3   OH231330   2.277   0.087  17.155  0.7513 -0.3475 -0.1299
 3280TIP3    H131331   2.222   0.021  17.113  1.1327 -0.5681 -0.2859
 3280TIP3    H231332   2.251   0.084  17.247 -0.0151  0.0703 -0.3265
 3281TIP3   OH231333   0.069   2.849  12.495 -0.4816 -0.3650  0.4648
 3281TIP3    H131334   0.091   2.936  12.528  0.1384 -1.4699  3.2651
 3281TIP3    H231335   0.127   2.790  12.543 -1.1950 -2.3857 -1.0148
 3282TIP3   OH231336   0.428   5.876   0.075  0.1807 -0.4197 -0.1904
 3282TIP3    H131337   0.471   5.926   0.144 -0.9750  1.6367 -0.8410
 3282TIP3    H231338   0.481   5.894  -0.003 -1.6939  2.2159 -1.0181
 3283TIP3   OH231339   4.059   4.261  12.121  0.3656 -0.4703 -0.0111
 3283TIP3    H131340   4.106   4.211  12.188 -1.3685 -1.7402  0.3085
 3283TIP3    H231341   3.968   4.236  12.132 -0.1305  0.3293 -1.9996
 3284TIP3   OH231342   6.817   2.631  15.135  0.2525 -0.0929 -0.5001
 3284TIP3    H131343   6.735   2.676  15.151 -0.2912 -0.2579 -2.5322
 3284TIP3    H231344   6.881   2.677  15.190 -0.6419  1.9322 -1.0561
 3285TIP3   OH231345   3.034   3.662   3.006  0.3564  0.0362  0.0785
 3285TIP3    H131346   3.085   3.637   2.930  3.7330 -1.1976  2.5117
 3285TIP3    H231347   3.060   3.753   3.024  2.1458 -0.6898  1.4988
 3286TIP3   OH231348   5.505   5.964   4.773  0.1040  0.3970 -0.1563
 3286TIP3    H131349   5.515   6.048   4.727 -0.1059  0.2294 -0.5118
 3286TIP3    H231350   5.475   5.988   4.861 -1.9225  0.6214 -0.8546
 3287TIP3   OH231351   1.565   4.039  11.267 -0.1883  0.3649  0.0532
 3287TIP3    H131352   1.472   4.017  11.273  0.0234 -0.1609  3.0438
 3287TIP3    H231353   1.567   4.129  11.236 -1.8495  1.0801  1.8194
 3288TIP3   OH231354   5.385   2.113  13.327 -0.9221  0.4735 -0.1765
 3288TIP3    H131355   5.430   2.071  13.400 -1.0375  1.7594  0.6520
 3288TIP3    H231356   5.306   2.061  13.315  0.7714 -1.9816 -1.8077
 3289TIP3   OH231357   5.250   2.378  15.232 -0.2299 -0.5371 -0.5671
 3289TIP3    H131358   5.235   2.290  15.198 -2.1084  0.0369 -1.3503
 3289TIP3    H231359   5.187   2.387  15.304  1.5502 -0.6143  1.1113
 3290TIP3   OH231360   5.445   0.680  13.394 -0.3523 -0.1985 -0.1573
 3290TIP3    H131361   5.414   0.754  13.446  0.0578 -0.4391  0.4390
 3290TIP3    H231362   5.368   0.650  13.346 -0.8184 -0.1814  0.5640
 3291TIP3   OH231363   5.915   5.727   0.667 -0.2323 -0.4612 -0.0600
 3291TIP3    H131364   5.869   5.786   0.726 -0.1384  0.7866 -1.1719
 3291TIP3    H231365   5.909   5.770   0.581  2.7142 -0.3851 -0.3307
 3292TIP3   OH231366   0.037   0.284   5.520  0.3436 -0.3812 -0.3475
 3292TIP3    H131367   0.029   0.355   5.457  2.4252  1.3000  1.1346
 3292TIP3    H231368   0.059   0.207   5.467 -2.7917 -0.2538 -2.0697
 3293TIP3   OH231369   1.164   3.597   2.953 -0.3398 -0.6842 -0.1315
 3293TIP3    H131370   1.120   3.635   2.877 -1.1185 -0.8008  0.2523
 3293TIP3    H231371   1.179   3.506   2.930 -0.8823 -0.8058 -0.0246
 3294TIP3   OH231372   5.823   1.504  16.898  0.2025  0.0040 -0.0042
 3294TIP3    H131373   5.883   1.558  16.847 -0.5100 -0.0489 -0.9404
 3294TIP3    H231374   5.736   1.535  16.872 -0.2867 -2.2952 -1.4405
 3295TIP3   OH231375   0.548   5.441   1.037  0.2645  0.9477 -0.1743
 3295TIP3    H131376   0.575   5.530   1.015 -0.4573  1.2628  0.1918
 3295TIP3    H231377   0.596   5.385   0.975 -1.9909  1.8052 -2.8653
 3296TIP3   OH231378   0.089   2.751  15.827  0.0429 -0.2618 -0.2925
 3296TIP3    H131379   0.055   2.709  15.748  1.4099 -0.8870 -0.5681
 3296TIP3    H231380   0.181   2.726  15.830  0.1958  0.3856  1.0938
 3297TIP3   OH231381   6.471   3.148   0.097  0.1303  0.4237  0.1519
 3297TIP3    H131382   6.460   3.124   0.005 -0.1272 -1.2369  0.5767
 3297TIP3    H231383   6.487   3.242   0.096  0.8135  0.3294 -1.6409
 3298TIP3   OH231384   6.002   1.683  16.713 -0.2337 -0.3820  0.3442
 3298TIP3    H131385   5.949   1.676  16.633 -1.2372 -1.5362  1.0770
 3298TIP3    H231386   6.092   1.664  16.684 -0.7011 -1.6080 -0.4050
 3299TIP3   OH231387   0.221   5.150  13.468 -0.6178 -0.0297  0.1070
 3299TIP3    H131388   0.288   5.143  13.400  2.4423 -0.0717  2.8900
 3299TIP3    H231389   0.194   5.060  13.485  0.6536 -0.3070  0.7692
 3300TIP3   OH231390   6.513   3.322  15.195  0.7466 -0.0089 -0.2395
 3300TIP3    H131391   6.502   3.354  15.285 -1.2881 -0.6661 -0.1854
 3300TIP3    H231392   6.519   3.227  15.204 -1.9868 -0.3434 -0.8514
 3301TIP3   OH231393   3.509   4.125   4.369  0.2728  0.0139  0.3111
 3301TIP3    H131394   3.554   4.195   4.322 -0.8432  0.8952  0.5260
 3301TIP3    H231395   3.515   4.049   4.311  3.1894 -0.3314  0.8754
 3302TIP3   OH231396   0.365   6.041   1.522  0.0914  0.3267  0.3275
 3302TIP3    H131397   0.303   6.079   1.459  0.4595 -0.4833 -0.5438
 3302TIP3    H231398   0.451   6.055   1.482  0.1921 -2.4662 -0.6671
 3303TIP3   OH231399   0.024   1.568  15.959  0.1910 -0.2360  0.3103
 3303TIP3    H131400   0.075   1.567  16.040  1.2468  0.0523 -0.3338
 3303TIP3    H231401   0.038   1.481  15.921 -2.0819 -1.2142  1.4673
 3304TIP3   OH231402   3.699   4.974  14.677  0.0390  0.1940  0.1734
 3304TIP3    H131403   3.626   4.939  14.729 -0.9164  0.9239 -0.6311
 3304TIP3    H231404   3.702   5.066  14.701 -0.7427  0.6539 -1.3960
 3305TIP3   OH231405   0.959   2.138  16.916  0.0041  0.1816  0.0759
 3305TIP3    H131406   0.972   2.187  16.997  0.7227 -2.1455  1.4835
 3305TIP3    H231407   1.047   2.128  16.880 -0.0678 -0.4573  0.0689
 3306TIP3   OH231408   3.365   6.435   6.152  0.4732 -0.1008  0.2215
 3306TIP3    H131409   3.326   6.476   6.229 -0.5457 -1.4828  0.4874
 3306TIP3    H231410   3.318   6.352   6.143  0.7858 -0.1132 -1.7134
 3307TIP3   OH231411   2.441   5.693   5.689 -0.0959 -0.1568 -0.3847
 3307TIP3    H131412   2.357   5.666   5.726 -0.5498  0.0805 -1.2242
 3307TIP3    H231413   2.501   5.620   5.709 -0.6610 -0.6198 -0.3665
 3308TIP3   OH231414   1.068   5.134  12.757 -0.0917 -0.5286  0.1643
 3308TIP3    H131415   1.074   5.172  12.669  1.5971 -0.7506  0.1464
 3308TIP3    H231416   0.979   5.101  12.763 -0.9509  1.4556 -0.6324
 3309TIP3   OH231417   2.165   1.436   2.746 -0.4056  0.3335  0.2108
 3309TIP3    H131418   2.166   1.467   2.837 -2.0156 -0.2651  0.4726
 3309TIP3    H231419   2.087   1.381   2.741  0.8428 -1.4608 -0.9560
 3310TIP3   OH231420   2.441   5.814  11.551 -0.2014 -1.0561 -0.3994
 3310TIP3    H131421   2.527   5.775  11.535 -0.4449 -2.3784  1.2720
 3310TIP3    H231422   2.424   5.867  11.474  0.4964 -3.6533 -2.4758
 3311TIP3   OH231423   2.251   3.497  12.687  0.1338  0.6026 -0.1946
 3311TIP3    H131424   2.172   3.444  12.674 -0.3283  1.5429 -1.4722
 3311TIP3    H231425   2.297   3.493  12.603  2.4060 -1.3171  1.0137
 3312TIP3   OH231426   5.433   2.730  16.964 -0.3856  0.3054 -0.2033
 3312TIP3    H131427   5.468   2.677  17.036  1.3210  0.4707 -0.8690
 3312TIP3    H231428   5.370   2.673  16.920 -1.8554  0.3733  1.7016
 3313TIP3   OH231429   1.815   5.472  14.845 -0.3847  0.2023  0.0738
 3313TIP3    H131430   1.793   5.565  14.853 -0.3366  0.1188  1.2575
 3313TIP3    H231431   1.874   5.468  14.769 -1.7746  0.8783 -1.1017
 3314TIP3   OH231432   2.689   4.724   2.603 -0.8755  0.3024 -0.0757
 3314TIP3    H131433   2.657   4.787   2.668  1.6239  1.1065  0.4748
 3314TIP3    H231434   2.650   4.753   2.521  0.0417  2.5295  0.1959
 3315TIP3   OH231435   3.266   5.693  16.042  0.6382 -0.3062 -0.3730
 3315TIP3    H131436   3.262   5.599  16.061 -1.1152  0.1196  1.7048
 3315TIP3    H231437   3.359   5.714  16.053  0.5707 -1.1201  3.3941
 3316TIP3   OH231438   3.002   2.364   2.245 -0.5906 -0.8578  0.2063
 3316TIP3    H131439   3.036   2.419   2.175  0.7002 -1.1119  0.6136
 3316TIP3    H231440   2.910   2.349   2.221 -1.0496  1.6140  0.1895
 3317TIP3   OH231441   6.792   3.678   5.509 -0.4341  0.4199 -0.4841
 3317TIP3    H131442   6.855   3.749   5.525  0.8305 -0.6863 -0.3625
 3317TIP3    H231443   6.761   3.653   5.596 -1.0629  0.9714 -0.5449
 3318TIP3   OH231444   4.389   1.073  14.922  0.0171  0.1235 -0.0088
 3318TIP3    H131445   4.302   1.097  14.954 -0.7636 -2.4261 -0.0338
 3318TIP3    H231446   4.449   1.129  14.972 -1.5192  0.7204  1.2600
 3319TIP3   OH231447   3.721   4.387  12.543 -0.2961  0.1046  0.4791
 3319TIP3    H131448   3.674   4.356  12.466 -0.8432 -1.7610  1.4946
 3319TIP3    H231449   3.674   4.466  12.570 -0.3097  0.5857 -0.8506
 3320TIP3   OH231450   5.540   4.754  14.715  0.3790  0.8633  0.2100
 3320TIP3    H131451   5.581   4.727  14.633  0.6419 -0.7303  0.8352
 3320TIP3    H231452   5.485   4.680  14.740  0.0819  1.4381  1.3340
 3321TIP3   OH231453   0.723   2.110  11.294 -0.4860  0.5738 -0.0034
 3321TIP3    H131454   0.685   2.038  11.244  2.3359 -0.2669 -1.1283
 3321TIP3    H231455   0.743   2.072  11.379 -0.2261  0.3898 -0.1434
 3322TIP3   OH231456   5.068   6.452  12.923 -0.4050  0.5076  0.0165
 3322TIP3    H131457   5.161   6.442  12.944 -0.6015 -0.5105  0.4019
 3322TIP3    H231458   5.068   6.497  12.838  0.4207  1.2747  0.4013
 3323TIP3   OH231459   0.016   5.980   0.082  0.1632  0.2714 -0.7457
 3323TIP3    H131460  -0.074   6.010   0.067  0.6449  1.8846 -0.5473
 3323TIP3    H231461   0.024   5.973   0.177 -0.4170 -2.1285 -0.8059
 3324TIP3   OH231462   4.659   0.153  10.898 -0.2871  0.1461 -0.1941
 3324TIP3    H131463   4.750   0.126  10.885 -0.7610 -2.2293  0.9289
 3324TIP3    H231464   4.663   0.247  10.913  1.8786  0.2151 -0.9284
 3325TIP3   OH231465   5.393   0.512  12.404  0.1210  0.7013 -0.1924
 3325TIP3    H131466   5.391   0.462  12.322 -0.3532 -1.7634  1.2308
 3325TIP3    H231467   5.312   0.564  12.402 -0.0682  0.3846 -1.1142
 3326TIP3   OH231468   3.269   4.660  13.260 -0.7054  0.4900  0.2335
 3326TIP3    H131469   3.305   4.659  13.348 -0.2169 -0.4474  0.0292
 3326TIP3    H231470   3.207   4.587  13.258 -0.8326  0.6039 -0.1522
 3327TIP3   OH231471   4.323   1.546   4.193 -0.9096 -0.3307 -0.4050
 3327TIP3    H131472   4.303   1.616   4.255  1.3666  0.3894 -0.3779
 3327TIP3    H231473   4.278   1.571   4.112 -1.7905  0.0711  0.1994
 3328TIP3   OH231474   5.022   1.292   3.770  0.4751  0.1528 -0.0015
 3328TIP3    H131475   5.088   1.348   3.731  1.0544 -0.0215  0.6915
 3328TIP3    H231476   5.040   1.296   3.864 -2.0684  2.1091  0.5025
 3329TIP3   OH231477   2.848   1.840  16.384  0.5855  0.2409  0.1965
 3329TIP3    H131478   2.937   1.831  16.419  0.8912  3.3047  0.4950
 3329TIP3    H231479   2.861   1.864  16.292 -0.0920 -2.4048 -0.6626
 3330TIP3   OH231480   3.225   0.524  16.263 -0.0146  0.1015 -0.1842
 3330TIP3    H131481   3.202   0.590  16.329  1.2593 -0.2474  0.6388
 3330TIP3    H231482   3.321   0.518  16.268 -0.1119 -2.0196 -0.0151
 3331TIP3   OH231483   4.626   1.450   0.515 -0.4675  0.5347  0.1418
 3331TIP3    H131484   4.676   1.369   0.500 -3.4210 -1.0102 -2.8037
 3331TIP3    H231485   4.693   1.516   0.533  2.4594 -1.7124 -1.4552
 3332TIP3   OH231486   0.978   2.946  10.557  0.0271  0.7335 -0.3258
 3332TIP3    H131487   0.980   2.867  10.502 -1.7529 -0.8222  1.7085
 3332TIP3    H231488   0.919   3.006  10.511 -1.4339 -0.5367 -0.1606
 3333TIP3   OH231489   6.295   4.821   1.843  0.2903 -0.0036 -0.6122
 3333TIP3    H131490   6.247   4.901   1.823  0.8896  0.2865 -0.9049
 3333TIP3    H231491   6.227   4.756   1.861 -0.2295  0.1979 -1.7743
 3334TIP3   OH231492   1.358   0.908   3.285 -0.9120 -0.1633  0.1129
 3334TIP3    H131493   1.284   0.965   3.308 -1.2832 -0.6520  0.1434
 3334TIP3    H231494   1.326   0.819   3.301 -1.3082 -0.5749 -2.4589
 3335TIP3   OH231495   2.491   3.206  13.383  0.0543  0.0711  0.4424
 3335TIP3    H131496   2.441   3.160  13.316  1.1654 -2.7580  1.3941
 3335TIP3    H231497   2.478   3.155  13.463  0.9132  1.8061  1.7795
 3336TIP3   OH231498   3.703   1.259  14.385  0.4770  0.7867 -0.3664
 3336TIP3    H131499   3.710   1.168  14.413  0.6071  0.7818 -0.4119
 3336TIP3    H231500   3.778   1.272  14.326  1.8190  1.5575  1.3861
 3337TIP3   OH231501   1.744   5.671   2.502  0.1831  0.1531 -0.5054
 3337TIP3    H131502   1.754   5.755   2.545 -0.6053  0.4399 -0.8592
 3337TIP3    H231503   1.704   5.691   2.417 -2.6801 -0.7433  0.4841
 3338TIP3   OH231504   5.314   5.085   1.559  0.1622 -0.0724  0.5724
 3338TIP3    H131505   5.262   5.070   1.638 -1.0833 -0.6739 -0.3336
 3338TIP3    H231506   5.334   4.997   1.526  0.3712  0.1698  0.0328
 3339TIP3   OH231507   4.004   3.724  15.414 -0.2109  0.2043 -0.1963
 3339TIP3    H131508   3.945   3.757  15.346  0.4181 -0.4564 -1.0846
 3339TIP3    H231509   4.084   3.776  15.404 -0.6087  1.0807  0.9895
 3340TIP3   OH231510   6.708   2.012  13.892  0.0430 -0.1114 -0.4774
 3340TIP3    H131511   6.662   2.018  13.808 -0.4937  1.8382 -0.0971
 3340TIP3    H231512   6.799   2.033  13.871 -0.0806  0.3251 -0.5822
 3341TIP3   OH231513   6.030   0.025  10.989 -0.2020 -0.3863 -0.1347
 3341TIP3    H131514   5.980  -0.008  11.064 -0.2811 -1.7968 -0.7755
 3341TIP3    H231515   5.994   0.112  10.974 -1.3523 -0.7382  0.4266
 3342TIP3   OH231516   4.155   4.096  17.171 -0.1703 -0.7904  0.1372
 3342TIP3    H131517   4.070   4.072  17.133  0.4071  0.0615 -1.7903
 3342TIP3    H231518   4.214   4.102  17.096  1.0240  1.0279  1.1449
 3343TIP3   OH231519   2.870   0.850   3.955  0.1033 -0.6143  0.0318
 3343TIP3    H131520   2.811   0.891   4.017  0.7827 -0.2284  0.4269
 3343TIP3    H231521   2.908   0.922   3.906  0.6397 -0.8222  0.1315
 3344TIP3   OH231522   1.635   5.238  12.472  0.1358  0.2632  0.0570
 3344TIP3    H131523   1.681   5.182  12.410  0.3178  0.6241 -0.1407
 3344TIP3    H231524   1.543   5.233  12.447 -0.0225 -0.9481  0.8367
 3345TIP3   OH231525   3.274   1.247   0.629 -0.2601  0.1050 -0.0857
 3345TIP3    H131526   3.339   1.190   0.588 -0.6259  0.0258 -0.5638
 3345TIP3    H231527   3.313   1.273   0.712 -0.1888 -1.0381  0.2457
 3346TIP3   OH231528   6.556   4.947   1.880  1.2320 -0.2659  0.4302
 3346TIP3    H131529   6.536   5.041   1.886  2.6465  0.0437  0.7930
 3346TIP3    H231530   6.471   4.905   1.873  0.5821  1.0891 -0.3488
 3347TIP3   OH231531   1.432   2.603  14.924  0.1622 -0.4594 -0.3982
 3347TIP3    H131532   1.492   2.673  14.899  0.0231 -0.1168  0.2088
 3347TIP3    H231533   1.487   2.527  14.940  0.5064  0.0185  0.7659
 3348TIP3   OH231534   4.648   1.039   5.718  0.1662  0.2436  0.2358
 3348TIP3    H131535   4.580   0.981   5.683 -1.4070  1.1861  1.5516
 3348TIP3    H231536   4.614   1.127   5.701  0.5561  0.7223  1.8411
 3349TIP3   OH231537   0.705   3.759  10.370  0.6718 -0.4422  0.0397
 3349TIP3    H131538   0.769   3.724  10.432 -0.3225  0.7254  1.7947
 3349TIP3    H231539   0.628   3.778  10.423 -0.0336  1.1364 -1.4547
 3350TIP3   OH231540   0.609   4.913  15.214  0.3676  0.3074  0.3980
 3350TIP3    H131541   0.635   4.923  15.306  0.5941 -0.1048  0.3832
 3350TIP3    H231542   0.592   5.002  15.184 -0.0817  0.4082  0.9470
 3351TIP3   OH231543   3.919   0.592  16.664  0.0491 -0.1155 -0.3551
 3351TIP3    H131544   3.922   0.555  16.752 -1.3814  1.1014  0.2595
 3351TIP3    H231545   3.836   0.563  16.628 -0.9875  2.1169  0.0417
 3352TIP3   OH231546   3.051   3.575  12.537 -0.1549 -0.1956 -0.0071
 3352TIP3    H131547   3.065   3.542  12.626  0.5209  0.4586  0.1388
 3352TIP3    H231548   3.071   3.668  12.543 -1.3491  0.1152 -0.5687
 3353TIP3   OH231549   4.898   1.319   3.520  0.3229  1.0916 -0.0010
 3353TIP3    H131550   4.951   1.254   3.473 -1.6766 -1.0647  0.5547
 3353TIP3    H231551   4.920   1.306   3.612 -2.2671 -1.1254  0.4508
 3354TIP3   OH231552   1.031   3.430  12.147 -0.1623  0.3723  0.2663
 3354TIP3    H131553   0.987   3.376  12.212 -0.2018 -1.6493 -1.3151
 3354TIP3    H231554   1.080   3.367  12.094 -0.5641  1.8208 -1.9547
 3355TIP3   OH231555   6.589   3.128  15.616  0.0887 -0.3610 -0.2834
 3355TIP3    H131556   6.621   3.088  15.697 -0.7318  0.8207  0.6531
 3355TIP3    H231557   6.655   3.194  15.595  0.8505 -1.3803 -1.1944
 3356TIP3   OH231558   2.870   3.458   1.615  0.3421 -0.4671 -0.2785
 3356TIP3    H131559   2.819   3.517   1.670  0.2212  0.1348 -1.0115
 3356TIP3    H231560   2.861   3.494   1.526  2.2031 -0.2042 -0.4108
 3357TIP3   OH231561   1.597   2.478  11.848 -0.0336  0.1905 -0.2560
 3357TIP3    H131562   1.613   2.482  11.943 -0.5761 -1.4881 -0.0687
 3357TIP3    H231563   1.509   2.443  11.840 -1.7046  4.0535 -1.3795
 3358TIP3   OH231564   2.836   6.304   0.353  0.1477  0.0622 -0.2632
 3358TIP3    H131565   2.925   6.278   0.373  0.0356  1.1959  2.0532
 3358TIP3    H231566   2.795   6.226   0.316  1.1750 -1.5149  1.7380
 3359TIP3   OH231567   5.397   5.326  12.740 -1.1773  0.6211  0.0331
 3359TIP3    H131568   5.411   5.353  12.649 -2.3506 -0.7624 -0.5977
 3359TIP3    H231569   5.480   5.346  12.784 -0.8489  2.0232 -1.1475
 3360TIP3   OH231570   0.061   0.384   4.432  0.5327  0.2669  0.2134
 3360TIP3    H131571   0.086   0.294   4.450 -0.3028 -0.1779 -0.7689
 3360TIP3    H231572   0.144   0.429   4.417  0.9529 -0.3434  0.6464
 3361TIP3   OH231573   0.182   4.096   5.798 -0.0291 -0.2060 -0.2297
 3361TIP3    H131574   0.271   4.128   5.810  0.2038 -1.2615  1.2841
 3361TIP3    H231575   0.137   4.117   5.880 -0.7503 -0.9267 -0.4137
 3362TIP3   OH231576   2.133   2.213  13.639 -0.0166  0.4064  0.0144
 3362TIP3    H131577   2.133   2.160  13.560 -1.0439 -1.9877  1.4832
 3362TIP3    H231578   2.222   2.207  13.674 -0.5326 -2.0363  1.1100
 3363TIP3   OH231579   2.338   0.600  13.991  0.1327 -0.3935  0.1189
 3363TIP3    H131580   2.331   0.529  14.054 -1.9795 -1.0219 -0.7362
 3363TIP3    H231581   2.362   0.557  13.909 -0.2288  0.0017 -0.1972
 3364TIP3   OH231582   2.943   4.823   3.089 -0.0812  0.0546  0.1404
 3364TIP3    H131583   2.895   4.752   3.046 -0.1622 -0.1580  0.5858
 3364TIP3    H231584   2.897   4.838   3.171  0.9469 -0.5606  0.8548
 3365TIP3   OH231585   4.678   5.944   0.710  0.0190 -0.0727 -0.4868
 3365TIP3    H131586   4.643   5.959   0.797  0.1992 -0.8471 -0.2723
 3365TIP3    H231587   4.647   5.857   0.686  0.0984  0.0673 -1.1318
 3366TIP3   OH231588   1.115   6.641   3.478 -0.1399 -0.2038 -0.1248
 3366TIP3    H131589   1.129   6.732   3.452 -1.1432 -0.5188 -1.9298
 3366TIP3    H231590   1.072   6.601   3.402 -2.2052 -1.5090  1.6073
 3367TIP3   OH231591   2.416   0.457  15.632  0.2019  0.1955 -0.4354
 3367TIP3    H131592   2.350   0.518  15.601  0.7502  0.0869 -1.8989
 3367TIP3    H231593   2.494   0.476  15.579  0.5412 -1.3942 -0.5658
 3368TIP3   OH231594   6.670   3.699   4.572 -0.8418 -0.0391 -0.5258
 3368TIP3    H131595   6.731   3.773   4.561  0.1353 -0.8785 -0.9203
 3368TIP3    H231596   6.706   3.650   4.646 -2.8826  1.1820  1.4185
 3369TIP3   OH231597   3.543   0.584  12.827  0.4873 -0.5319 -0.5708
 3369TIP3    H131598   3.472   0.530  12.792  0.7115 -0.8654 -0.5138
 3369TIP3    H231599   3.517   0.603  12.917  1.0878 -1.7772 -0.0986
 3370TIP3   OH231600   4.489   6.568  12.513 -0.5725  0.4921 -0.4618
 3370TIP3    H131601   4.493   6.501  12.445 -2.1420  2.4941 -2.6883
 3370TIP3    H231602   4.561   6.546  12.572 -0.6367 -2.7493 -1.3750
 3371TIP3   OH231603   1.332   2.730  13.637  0.1608 -0.1690  0.3950
 3371TIP3    H131604   1.338   2.643  13.677  2.1671 -0.0890  0.3880
 3371TIP3    H231605   1.396   2.783  13.686  0.4772  0.7369 -0.9504
 3372TIP3   OH231606   3.764   4.406  14.144 -0.1891  0.2487  0.1002
 3372TIP3    H131607   3.835   4.369  14.092 -1.2178 -0.5867 -0.7557
 3372TIP3    H231608   3.690   4.412  14.084 -0.7101  1.5985  0.8324
 3373TIP3   OH231609   4.743   0.538  15.228  0.1638 -0.0839  0.5572
 3373TIP3    H131610   4.776   0.468  15.172  0.3983  0.6390 -0.2223
 3373TIP3    H231611   4.814   0.555  15.290  0.6181  0.3400 -0.0701
 3374TIP3   OH231612   2.780   2.212  15.447  0.0090 -0.4441  0.0688
 3374TIP3    H131613   2.783   2.291  15.395 -0.9596  0.1214  0.8373
 3374TIP3    H231614   2.871   2.181  15.449  0.1821 -0.0830 -1.3054
 3375TIP3   OH231615   2.497   5.317  15.431 -0.1701 -0.4197  0.2090
 3375TIP3    H131616   2.540   5.232  15.439  0.1263 -0.3112 -0.1976
 3375TIP3    H231617   2.466   5.320  15.341  0.3865  0.1631  0.0240
 3376TIP3   OH231618   5.558   1.181   5.977  0.2189 -0.1055  0.5502
 3376TIP3    H131619   5.507   1.236   6.036  2.6025  2.6774  0.2520
 3376TIP3    H231620   5.644   1.175   6.019  1.6879  1.1269 -2.0356
 3377TIP3   OH231621   6.763   1.655  12.533 -0.2157  0.9373  0.3651
 3377TIP3    H131622   6.705   1.721  12.571 -2.9734 -0.4939 -1.0012
 3377TIP3    H231623   6.780   1.686  12.444 -0.2104  0.5972  0.2457
 3378TIP3   OH231624   1.871   2.054   0.499  0.0198 -0.0669  0.4282
 3378TIP3    H131625   1.776   2.048   0.510 -0.2816  1.2275 -1.0666
 3378TIP3    H231626   1.899   2.120   0.562 -0.3565  0.8531 -0.3488
 3379TIP3   OH231627   3.593   4.627  13.450 -0.5919 -0.0145  0.2227
 3379TIP3    H131628   3.571   4.717  13.429  2.0617  0.5556 -0.5108
 3379TIP3    H231629   3.564   4.615  13.540 -2.6739  0.9187 -0.2700
 3380TIP3   OH231630   3.513   1.788  16.773 -0.9512 -0.1656  0.3218
 3380TIP3    H131631   3.506   1.715  16.834  1.0549 -1.2082 -0.5716
 3380TIP3    H231632   3.598   1.776  16.731 -1.3164  1.7221 -1.1325
 3381TIP3   OH231633   1.223   0.222  17.308  0.1600 -0.0909  0.0641
 3381TIP3    H131634   1.180   0.203  17.225 -1.3937 -0.3550  0.9052
 3381TIP3    H231635   1.280   0.147  17.323  0.0875 -0.2658 -0.5227
 3382TIP3   OH231636   3.042   5.052   3.872 -0.0331 -0.1102  0.0265
 3382TIP3    H131637   3.073   5.004   3.796 -0.4905 -1.3758  0.6000
 3382TIP3    H231638   2.999   5.129   3.836  0.2699 -0.3863 -0.9570
 3383TIP3   OH231639   0.812   2.554  15.733 -0.3964  0.0796 -0.2027
 3383TIP3    H131640   0.820   2.462  15.760  1.0699  0.2876  0.1037
 3383TIP3    H231641   0.805   2.550  15.637  0.9734 -0.2893 -0.3009
 3384TIP3   OH231642   5.448   0.087  16.589 -0.3777 -0.0674 -0.3646
 3384TIP3    H131643   5.538   0.116  16.582 -0.1460 -0.0854  1.8812
 3384TIP3    H231644   5.402   0.160  16.631 -1.4638  0.0072 -1.6188
 3385TIP3   OH231645   4.056   3.092   3.746  0.2898  0.2641 -0.1261
 3385TIP3    H131646   4.022   3.019   3.799 -0.0210 -0.8224 -1.7614
 3385TIP3    H231647   4.145   3.066   3.724  0.3523  0.6206 -0.2981
 3386TIP3   OH231648   0.622   0.991  16.101 -0.3554 -0.1629  0.5862
 3386TIP3    H131649   0.568   1.022  16.174 -2.3632  0.7884 -1.2030
 3386TIP3    H231650   0.666   1.070  16.068  1.4872 -0.7758  1.4268
 3387TIP3   OH231651   5.859   5.698  14.011 -0.9235 -0.2628 -0.8346
 3387TIP3    H131652   5.823   5.756  13.944  0.3750  0.0314 -1.3080
 3387TIP3    H231653   5.845   5.745  14.093 -1.5228 -0.1250 -1.0068
 3388TIP3   OH231654   0.211   3.911   0.830 -0.6450  0.6401 -0.1583
 3388TIP3    H131655   0.119   3.889   0.815 -0.5307  0.4189 -0.5711
 3388TIP3    H231656   0.210   3.998   0.870 -1.0689  0.2818  0.6321
 3389TIP3   OH231657   2.051   0.373  10.496  0.4636  0.2684 -0.6394
 3389TIP3    H131658   2.078   0.282  10.510  0.5527  0.5874  1.5842
 3389TIP3    H231659   2.095   0.422  10.564  0.0864  1.9521 -1.5496
 3390TIP3   OH231660   3.497   5.982  14.401  0.0498 -0.1268  0.0637
 3390TIP3    H131661   3.463   6.008  14.315  0.7580 -0.9345 -0.4752
 3390TIP3    H231662   3.509   6.065  14.448 -2.4421  0.2264  0.2283
 3391TIP3   OH231663   3.449   6.768   1.156 -0.2440  0.0455  0.2460
 3391TIP3    H131664   3.533   6.785   1.114 -0.0815  0.4320  0.7106
 3391TIP3    H231665   3.463   6.687   1.205 -0.1363  0.1212  0.3407
 3392TIP3   OH231666   6.367   0.034  13.548 -0.1352 -0.3164 -0.0409
 3392TIP3    H131667   6.365  -0.057  13.520 -0.0695 -0.3160 -0.0455
 3392TIP3    H231668   6.278   0.051  13.579 -0.2755 -0.2495 -0.4737
 3393TIP3   OH231669   1.727   1.663  15.848 -0.4579 -0.5030 -0.6693
 3393TIP3    H131670   1.633   1.642  15.854 -1.0151  1.7031 -0.5879
 3393TIP3    H231671   1.749   1.697  15.935  0.2908 -0.5113 -0.8514
 3394TIP3   OH231672   4.063   5.235  16.211  0.2313 -0.3114  0.1926
 3394TIP3    H131673   4.083   5.154  16.258 -0.2268  1.3993  3.6439
 3394TIP3    H231674   4.143   5.286  16.216 -0.3716  0.6013  0.6760
 3395TIP3   OH231675   1.273   5.941  11.215 -0.1431  0.2721 -0.5580
 3395TIP3    H131676   1.191   5.972  11.254  0.0300  0.6372 -0.4811
 3395TIP3    H231677   1.335   5.939  11.288 -0.2195 -0.4932 -0.5166
 3396TIP3   OH231678   5.750   3.064   0.799  0.4528 -0.0552 -0.2819
 3396TIP3    H131679   5.834   3.109   0.805 -0.7909  2.3698  0.2791
 3396TIP3    H231680   5.755   2.995   0.865  1.4386  1.0897  0.9000
 3397TIP3   OH231681   4.480   4.083   5.974  0.6031  0.1537  0.6061
 3397TIP3    H131682   4.395   4.102   6.014  0.0446 -0.4437 -0.2507
 3397TIP3    H231683   4.507   4.000   6.012  0.8783  0.4125  0.9822
 3398TIP3   OH231684   3.139   6.425  12.297 -0.4382 -0.3183 -0.8524
 3398TIP3    H131685   3.064   6.366  12.305  0.7853 -1.6266  2.4649
 3398TIP3    H231686   3.123   6.493  12.363  1.3048 -0.6763 -0.0123
 3399TIP3   OH231687   3.002   2.037  15.487  0.1278 -0.6046  0.0411
 3399TIP3    H131688   3.017   2.024  15.394 -1.4541  0.8109 -0.4619
 3399TIP3    H231689   2.959   1.957  15.516 -3.5433  0.5945 -1.5234
 3400TIP3   OH231690   0.206   1.040  12.600 -0.1627  0.1686 -0.3576
 3400TIP3    H131691   0.146   1.095  12.651 -0.6394 -0.5601 -0.1086
 3400TIP3    H231692   0.293   1.076  12.618 -0.1211 -1.0323  2.2972
 3401TIP3   OH231693   5.261   2.353  13.273  0.1881 -0.3837 -0.2678
 3401TIP3    H131694   5.290   2.435  13.312 -0.8685 -0.6243  1.1102
 3401TIP3    H231695   5.310   2.285  13.319 -1.1719 -0.6771  0.8499
 3402TIP3   OH231696   1.377   0.301  11.841  0.0980 -0.1460  0.1436
 3402TIP3    H131697   1.383   0.381  11.788 -0.1109 -0.4451 -0.3377
 3402TIP3    H231698   1.380   0.332  11.932  0.9084  0.3362 -0.0446
 3403TIP3   OH231699   6.176   1.146  11.072  0.5956  0.6320 -0.0012
 3403TIP3    H131700   6.142   1.169  11.158  0.9365  0.7233  0.1118
 3403TIP3    H231701   6.104   1.099  11.029  1.3752 -2.0147  1.3986
 3404TIP3   OH231702   2.187   0.817   1.982  0.1882  0.1200  0.0906
 3404TIP3    H131703   2.279   0.792   1.994  0.1068 -0.5641 -0.6262
 3404TIP3    H231704   2.185   0.911   1.998  0.9556  0.0767  0.4512
 3405TIP3   OH231705   5.843   3.979  14.420 -0.2803 -0.6258  0.2365
 3405TIP3    H131706   5.899   3.903  14.405 -0.1443 -0.1768 -1.7438
 3405TIP3    H231707   5.822   4.012  14.333 -1.1017  1.0746  1.0165
 3406TIP3   OH231708   0.015   0.367  15.752  0.4802 -0.4343 -0.3053
 3406TIP3    H131709  -0.036   0.339  15.676  0.7961  0.8332 -1.0184
 3406TIP3    H231710  -0.030   0.327  15.827 -1.1301  0.0380 -0.9706
 3407TIP3   OH231711   1.816   4.183  14.297 -0.1689 -0.1596  0.4514
 3407TIP3    H131712   1.887   4.122  14.316  0.7876  1.1797  1.2885
 3407TIP3    H231713   1.856   4.252  14.245 -1.2737 -0.2919 -0.6246
 3408TIP3   OH231714   5.024   2.731   4.202 -0.3979 -0.3422  0.0897
 3408TIP3    H131715   5.068   2.715   4.119 -0.8987  1.3153 -0.5436
 3408TIP3    H231716   4.948   2.672   4.201 -0.4478 -0.2741 -0.6880
 3409TIP3   OH231717   5.835   1.608   5.941 -0.1902  0.2541  0.0353
 3409TIP3    H131718   5.763   1.601   5.879 -1.0124 -1.4495  1.0831
 3409TIP3    H231719   5.812   1.682   5.997 -0.1634  0.8888 -0.7762
 3410TIP3   OH231720   0.594   2.587  12.582  0.4691  0.3419 -0.1999
 3410TIP3    H131721   0.593   2.508  12.636 -0.3622 -0.4946 -1.4065
 3410TIP3    H231722   0.502   2.612  12.573  0.6045  0.5514 -1.0999
 3411TIP3   OH231723   3.654   5.882   1.707  0.7384 -0.2778 -0.3494
 3411TIP3    H131724   3.682   5.802   1.751 -1.2939 -0.8274  0.0432
 3411TIP3    H231725   3.583   5.855   1.650  0.3477  1.1710 -0.6031
 3412TIP3   OH231726   1.281   0.411  12.877  0.1052  0.7492  0.0497
 3412TIP3    H131727   1.277   0.495  12.831 -2.4049  1.7835  1.8963
 3412TIP3    H231728   1.225   0.353  12.827  2.3504 -0.1435 -1.5966
 3413TIP3   OH231729   1.515   0.239   1.076  0.4478 -0.7369 -0.2284
 3413TIP3    H131730   1.602   0.235   1.036  0.7744 -1.6863  0.5005
 3413TIP3    H231731   1.508   0.327   1.111  1.1011 -0.6355 -0.3460
 3414TIP3   OH231732   5.501   6.306  14.795 -0.2614  0.1322 -0.1359
 3414TIP3    H131733   5.562   6.363  14.843  0.1498 -0.9665  0.6776
 3414TIP3    H231734   5.558   6.242  14.752 -0.7076  0.4609 -1.2514
 3415TIP3   OH231735   3.787   3.737  12.562  0.2293  0.2539 -0.2321
 3415TIP3    H131736   3.718   3.691  12.610 -0.1664 -0.3016 -1.3058
 3415TIP3    H231737   3.851   3.761  12.629 -0.7519  0.3299  0.7078
 3416TIP3   OH231738   5.331   4.113  14.100 -0.0122 -0.4658 -0.4903
 3416TIP3    H131739   5.301   4.092  14.189  1.0375 -0.6428 -0.1618
 3416TIP3    H231740   5.255   4.153  14.058 -1.0900 -2.0022 -0.0913
 3417TIP3   OH231741   2.114   0.787   3.652  0.5061  0.4328 -0.0300
 3417TIP3    H131742   2.094   0.859   3.593 -0.2694  1.3316  1.2821
 3417TIP3    H231743   2.109   0.709   3.597 -2.6425  0.9672 -0.7274
 3418TIP3   OH231744   2.177   1.079  16.140 -0.3924 -0.5809 -0.5057
 3418TIP3    H131745   2.220   1.027  16.207  0.1316 -2.2578 -2.0674
 3418TIP3    H231746   2.243   1.143  16.114 -0.2233 -0.6148 -0.1691
 3419TIP3   OH231747   4.932   2.211   4.433  0.2527  0.1049  0.1777
 3419TIP3    H131748   4.857   2.162   4.398 -0.2330  0.0663  1.2147
 3419TIP3    H231749   4.907   2.230   4.523  1.2370  0.6488  0.3448
 3420TIP3   OH231750   1.411   5.928  16.109 -0.0772 -0.3537 -0.0353
 3420TIP3    H131751   1.332   5.927  16.164 -0.5896  1.1967 -0.6790
 3420TIP3    H231752   1.482   5.947  16.169  0.0785 -3.1138  0.7956
 3421TIP3   OH231753   6.573   2.222  12.446 -0.4898 -0.0914 -0.0196
 3421TIP3    H131754   6.547   2.160  12.378 -2.6479 -1.7047  2.0698
 3421TIP3    H231755   6.521   2.301  12.428  0.9886  0.5450 -1.7161
 3422TIP3   OH231756   1.070   0.283  11.021 -0.4405  0.0789  0.0372
 3422TIP3    H131757   1.086   0.307  10.929 -2.9980  0.9738 -0.2509
 3422TIP3    H231758   1.093   0.190  11.025  2.2141  0.6019 -0.8027
 3423TIP3   OH231759   6.324   5.989   6.889 -0.4186  0.4836  0.2333
 3423TIP3    H131760   6.291   6.078   6.878  1.0843  0.9566 -0.7713
 3423TIP3    H231761   6.252   5.933   6.861 -0.5098  1.4663 -1.6775
 3424TIP3   OH231762   2.764   4.436  14.420  0.0496  0.8166 -0.0662
 3424TIP3    H131763   2.739   4.344  14.413 -2.1463  1.0371  3.0406
 3424TIP3    H231764   2.701   4.483  14.366 -0.4547  0.6584  0.3776
 3425TIP3   OH231765   1.784   2.057   2.606  0.0484 -0.2896 -0.2704
 3425TIP3    H131766   1.827   2.136   2.573 -0.5065  1.3043  2.4862
 3425TIP3    H231767   1.852   2.012   2.657 -0.4222  0.0730  0.7053
 3426TIP3   OH231768   2.139   6.087  16.352  0.3214  0.8176  0.2966
 3426TIP3    H131769   2.187   6.006  16.331  0.4259  1.0065 -0.2118
 3426TIP3    H231770   2.104   6.072  16.439  0.2038  0.1575  0.1385
 3427TIP3   OH231771   6.211   4.275   2.544  0.4398  0.0791  0.4508
 3427TIP3    H131772   6.224   4.308   2.633 -1.4209  0.1785  0.7302
 3427TIP3    H231773   6.122   4.302   2.522  0.3677 -1.1861 -0.9097
 3428TIP3   OH231774   1.009   0.178  13.500 -0.2230 -0.1366 -0.2505
 3428TIP3    H131775   1.048   0.178  13.588 -1.2301  0.9291  0.2241
 3428TIP3    H231776   0.996   0.270  13.480  0.1716 -0.3599 -1.6296
 3429TIP3   OH231777   2.303   2.893  11.841 -0.5062  0.1683  0.1010
 3429TIP3    H131778   2.343   2.807  11.856 -3.8237 -1.3825  1.1112
 3429TIP3    H231779   2.346   2.951  11.904 -0.3552 -1.5380  1.6502
 3430TIP3   OH231780   6.367   2.883  13.180 -0.1416  0.2637  0.5609
 3430TIP3    H131781   6.403   2.971  13.165 -0.1561  0.2629  0.5207
 3430TIP3    H231782   6.361   2.845  13.092  0.8216 -0.1552  0.6607
 3431TIP3   OH231783   4.441   1.475  13.105  0.2468  0.4932  0.3303
 3431TIP3    H131784   4.406   1.479  13.194 -0.0597 -0.8750  0.2958
 3431TIP3    H231785   4.450   1.381  13.088  1.5855  0.7737 -0.5839
 3432TIP3   OH231786   2.586   6.234   2.123  0.7662  0.2977  0.3186
 3432TIP3    H131787   2.530   6.227   2.046  1.0904 -1.6871  0.2221
 3432TIP3    H231788   2.673   6.209   2.092  1.5017  2.1362  0.7456
 3433TIP3   OH231789   5.633   1.063   3.681  0.7080 -0.1113  0.3448
 3433TIP3    H131790   5.565   1.129   3.663  0.2618 -0.1125  1.8655
 3433TIP3    H231791   5.588   0.996   3.732  1.3771 -1.1771 -0.4213
 3434TIP3   OH231792   4.965   1.620   1.385  0.1569  0.0989  0.0407
 3434TIP3    H131793   4.980   1.527   1.367  1.0471  0.2192  0.1239
 3434TIP3    H231794   4.940   1.623   1.477  0.6356 -0.0141  0.1783
 3435TIP3   OH231795   6.546   0.792  15.939  0.2449 -0.2706 -0.2914
 3435TIP3    H131796   6.520   0.731  16.008 -0.3386  1.6670  1.2981
 3435TIP3    H231797   6.470   0.796  15.881  0.0227 -0.5216 -0.0224
 3436TIP3   OH231798   2.080   0.118  12.665  0.4356 -0.0472 -0.2790
 3436TIP3    H131799   2.017   0.049  12.643  1.3967 -1.2380  0.6176
 3436TIP3    H231800   2.108   0.098  12.754  0.7800  1.4847 -0.0074
 3437TIP3   OH231801   5.648   4.628  17.297  0.1156  0.4763 -0.4239
 3437TIP3    H131802   5.667   4.572  17.222  0.0849 -0.6711  0.3941
 3437TIP3    H231803   5.616   4.710  17.259 -0.0429 -0.1391 -1.6531
 3438TIP3   OH231804   4.245   6.823   5.498  0.4633 -0.6925 -0.0813
 3438TIP3    H131805   4.284   6.737   5.516  2.4794 -0.4889 -2.7777
 3438TIP3    H231806   4.221   6.819   5.406 -1.0037  1.1115  0.1717
 3439TIP3   OH231807   4.725   2.233   5.615 -0.1863  0.6651  0.0727
 3439TIP3    H131808   4.785   2.165   5.583  1.4568  2.5097 -0.9386
 3439TIP3    H231809   4.704   2.205   5.704  0.6715 -1.0130 -0.2074
 3440TIP3   OH231810   6.202   2.989   6.091  0.4139 -0.1312 -0.8531
 3440TIP3    H131811   6.168   2.924   6.152 -3.3008  2.1675 -0.1344
 3440TIP3    H231812   6.250   3.051   6.146  0.1039  0.0592 -0.7911
 3441TIP3   OH231813   5.861   0.613  13.302  0.4846  0.1397  0.5709
 3441TIP3    H131814   5.894   0.559  13.230  0.7320  1.1451 -0.0842
 3441TIP3    H231815   5.766   0.612  13.291  0.5846  1.8568 -0.9791
 3442TIP3   OH231816   0.934   2.105  15.657 -0.0321 -0.4570  0.2758
 3442TIP3    H131817   0.958   2.085  15.566  0.4280 -0.5834  0.4205
 3442TIP3    H231818   1.013   2.085  15.707 -0.0608  0.2751  0.6213
 3443TIP3   OH231819   0.583   3.749  15.155 -0.1348 -0.3979 -0.4660
 3443TIP3    H131820   0.540   3.829  15.183 -0.3364  0.3411 -2.7271
 3443TIP3    H231821   0.675   3.774  15.142 -0.1983 -0.5346 -1.1779
 3444TIP3   OH231822   6.047   2.516  13.652  0.0220  0.7554 -0.1361
 3444TIP3    H131823   6.129   2.535  13.607  1.7375 -0.7225  2.1734
 3444TIP3    H231824   6.021   2.430  13.618 -0.2250  0.9218 -0.3727
 3445TIP3   OH231825   5.092   4.262   1.653 -0.4887 -0.2995  0.3454
 3445TIP3    H131826   5.005   4.222   1.649  0.7799 -3.7615  2.3066
 3445TIP3    H231827   5.113   4.263   1.747  1.5670  0.5038 -0.0710
 3446TIP3   OH231828   3.598   4.623   3.636  0.3300 -0.2097 -0.5547
 3446TIP3    H131829   3.676   4.605   3.687  0.1031  1.3077  0.3941
 3446TIP3    H231830   3.554   4.538   3.628  0.8303 -0.6454  1.0102
 3447TIP3   OH231831   3.023   2.771  17.123  0.1218  0.7429 -0.6458
 3447TIP3    H131832   3.087   2.775  17.193 -0.1210  1.0541 -0.4432
 3447TIP3    H231833   2.942   2.743  17.165 -0.2501  1.7869 -0.6409
 3448TIP3   OH231834   3.833   1.322  16.413  0.6452  0.1280  0.3954
 3448TIP3    H131835   3.780   1.375  16.472 -1.3325  0.2264 -1.3594
 3448TIP3    H231836   3.854   1.243  16.464 -1.0505  0.1607  1.2124
 3449TIP3   OH231837   5.023   3.709   1.856  0.9108 -0.2392 -0.1606
 3449TIP3    H131838   4.970   3.786   1.872  1.1354 -0.4113  1.5122
 3449TIP3    H231839   5.069   3.692   1.938  1.6958 -1.5211 -0.8138
 3450TIP3   OH231840   1.874   4.213  15.988  0.2314  0.1916  0.0785
 3450TIP3    H131841   1.911   4.194  16.074  1.3728  0.4429 -0.3506
 3450TIP3    H231842   1.926   4.285  15.954 -1.4103  1.3767 -0.0605
 3451TIP3   OH231843   1.523   2.683  15.995  0.3155  0.2158 -0.4688
 3451TIP3    H131844   1.430   2.664  16.000  0.4877 -0.8475 -0.9136
 3451TIP3    H231845   1.551   2.644  15.912  1.5831 -1.5932  0.7102
 3452TIP3   OH231846   2.565   1.601   3.357 -0.1204 -0.1732  0.1466
 3452TIP3    H131847   2.574   1.538   3.428 -3.6477  0.4531  1.3357
 3452TIP3    H231848   2.550   1.685   3.400 -0.0735  0.6506 -1.3564
 3453TIP3   OH231849   6.160   0.523   2.346  0.0095  1.0317 -0.3629
 3453TIP3    H131850   6.224   0.488   2.408  0.3321  1.2281 -0.5802
 3453TIP3    H231851   6.134   0.447   2.293  0.2334  0.9958 -0.4213
 3454TIP3   OH231852   4.956   6.395  15.929 -0.0035 -0.6690 -0.1765
 3454TIP3    H131853   4.989   6.332  15.993  0.6527  1.1495  1.4015
 3454TIP3    H231854   4.974   6.481  15.969 -1.3697  0.5197 -1.9339
 3455TIP3   OH231855   6.489   5.228   0.282 -0.9514  0.0818 -0.2294
 3455TIP3    H131856   6.513   5.298   0.222 -1.2403  0.4250  0.0482
 3455TIP3    H231857   6.568   5.176   0.291 -1.1367 -0.4738 -1.5611
 3456TIP3   OH231858   2.633   5.419  16.291 -0.2468 -0.6263  0.3685
 3456TIP3    H131859   2.707   5.449  16.344 -0.0740  2.5632 -1.3811
 3456TIP3    H231860   2.555   5.450  16.338 -0.1593  0.8112 -0.3739
 3457TIP3   OH231861   0.177   3.143   1.347 -0.3385 -0.3532 -0.4224
 3457TIP3    H131862   0.101   3.193   1.317  0.4090  1.1366  0.0200
 3457TIP3    H231863   0.142   3.085   1.415 -1.2774 -0.5924 -1.0909
 3458TIP3   OH231864   2.582   0.810  14.710  0.0730 -0.3075 -0.0835
 3458TIP3    H131865   2.580   0.735  14.769  1.0233 -0.1385  0.1819
 3458TIP3    H231866   2.506   0.863  14.736  0.3358 -0.3558  0.8345
 3459TIP3   OH231867   5.354   2.344  15.570 -0.1177  0.2605  0.8453
 3459TIP3    H131868   5.395   2.298  15.497 -1.4411 -0.0886  0.2991
 3459TIP3    H231869   5.373   2.290  15.646 -0.1491 -0.2550  0.4885
 3460TIP3   OH231870   0.607   4.786   2.982 -0.3582 -0.1765  0.3342
 3460TIP3    H131871   0.573   4.715   2.927  0.7627  0.4710 -1.2757
 3460TIP3    H231872   0.660   4.741   3.048 -0.0497 -0.8760 -0.3706
 3461TIP3   OH231873   1.560   1.679   3.795  0.0298  0.3074  0.3190
 3461TIP3    H131874   1.560   1.584   3.810  1.5149  0.2563  0.1884
 3461TIP3    H231875   1.501   1.692   3.721  0.5052 -0.6287 -0.2439
 3462TIP3   OH231876   3.921   0.346   4.899  0.1633  0.0182  0.1994
 3462TIP3    H131877   3.891   0.389   4.818 -2.4799  0.3787  1.2717
 3462TIP3    H231878   3.931   0.254   4.876 -0.7357  0.0904 -0.4999
 3463TIP3   OH231879   3.700   3.577   6.119 -0.7600  0.4478 -0.0255
 3463TIP3    H131880   3.680   3.568   6.026  1.3544  1.7390 -0.6971
 3463TIP3    H231881   3.793   3.555   6.126 -0.8466  0.4687  1.7683
 3464TIP3   OH231882   2.550   4.927  15.133 -0.0912  0.3702  0.2744
 3464TIP3    H131883   2.540   4.852  15.193 -3.7061 -1.3184 -2.0965
 3464TIP3    H231884   2.642   4.923  15.105  0.1288 -2.5311  1.0600
 3465TIP3   OH231885   4.610   0.281   0.697  0.2617 -0.0567  0.3088
 3465TIP3    H131886   4.531   0.313   0.740 -0.4681 -1.9141  0.4146
 3465TIP3    H231887   4.589   0.192   0.669  1.4201  0.3300 -2.0559
 3466TIP3   OH231888   2.942   3.368   6.191  0.4401 -0.0219  0.0348
 3466TIP3    H131889   3.018   3.425   6.202 -0.1685  0.6530  0.8108
 3466TIP3    H231890   2.953   3.331   6.103  1.1076  0.8994 -0.2893
 3467TIP3   OH231891   4.131   1.446  13.185 -0.8646  0.5736 -0.4153
 3467TIP3    H131892   4.100   1.401  13.107 -1.1253  0.4694 -0.2528
 3467TIP3    H231893   4.106   1.388  13.258 -0.2326  0.4486 -0.2821
 3468TIP3   OH231894   3.873   5.050   5.226 -0.2035 -0.3463  0.5304
 3468TIP3    H131895   3.843   4.984   5.289 -0.2409 -1.5342 -0.7074
 3468TIP3    H231896   3.805   5.117   5.229 -0.9035 -1.0478  0.7503
 3469TIP3   OH231897   6.118   4.017   0.330  0.0282 -0.2651  0.3422
 3469TIP3    H131898   6.198   3.967   0.315  0.2884  0.1784  0.2127
 3469TIP3    H231899   6.135   4.065   0.412  0.5857  1.1508 -0.5666
 3470TIP3   OH231900   5.011   2.555  17.090  0.1073  0.2735  0.1163
 3470TIP3    H131901   5.002   2.472  17.044  0.2252 -0.7695  1.8853
 3470TIP3    H231902   4.970   2.620  17.032 -1.3104 -1.2443 -0.6341
 3471TIP3   OH231903   3.376   5.223   1.455 -0.0618  0.0121  0.0063
 3471TIP3    H131904   3.370   5.205   1.548 -0.0338 -0.8255 -0.1435
 3471TIP3    H231905   3.312   5.164   1.415 -1.2028  1.4520 -0.3939
 3472TIP3   OH231906   3.159   0.980  14.621 -0.1225  0.0726 -0.2126
 3472TIP3    H131907   3.246   0.944  14.608  0.6239  1.6524  0.1516
 3472TIP3    H231908   3.139   1.025  14.538 -0.1330  0.5932  0.0651
 3473TIP3   OH231909   3.787   1.255  12.591  0.1132  0.8537 -0.7144
 3473TIP3    H131910   3.735   1.177  12.568  1.6539 -0.6443  0.5775
 3473TIP3    H231911   3.724   1.315  12.630 -0.8527 -0.5089 -0.0655
 3474TIP3   OH231912   0.569   4.213  17.151  0.0747  0.1637 -0.3240
 3474TIP3    H131913   0.577   4.122  17.121  0.2057  0.5640 -1.5559
 3474TIP3    H231914   0.511   4.255  17.087 -1.0487  0.6499  0.9617
 3475TIP3   OH231915   0.948   1.654  10.664  0.5438  0.3641  0.0295
 3475TIP3    H131916   1.042   1.643  10.681  0.8050 -0.7795 -1.8984
 3475TIP3    H231917   0.915   1.701  10.741  2.8889  1.8159  0.2423
 3476TIP3   OH231918   5.394   6.180   3.999  0.2020  0.2185 -0.1092
 3476TIP3    H131919   5.333   6.240   3.957  1.6618  0.2060 -2.4733
 3476TIP3    H231920   5.339   6.117   4.046 -1.4853  1.2993 -0.5738
 3477TIP3   OH231921   0.636   2.743   2.050  0.0168  0.0994  0.3683
 3477TIP3    H131922   0.544   2.723   2.066 -0.1218 -0.6327 -1.1861
 3477TIP3    H231923   0.634   2.818   1.990  0.2259 -2.6471 -3.4172
 3478TIP3   OH231924   2.055   3.218  16.089 -0.0108 -0.3293  0.1266
 3478TIP3    H131925   2.024   3.255  16.007  0.7528 -0.5563 -0.2805
 3478TIP3    H231926   2.040   3.123  16.080  1.1992 -0.4994 -0.2773
 3479TIP3   OH231927   2.620   2.240  16.338 -0.1598  0.2790 -0.3861
 3479TIP3    H131928   2.569   2.160  16.324  0.5811 -0.4834  1.0895
 3479TIP3    H231929   2.699   2.227  16.286  0.4087 -0.4083  0.6262
 3480TIP3   OH231930   2.856   3.969   1.422  0.2147  0.6200 -0.0077
 3480TIP3    H131931   2.912   4.035   1.462  1.5225  0.6209 -1.7132
 3480TIP3    H231932   2.827   4.010   1.340 -1.6128  0.2729  0.4171
 3481TIP3   OH231933   0.514   4.153   6.107 -0.0201  0.2131  0.1800
 3481TIP3    H131934   0.444   4.098   6.143 -0.2724 -0.8834 -1.7906
 3481TIP3    H231935   0.558   4.190   6.183 -0.5642 -1.8568  1.5807
 3482TIP3   OH231936   5.088   4.784   3.894  0.4276  0.4851  0.1976
 3482TIP3    H131937   4.994   4.781   3.877  0.5485  1.4489 -0.7105
 3482TIP3    H231938   5.126   4.823   3.816  1.5877  0.1772  0.5789
 3483TIP3   OH231939   5.292   0.191   2.562 -0.3380  0.5260  0.0773
 3483TIP3    H131940   5.251   0.268   2.521 -1.6220 -0.1777  0.0174
 3483TIP3    H231941   5.220   0.144   2.603  0.0467 -1.8748 -1.8218
 3484TIP3   OH231942   4.036   5.572  12.295  0.9121 -0.6518  0.3159
 3484TIP3    H131943   3.971   5.639  12.314  1.6128 -0.0913  0.8067
 3484TIP3    H231944   4.093   5.612  12.229  1.6364 -0.5407  0.9838
 3485TIP3   OH231945   4.400   3.755  15.989 -0.8085 -0.1845 -0.5259
 3485TIP3    H131946   4.304   3.751  15.993 -0.8940 -0.3174 -2.0468
 3485TIP3    H231947   4.419   3.847  15.973 -0.7789 -0.3571 -1.5830
 3486TIP3   OH231948   6.825   2.840   5.365 -0.2617  0.4038 -0.3200
 3486TIP3    H131949   6.905   2.844   5.312  0.8029 -1.3623  1.0218
 3486TIP3    H231950   6.857   2.831   5.455 -1.9476  4.7021  0.9654
 3487TIP3   OH231951   3.530   5.129  16.592 -0.5222 -0.1303 -0.0189
 3487TIP3    H131952   3.548   5.101  16.682 -0.7510  0.4892  0.2299
 3487TIP3    H231953   3.574   5.064  16.537  0.1645 -0.1578  0.5473
 3488TIP3   OH231954   4.161   6.642  16.047  0.7220  0.0772  0.6231
 3488TIP3    H131955   4.147   6.678  16.135 -2.4020  1.8595 -0.4578
 3488TIP3    H231956   4.208   6.710  16.000  1.0530 -0.2389  0.4921
 3489TIP3   OH231957   3.913   5.645  16.483  0.2375  0.8651 -0.2764
 3489TIP3    H131958   3.827   5.635  16.443  0.7684 -0.0237 -1.2511
 3489TIP3    H231959   3.970   5.676  16.413  1.2768 -1.1339 -0.3951
 3490TIP3   OH231960   6.475   5.126   0.963 -0.3758  0.0155  0.5181
 3490TIP3    H131961   6.398   5.110   1.017 -0.7496 -1.9791 -0.5020
 3490TIP3    H231962   6.487   5.045   0.914  0.6064  1.3202 -1.5645
 3491TIP3   OH231963   6.610   6.298  12.422 -0.3332  0.2264  0.8563
 3491TIP3    H131964   6.563   6.216  12.406 -1.6721  1.2301 -0.6783
 3491TIP3    H231965   6.581   6.357  12.352  1.8397  1.5136  0.9428
 3492TIP3   OH231966   4.288   2.079  11.947 -0.0032  0.0935  0.4529
 3492TIP3    H131967   4.257   2.037  11.867  0.9022  1.0980 -0.4779
 3492TIP3    H231968   4.383   2.085  11.936  0.1883 -0.0892  1.7894
 3493TIP3   OH231969   6.200   6.114  13.814  0.0904  0.3081 -0.2230
 3493TIP3    H131970   6.280   6.166  13.805  0.0482  0.1576 -1.7577
 3493TIP3    H231971   6.161   6.145  13.896 -0.2112  3.1041 -1.2905
 3494TIP3   OH231972   3.784   0.646   0.851 -0.6708 -0.0631 -0.5067
 3494TIP3    H131973   3.692   0.623   0.862 -1.1614  1.4674 -1.1235
 3494TIP3    H231974   3.790   0.682   0.762 -0.0007  2.0335  0.2992
 3495TIP3   OH231975   0.857   4.459   1.701 -0.0400  0.1172  0.4606
 3495TIP3    H131976   0.859   4.522   1.629 -2.0623  2.5726  2.3752
 3495TIP3    H231977   0.940   4.473   1.747  1.0695 -1.1633 -1.0262
 3496TIP3   OH231978   1.602   3.819  16.561 -0.1292 -0.1462 -0.4147
 3496TIP3    H131979   1.565   3.905  16.583 -0.9469 -0.5270 -0.2751
 3496TIP3    H231980   1.567   3.799  16.475 -0.9538 -0.8961  0.0830
 3497TIP3   OH231981   6.562   3.260  12.120 -0.3343 -1.1083 -0.1403
 3497TIP3    H131982   6.509   3.221  12.050 -1.5675 -0.6212  0.4911
 3497TIP3    H231983   6.645   3.281  12.078 -0.8514 -1.3197 -1.3212
 3498TIP3   OH231984   1.231   0.229  16.265 -0.0920 -0.1868  0.2719
 3498TIP3    H131985   1.237   0.140  16.301  2.5794 -0.0013  0.4407
 3498TIP3    H231986   1.220   0.285  16.341 -0.8859 -0.2842  0.2365
 3499TIP3   OH231987   6.755   3.697  13.176  0.2992  0.3398  0.2142
 3499TIP3    H131988   6.819   3.761  13.207  0.5591 -0.2016  0.8266
 3499TIP3    H231989   6.747   3.634  13.248  0.2021 -0.4282 -0.4471
 3500TIP3   OH231990   0.540   1.588   1.622  0.3947 -0.1730  0.4552
 3500TIP3    H131991   0.565   1.527   1.691  0.8025  0.9380  1.3160
 3500TIP3    H231992   0.492   1.657   1.667 -0.9660 -0.3647 -0.6557
 3501TIP3   OH231993   2.011   1.797   3.592  0.4169  0.4218  0.1337
 3501TIP3    H131994   1.933   1.850   3.575  0.0180 -0.4858 -0.9894
 3501TIP3    H231995   1.978   1.707   3.597  1.1980  0.1781  1.1830
 3502TIP3   OH231996   3.968   6.416  15.912  0.2761  0.0767  0.2609
 3502TIP3    H131997   3.921   6.473  15.974  0.0195  1.8421 -1.4645
 3502TIP3    H231998   4.053   6.459  15.900  0.0958  0.0928 -1.0476
 3503TIP3   OH231999   0.855   4.887   2.831  0.2914  0.6073 -0.1056
 3503TIP3    H132000   0.776   4.928   2.868 -0.4799 -1.6452  0.9202
 3503TIP3    H232001   0.871   4.811   2.887  1.8427 -0.3142 -1.7027
 3504TIP3   OH232002   1.335   4.578  11.101  0.2486  0.2101  0.1637
 3504TIP3    H132003   1.275   4.512  11.066 -0.7499  0.0608  2.0152
 3504TIP3    H232004   1.301   4.661  11.067  1.4911 -0.1400 -2.1502
 3505TIP3   OH232005   6.405   2.967  13.718  0.2405 -0.2287 -0.2141
 3505TIP3    H132006   6.469   3.037  13.716 -1.3036  1.2384 -1.6951
 3505TIP3    H232007   6.429   2.910  13.645  0.1309  0.0896 -0.5024
 3506TIP3   OH232008   3.265   4.601  15.756 -0.2213  0.0362  0.4871
 3506TIP3    H132009   3.223   4.636  15.678  1.2143  2.3397  0.6813
 3506TIP3    H232010   3.296   4.678  15.804  1.0053 -1.4167  2.1546
 3507TIP3   OH232011   2.384   4.612  13.196  0.3638  1.0177  0.0092
 3507TIP3    H132012   2.476   4.624  13.220  0.8850  0.5920 -1.6782
 3507TIP3    H232013   2.374   4.656  13.112 -0.6708  0.0396 -0.4111
 3508TIP3   OH232014   3.178   6.796  14.502 -0.5763 -0.1702  0.0509
 3508TIP3    H132015   3.149   6.860  14.567 -1.5227  0.3404 -0.8459
 3508TIP3    H232016   3.147   6.831  14.418 -0.7954 -1.6087 -0.4944
 3509TIP3   OH232017   0.859   0.704   4.209 -0.0500  0.2970  0.1419
 3509TIP3    H132018   0.814   0.746   4.135  0.7323  1.3339  0.2317
 3509TIP3    H232019   0.841   0.761   4.283  1.6337  0.9238  0.1160
 3510TIP3   OH232020   5.706   2.228   3.075 -0.2500  0.2589 -0.3474
 3510TIP3    H132021   5.633   2.272   3.030  0.5509  2.5650  0.4590
 3510TIP3    H232022   5.782   2.246   3.020  0.2389  0.6280  0.4276
 3511TIP3   OH232023   0.549   2.942   4.748 -0.0246  0.1017  0.2623
 3511TIP3    H132024   0.526   3.013   4.687  0.1511 -1.2961 -1.5165
 3511TIP3    H232025   0.477   2.940   4.810 -0.7940  0.8609 -0.5631
 3512TIP3   OH232026   3.884   5.298   5.498  0.3383 -0.3295 -0.5131
 3512TIP3    H132027   3.873   5.350   5.577 -0.5944  0.5359 -1.1900
 3512TIP3    H232028   3.910   5.361   5.431 -1.2786 -0.6229 -1.4581
 3513TIP3   OH232029   2.390   3.364   5.840 -0.8361  0.3822  0.3404
 3513TIP3    H132030   2.440   3.427   5.892 -2.5653  1.2782  1.0038
 3513TIP3    H232031   2.403   3.392   5.749  0.9198 -0.2348  0.3536
 3514TIP3   OH232032   1.426   5.971   2.213  0.3274 -0.0542  0.5105
 3514TIP3    H132033   1.388   6.055   2.189 -0.4925 -0.2675  1.0150
 3514TIP3    H232034   1.352   5.911   2.216  0.8438 -0.6980  0.5673
 3515TIP3   OH232035   4.450   1.944  13.106  0.5139 -0.1063 -0.5226
 3515TIP3    H132036   4.385   1.909  13.167  1.1174  0.4959  0.5036
 3515TIP3    H232037   4.493   1.867  13.069  0.9383 -0.5071  0.7282
 3516TIP3   OH232038   3.511   2.141  16.415 -0.1817 -0.4028 -0.0479
 3516TIP3    H132039   3.475   2.064  16.459  0.8640 -0.1932  1.2200
 3516TIP3    H232040   3.439   2.203  16.413 -1.4725 -1.8109 -2.2719
 3517TIP3   OH232041   2.265   5.691   0.449  0.2761  0.0072 -0.2602
 3517TIP3    H132042   2.319   5.654   0.519  0.3547 -1.0693 -0.8789
 3517TIP3    H232043   2.248   5.618   0.389 -2.2410  0.1726  0.1252
 3518TIP3   OH232044   2.396   0.802   1.430  0.2510  0.7612  0.5390
 3518TIP3    H132045   2.406   0.887   1.473 -1.9010  0.7220  1.2346
 3518TIP3    H232046   2.312   0.807   1.385  0.1646 -0.9242  0.4339
 3519TIP3   OH232047   0.041   3.540  14.074 -0.1322  0.6176 -0.5290
 3519TIP3    H132048  -0.008   3.620  14.056  0.8849  1.3791 -0.0199
 3519TIP3    H232049   0.025   3.522  14.167 -0.0997  0.4039 -0.5634
 3520TIP3   OH232050   1.883   2.233  15.643  1.1146  0.9178  0.7203
 3520TIP3    H132051   1.810   2.211  15.585  1.3916  1.3659  0.1922
 3520TIP3    H232052   1.862   2.189  15.725  1.3824 -0.8941 -0.1240
 3521TIP3   OH232053   5.872   3.785  13.848 -0.2476 -0.1117  0.2348
 3521TIP3    H132054   5.905   3.745  13.928  1.4171  0.4923 -0.1012
 3521TIP3    H232055   5.941   3.847  13.822  0.1178 -1.4948 -2.5571
 3522TIP3   OH232056   5.719   6.739  13.936  0.2589 -0.5535  0.0654
 3522TIP3    H132057   5.731   6.647  13.960 -0.1617 -0.3615  1.0363
 3522TIP3    H232058   5.654   6.737  13.866 -1.0901 -0.8793  1.2871
 3523TIP3   OH232059   3.746   6.227  14.861  0.0080  0.4717 -0.1295
 3523TIP3    H132060   3.681   6.278  14.812  0.3167  1.0685  0.0785
 3523TIP3    H232061   3.702   6.206  14.943 -0.4411 -0.3666 -0.5612
 3524TIP3   OH232062   0.011   3.020   1.527 -0.3935  0.1369 -1.0738
 3524TIP3    H132063   0.080   2.997   1.590 -1.4925  0.8688  0.4698
 3524TIP3    H232064  -0.004   2.939   1.478 -2.0431 -1.7486  2.1433
 3525TIP3   OH232065   0.143   0.187   0.775  0.6203  0.2752 -0.0525
 3525TIP3    H132066   0.072   0.235   0.817  0.3049  0.3562 -0.6657
 3525TIP3    H232067   0.102   0.105   0.746  1.1908 -0.4582  1.1335
 3526TIP3   OH232068   1.512   2.555  14.479  0.6426  0.5465  0.1803
 3526TIP3    H132069   1.521   2.511  14.394 -0.0164  0.8148 -0.0425
 3526TIP3    H232070   1.459   2.495  14.531 -0.9846  1.3937 -0.4041
 3527TIP3   OH232071   5.259   5.696  14.789  0.2678 -0.4248 -0.0738
 3527TIP3    H132072   5.335   5.653  14.751  0.8744  0.4728  0.1013
 3527TIP3    H232073   5.266   5.788  14.762  0.1442  0.0116  1.2906
 3528TIP3   OH232074   1.894   0.481  13.907 -0.4982  0.3356  0.2960
 3528TIP3    H132075   1.920   0.398  13.867 -0.3841  0.5476 -0.0751
 3528TIP3    H232076   1.926   0.548  13.846 -1.8003  0.6131 -0.1236
 3529TIP3   OH232077   3.257   1.102  10.662  0.0438  0.4522  0.1439
 3529TIP3    H132078   3.214   1.075  10.743  0.2883  0.4834  0.2861
 3529TIP3    H232079   3.191   1.088  10.594  0.0491 -0.1700  0.2626
 3530TIP3   OH232080   5.843   6.725   3.943 -0.1965  0.2464  0.2460
 3530TIP3    H132081   5.923   6.777   3.954  1.0568 -1.5165 -0.2217
 3530TIP3    H232082   5.800   6.764   3.868  1.3895 -0.1542 -0.9213
 3531TIP3   OH232083   4.194   0.164   2.288 -0.0942  0.0017 -0.5568
 3531TIP3    H132084   4.175   0.129   2.375 -0.2334 -0.6680 -0.8538
 3531TIP3    H232085   4.286   0.190   2.293 -0.4830  1.2978  0.2243
 3532TIP3   OH232086   4.893   5.833   6.454  0.0473 -0.8217  0.5268
 3532TIP3    H132087   4.878   5.800   6.542  1.2360 -1.8475  0.3770
 3532TIP3    H232088   4.986   5.858   6.453  0.0571 -0.8384 -0.4222
 3533TIP3   OH232089   3.991   5.269   0.608  0.2751  0.0990 -0.8154
 3533TIP3    H132090   4.010   5.360   0.632  0.3787  0.3644 -1.8347
 3533TIP3    H232091   3.931   5.238   0.676 -1.1810  1.4998 -1.4030
 3534TIP3   OH232092   5.367   0.837  16.597  0.1267 -0.3451 -0.2852
 3534TIP3    H132093   5.366   0.838  16.501  1.0237 -0.6671 -0.3086
 3534TIP3    H232094   5.348   0.927  16.622 -1.5674 -0.5557 -0.7351
 3535TIP3   OH232095   4.658   3.553  13.757 -0.0862 -0.1889 -0.0374
 3535TIP3    H132096   4.641   3.466  13.722  0.0145  0.4063 -1.6664
 3535TIP3    H232097   4.577   3.601  13.741  0.6369  0.6629 -1.3564
 3536TIP3   OH232098   5.009   6.216  16.604 -0.4752 -0.1154 -0.0913
 3536TIP3    H132099   4.996   6.210  16.698  0.5047 -0.9896  0.0164
 3536TIP3    H232100   4.946   6.281  16.574 -0.1807  0.8447  1.2933
 3537TIP3   OH232101   6.372   5.834  13.803  0.8267  0.0195  0.1492
 3537TIP3    H132102   6.305   5.829  13.871  0.6416 -1.8682 -0.1157
 3537TIP3    H232103   6.355   5.758  13.747  1.7852  0.7881 -1.2449
 3538TIP3   OH232104   2.875   3.312  12.663  0.1707  0.3303 -0.2438
 3538TIP3    H132105   2.814   3.321  12.736  1.2260  0.6289  0.6427
 3538TIP3    H232106   2.954   3.358  12.693  0.0060  2.1125 -2.3322
 3539TIP3   OH232107   5.344   3.261  16.495  0.3859 -0.0791  0.1565
 3539TIP3    H132108   5.249   3.272  16.491  0.4118 -0.2671 -2.2493
 3539TIP3    H232109   5.357   3.179  16.542 -0.6911 -0.5834 -0.4040
 3540TIP3   OH232110   3.205   1.600  15.392  0.2638  0.2431 -0.1641
 3540TIP3    H132111   3.163   1.619  15.308 -1.9709  0.6920  0.9459
 3540TIP3    H232112   3.239   1.685  15.421  1.1684  0.0583 -0.6648
 3541TIP3   OH232113   6.647   6.778  17.164 -0.0052  0.2364  0.3231
 3541TIP3    H132114   6.591   6.770  17.242 -0.9444  2.6259  0.0046
 3541TIP3    H232115   6.736   6.765  17.197 -0.4047  0.9589  1.7847
 3542TIP3   OH232116   4.351   2.457  17.289  0.0812 -0.9123 -0.6066
 3542TIP3    H132117   4.419   2.422  17.346 -1.9418 -0.3416  2.4016
 3542TIP3    H232118   4.360   2.552  17.294 -1.1006 -0.8153  0.1471
 3543TIP3   OH232119   5.750   0.191   2.027  0.1457 -0.3361  0.2723
 3543TIP3    H132120   5.752   0.283   2.050  0.1386 -0.7646  2.0781
 3543TIP3    H232121   5.815   0.150   2.083 -0.3319 -1.5405 -0.0180
 3544TIP3   OH232122   5.056   1.887   2.636 -0.0715 -0.7610 -0.0581
 3544TIP3    H132123   5.011   1.967   2.606 -0.5572 -0.7343  0.7200
 3544TIP3    H232124   5.112   1.917   2.707 -1.0645 -1.2709  0.9718
 3545TIP3   OH232125   2.915   5.586   2.319 -0.3257  0.5550  0.2050
 3545TIP3    H132126   2.840   5.541   2.281  1.3922 -3.2336  0.8189
 3545TIP3    H232127   2.896   5.591   2.413  0.5220 -1.3526  0.5169
 3546TIP3   OH232128   0.952   1.416   4.408  0.4933 -0.5424 -0.1076
 3546TIP3    H132129   1.023   1.357   4.433  0.6200 -0.0604  0.7120
 3546TIP3    H232130   0.873   1.362   4.411  0.5990 -0.6613  0.7042
 3547TIP3   OH232131   4.241   0.934  15.918  0.2497 -0.1954 -0.4886
 3547TIP3    H132132   4.230   0.924  15.823 -1.1095 -1.1426 -0.2580
 3547TIP3    H232133   4.266   0.847  15.949  0.8540  0.1484  0.0163
 3548TIP3   OH232134   6.320   0.315   0.610  0.0843  0.1092  0.1821
 3548TIP3    H132135   6.274   0.322   0.527  1.1194 -1.2978 -0.5359
 3548TIP3    H232136   6.259   0.351   0.674 -0.7977  1.0467 -1.1444
 3549TIP3   OH232137   0.542   3.940   5.249 -0.0455 -0.2538 -0.8094
 3549TIP3    H132138   0.515   3.889   5.325  1.4994  0.8169  0.5481
 3549TIP3    H232139   0.478   4.011   5.243  0.5093  0.3642  0.3001
 3550TIP3   OH232140   4.180   2.238   0.100 -0.0349  0.3086 -0.1981
 3550TIP3    H132141   4.215   2.319   0.064 -0.5770  0.4742 -0.3524
 3550TIP3    H232142   4.249   2.206   0.159  0.6303  0.3194 -0.9576
 3551TIP3   OH232143   5.121   2.411  16.763 -0.3420  0.3621  0.1146
 3551TIP3    H132144   5.098   2.335  16.710  0.0408  0.1886  0.1922
 3551TIP3    H232145   5.073   2.399  16.845 -0.0996  0.0806  0.2186
 3552TIP3   OH232146   6.715   1.815  13.004  0.2417  0.0396 -0.3364
 3552TIP3    H132147   6.705   1.812  13.100 -0.9650 -0.7901 -0.4639
 3552TIP3    H232148   6.715   1.909  12.983  0.8708  0.2424  0.4928
 3553TIP3   OH232149   1.026   2.706  10.470 -0.1979  0.4369  0.3192
 3553TIP3    H132150   0.969   2.667  10.404 -0.0047 -0.1903  0.5167
 3553TIP3    H232151   1.041   2.636  10.533 -0.4388  1.0478  1.0759
 3554TIP3   OH232152   5.806   5.616  15.032 -0.1446  0.2009  0.3419
 3554TIP3    H132153   5.840   5.703  15.054 -4.0079  2.1651 -0.6002
 3554TIP3    H232154   5.764   5.586  15.113  0.5526 -0.5251  0.4510
 3555TIP3   OH232155   0.601   5.817  16.201 -0.8411 -0.1031  0.4341
 3555TIP3    H132156   0.576   5.727  16.218 -0.4426 -0.4284 -0.6266
 3555TIP3    H232157   0.634   5.849  16.285 -0.4922 -1.1087  0.6970
 3556TIP3   OH232158   5.726   5.981   6.306 -0.0712 -0.1614  0.3548
 3556TIP3    H132159   5.708   5.945   6.392 -0.8362 -0.9387 -0.1170
 3556TIP3    H232160   5.776   5.913   6.261 -1.3895 -0.6108 -0.4930
 3557TIP3   OH232161   0.250   6.634  13.902 -0.1902  0.2771  0.2281
 3557TIP3    H132162   0.267   6.540  13.907 -1.8119  0.0299  2.7192
 3557TIP3    H232163   0.287   6.661  13.818 -1.4663 -2.9280 -1.4905
 3558TIP3   OH232164   3.063   5.892   0.148  0.3305  0.3236  0.3910
 3558TIP3    H132165   3.120   5.961   0.182  0.8435 -0.4444  1.1163
 3558TIP3    H232166   3.011   5.936   0.081 -1.4830  2.1889  2.8241
 3559TIP3   OH232167   0.540   2.228   0.494 -0.3681  0.3022 -0.6909
 3559TIP3    H132168   0.445   2.238   0.507 -0.0535  0.3335  2.4561
 3559TIP3    H232169   0.564   2.157   0.554  1.7904  1.1989 -0.4188
 3560TIP3   OH232170   2.577   4.448  12.954  0.0635 -0.2208 -0.1332
 3560TIP3    H132171   2.508   4.514  12.964  0.8003  0.5879 -0.2490
 3560TIP3    H232172   2.560   4.384  13.023 -1.8641 -1.0074 -1.2651
 3561TIP3   OH232173   2.673   4.177   1.974  1.0572 -0.2572 -0.8039
 3561TIP3    H132174   2.739   4.142   2.034  0.8353  0.4308 -0.1356
 3561TIP3    H232175   2.684   4.272   1.980 -2.2441  0.1631  2.0804
 3562TIP3   OH232176   2.778   4.051   2.441 -0.8624 -0.1873  0.1608
 3562TIP3    H132177   2.789   4.082   2.351  0.4860  0.2106  0.4450
 3562TIP3    H232178   2.793   4.128   2.495 -1.9721 -0.3535  0.7445
 3563TIP3   OH232179   4.896   5.397  11.209  0.1268 -0.1618  0.3171
 3563TIP3    H132180   4.974   5.403  11.155  0.3729 -0.2917  0.6586
 3563TIP3    H232181   4.824   5.388  11.147  0.2398  1.2794 -0.0630
 3564TIP3   OH232182   0.197   0.749   5.899 -0.2475 -0.2563  0.0197
 3564TIP3    H132183   0.271   0.689   5.890 -0.2643 -0.1686 -0.8014
 3564TIP3    H232184   0.167   0.763   5.809  0.1034  1.4048  0.1355
 3565TIP3   OH232185   1.484   2.472  11.209 -0.7894 -0.3107 -0.1638
 3565TIP3    H132186   1.569   2.429  11.211 -0.8853 -0.4794  0.2490
 3565TIP3    H232187   1.504   2.563  11.184 -0.2873  0.1070  1.5954
 3566TIP3   OH232188   2.542   4.562  12.336 -0.2386 -0.8198  0.3059
 3566TIP3    H132189   2.526   4.649  12.373  2.0516 -0.2856  0.2151
 3566TIP3    H232190   2.616   4.575  12.277 -0.5013 -2.6591 -0.4822
 3567TIP3   OH232191   5.232   2.654  16.777 -0.2107 -0.5514  0.0194
 3567TIP3    H132192   5.156   2.712  16.767 -0.6873 -1.3284 -0.9569
 3567TIP3    H232193   5.198   2.566  16.760  1.0441 -0.8452 -1.1719
 3568TIP3   OH232194   6.490   0.968  14.597  0.5132  0.1450 -0.5906
 3568TIP3    H132195   6.522   0.883  14.624 -0.3737  0.2697  0.9521
 3568TIP3    H232196   6.516   1.028  14.668 -1.4174  0.5811 -0.1949
 3569TIP3   OH232197   3.701   0.131  12.068  0.2030 -0.2619  0.1678
 3569TIP3    H132198   3.640   0.191  12.111  1.1390  0.8378  0.0068
 3569TIP3    H232199   3.676   0.044  12.100  1.8702  0.5314  4.3914
 3570TIP3   OH232200   2.434   4.014   4.422  0.1932  0.2268 -0.0634
 3570TIP3    H132201   2.396   3.935   4.383  2.4754 -0.0547 -1.9430
 3570TIP3    H232202   2.367   4.081   4.411 -0.7950 -0.8422 -0.7875
 3571TIP3   OH232203   3.051   2.166  16.466  0.9325  0.2225 -0.0342
 3571TIP3    H132204   3.092   2.081  16.447  2.0171  0.6277  0.4463
 3571TIP3    H232205   3.045   2.169  16.561  2.6418  1.4595  0.0822
 3572TIP3   OH232206   3.820   6.044   3.509  0.1871  0.2781  0.2739
 3572TIP3    H132207   3.764   6.120   3.491  0.1156  0.7344  2.2084
 3572TIP3    H232208   3.869   6.031   3.428 -2.6003 -0.0841 -1.5028
 3573TIP3   OH232209   1.801   0.301  10.435  0.7335  0.3118  0.2835
 3573TIP3    H132210   1.786   0.332  10.346 -0.5273 -0.7451  0.1044
 3573TIP3    H232211   1.891   0.329  10.455  1.2833 -0.0107 -1.5506
 3574TIP3   OH232212   1.484   6.747   5.675 -0.1496  0.1389 -0.1540
 3574TIP3    H132213   1.550   6.704   5.731 -0.9241  0.6412  1.1957
 3574TIP3    H232214   1.428   6.794   5.736 -2.4362 -1.1342 -1.1286
 3575TIP3   OH232215   1.228   3.379   1.379 -0.1601  0.0871 -0.3586
 3575TIP3    H132216   1.176   3.389   1.299  0.7175 -0.3595 -1.0090
 3575TIP3    H232217   1.316   3.358   1.347  0.0928 -0.5907  0.7490
 3576TIP3   OH232218   3.184   0.708  11.515  0.8210 -0.2801  0.0253
 3576TIP3    H132219   3.183   0.613  11.502  1.6321 -0.1549 -1.1668
 3576TIP3    H232220   3.204   0.743  11.428 -3.4388  1.2179 -0.6165
 3577TIP3   OH232221   3.647   1.476  15.134  0.1241  0.6185  0.2398
 3577TIP3    H132222   3.568   1.431  15.104  0.0292  1.3260 -0.6435
 3577TIP3    H232223   3.692   1.412  15.189 -0.5467 -0.1573 -0.0873
 3578TIP3   OH232224   6.790   4.104  15.459  0.3851  0.6878 -0.0575
 3578TIP3    H132225   6.758   4.049  15.387 -2.3755  2.6552 -0.4972
 3578TIP3    H232226   6.882   4.081  15.468  0.7708  0.0854 -3.9587
 3579TIP3   OH232227   3.034   1.166   2.813  0.1272  0.1779 -0.0673
 3579TIP3    H132228   3.128   1.155   2.795  0.5301 -0.1522  2.0614
 3579TIP3    H232229   3.031   1.217   2.894 -1.5164 -0.8810  0.5849
 3580TIP3   OH232230   1.075   4.287  14.022 -0.4479 -0.0236 -0.1787
 3580TIP3    H132231   1.075   4.259  14.114  1.9146 -1.9186 -0.6516
 3580TIP3    H232232   1.156   4.337  14.013 -1.9318  2.4942 -0.7107
 3581TIP3   OH232233   4.853   2.775  14.725 -0.1332 -0.0072 -0.0303
 3581TIP3    H132234   4.900   2.707  14.772  0.6335  0.1746 -0.5230
 3581TIP3    H232235   4.766   2.776  14.766 -0.6060 -2.1582 -0.8356
 3582TIP3   OH232236   5.553   0.635   1.747 -0.3759 -0.5801  0.1651
 3582TIP3    H132237   5.508   0.646   1.830 -1.0430  2.6795 -0.4925
 3582TIP3    H232238   5.521   0.707   1.692  3.3335  0.1193 -1.3965
 3583TIP3   OH232239   2.398   1.151  16.490 -0.3748  0.6341 -0.2121
 3583TIP3    H132240   2.360   1.069  16.459  2.1291 -0.5246 -0.5145
 3583TIP3    H232241   2.357   1.165  16.576 -0.2597 -1.4281  0.2406
 3584TIP3   OH232242   3.431   4.608   2.055 -0.1815  0.6131 -0.3471
 3584TIP3    H132243   3.527   4.609   2.066 -0.0399 -1.2728 -1.0149
 3584TIP3    H232244   3.414   4.671   1.986  0.5942  0.8833 -0.3035
 3585TIP3   OH232245   0.000   1.553   1.460 -0.1963  0.3282  0.4037
 3585TIP3    H132246   0.015   1.590   1.373  0.4102  2.0193  1.1929
 3585TIP3    H232247   0.079   1.502   1.478 -0.2978  0.0192  0.0032
 3586TIP3   OH232248   1.980   2.770   1.942 -0.1799  0.1712 -0.6764
 3586TIP3    H132249   1.924   2.780   1.865  1.3015  2.4657 -1.5365
 3586TIP3    H232250   2.069   2.769   1.908  0.5127  1.1479  0.9822
 3587TIP3   OH232251   1.368   6.183  13.835 -0.0641 -0.0365  0.3009
 3587TIP3    H132252   1.375   6.278  13.827 -0.4018 -0.0309  0.0326
 3587TIP3    H232253   1.274   6.165  13.827  0.1094 -0.4981 -0.9290
 3588TIP3   OH232254   3.127   6.231  12.793  0.1673  0.3630 -0.8383
 3588TIP3    H132255   3.170   6.298  12.739  2.3471 -0.1795  0.1166
 3588TIP3    H232256   3.198   6.193  12.844 -1.5828 -0.2122  1.3022
 3589TIP3   OH232257   0.799   2.601  12.383 -0.4043  0.2241 -0.4984
 3589TIP3    H132258   0.722   2.605  12.439 -1.6346 -0.9799 -2.0243
 3589TIP3    H232259   0.852   2.531  12.419 -2.0188 -1.7460 -1.7304
 3590TIP3   OH232260   0.994   5.086   1.732 -0.5578 -0.3222  0.3436
 3590TIP3    H132261   0.990   5.160   1.793 -1.1292 -0.5283  0.5546
 3590TIP3    H232262   1.063   5.030   1.767  0.2585  0.3665 -0.1131
 3591TIP3   OH232263   5.720   0.945   1.857  0.2167 -0.1355  0.0372
 3591TIP3    H132264   5.719   1.036   1.888  2.1200  0.0352 -0.2895
 3591TIP3    H232265   5.737   0.893   1.935  2.2514  0.0749 -0.2194
 3592TIP3   OH232266   3.701   1.197   1.738  0.7298 -0.4403 -0.5507
 3592TIP3    H132267   3.613   1.226   1.759  1.5383  1.0097  1.2075
 3592TIP3    H232268   3.721   1.130   1.804  0.9800 -0.6573 -0.8427
 3593TIP3   OH232269   5.476   2.934  17.172 -0.2161  0.2713 -0.8366
 3593TIP3    H132270   5.450   2.890  17.091 -0.7302  1.5589 -1.4031
 3593TIP3    H232271   5.558   2.977  17.150 -0.8595  1.4616 -1.0167
 3594TIP3   OH232272   1.585   5.126   4.370 -0.0159 -0.3841 -0.3746
 3594TIP3    H132273   1.525   5.192   4.404  0.5499 -0.3529  0.6125
 3594TIP3    H232274   1.576   5.133   4.274 -2.1490 -0.9487 -0.2599
 3595TIP3   OH232275   3.236   3.415  16.643  0.3019  0.0932  0.6353
 3595TIP3    H132276   3.218   3.403  16.549 -2.3901  1.6041  0.8558
 3595TIP3    H232277   3.268   3.505  16.650 -0.0571  0.1806  1.2125
 3596TIP3   OH232278   5.810   2.633  11.083  0.0094  0.2798  0.1196
 3596TIP3    H132279   5.772   2.547  11.062  0.4814 -0.0185  0.4748
 3596TIP3    H232280   5.892   2.613  11.128  0.9876  0.9205 -1.2998
 3597TIP3   OH232281   4.139   0.650   0.967  0.3875  0.4588  0.5808
 3597TIP3    H132282   4.133   0.733   0.920  1.5931  1.7734  2.5967
 3597TIP3    H232283   4.224   0.614   0.939 -0.9577 -1.1715 -1.7861
 3598TIP3   OH232284   1.966   4.283  11.737 -0.1214  0.3835 -0.0791
 3598TIP3    H132285   1.996   4.213  11.795 -1.7576  0.8215  1.3723
 3598TIP3    H232286   2.039   4.345  11.733  0.3641 -0.1290  0.7493
 3599TIP3   OH232287   5.493   4.406   3.161 -0.1345 -0.6746  0.5068
 3599TIP3    H132288   5.472   4.313   3.150 -1.1399 -0.5690  1.3897
 3599TIP3    H232289   5.576   4.406   3.209 -1.4511 -1.1639  2.9119
 3600TIP3   OH232290   1.384   2.513  15.181  0.1475 -0.4383 -0.6995
 3600TIP3    H132291   1.369   2.542  15.091  0.5411 -0.3191 -0.7263
 3600TIP3    H232292   1.463   2.459  15.176  0.7182  0.3518 -0.2658
 3601TIP3   OH232293   1.290   0.390   5.880 -0.6498 -0.2239 -0.3621
 3601TIP3    H132294   1.359   0.437   5.834 -0.5178  1.7840  1.6921
 3601TIP3    H232295   1.336   0.322   5.930 -0.3580  0.0253 -0.2911
 3602TIP3   OH232296   0.377   3.741  14.391 -0.2322 -0.2588  0.0071
 3602TIP3    H132297   0.400   3.671  14.451  1.3721 -0.4170 -0.7242
 3602TIP3    H232298   0.414   3.820  14.430 -0.2303 -0.1687 -0.1721
 3603TIP3   OH232299   3.230   0.390   0.454  0.2528 -0.0760  0.7499
 3603TIP3    H132300   3.310   0.438   0.475 -0.5711  1.4107  0.6252
 3603TIP3    H232301   3.201   0.427   0.370  0.4801 -1.9984 -0.2401
 3604TIP3   OH232302   3.764   2.903   0.676  0.4095 -0.0387 -0.6214
 3604TIP3    H132303   3.821   2.977   0.695 -0.0753 -0.0467  0.9842
 3604TIP3    H232304   3.711   2.891   0.755  0.1946 -1.8404 -0.9783
 3605TIP3   OH232305   0.959   2.676   6.366 -0.1457 -0.1629  0.1196
 3605TIP3    H132306   0.945   2.721   6.449 -2.0540  1.1510 -0.8564
 3605TIP3    H232307   1.054   2.661   6.363 -0.0976 -0.9796  2.8396
 3606TIP3   OH232308   0.747   5.884   2.647 -0.1852  0.0788  0.0523
 3606TIP3    H132309   0.800   5.959   2.620 -1.4472  0.4849 -1.4170
 3606TIP3    H232310   0.809   5.812   2.654  0.9015  1.0363  0.5662
 3607TIP3   OH232311   2.492   1.441   6.299 -0.4111 -0.0746 -0.0070
 3607TIP3    H132312   2.517   1.533   6.303 -0.4021 -0.0592 -0.3633
 3607TIP3    H232313   2.398   1.440   6.316 -0.5705  0.0882 -0.8628
 3608TIP3   OH232314   2.754   2.633  14.777 -0.7599  0.1155  0.2293
 3608TIP3    H132315   2.820   2.603  14.839 -0.3852  0.0616 -0.1900
 3608TIP3    H232316   2.790   2.713  14.740 -1.0476  0.2286  0.1891
 3609TIP3   OH232317   2.319   6.143  12.606 -0.1660 -0.4892 -0.5203
 3609TIP3    H132318   2.276   6.058  12.601 -1.4389  0.0610  0.6023
 3609TIP3    H232319   2.375   6.138  12.683 -1.2061  0.0867  0.2971
 3610TIP3   OH232320   4.846   6.540  13.871  0.0543 -0.0733  0.8424
 3610TIP3    H132321   4.912   6.544  13.802 -0.6343 -1.3262  0.0772
 3610TIP3    H232322   4.897   6.532  13.952  0.8470  0.0630  0.3703
 3611TIP3   OH232323   4.484   0.815  12.293 -0.4091  0.1450  0.3159
 3611TIP3    H132324   4.511   0.829  12.202 -1.5105  1.4034  0.1481
 3611TIP3    H232325   4.550   0.862  12.344 -0.0942 -0.1002  0.1400
 3612TIP3   OH232326   6.199   0.330  13.190 -0.0636  0.1680  0.3448
 3612TIP3    H132327   6.234   0.417  13.169 -1.1428  0.4618 -0.3391
 3612TIP3    H232328   6.141   0.345  13.264 -0.1823  0.0141  0.2827
 3613TIP3   OH232329   0.711   1.841   1.667  0.2313  0.1131 -0.3265
 3613TIP3    H132330   0.692   1.905   1.735 -0.3129  1.9639 -2.1309
 3613TIP3    H232331   0.628   1.796   1.652  0.1293  0.3269 -0.3964
 3614TIP3   OH232332   1.353   2.904   6.225  0.6086 -0.5653 -0.2727
 3614TIP3    H132333   1.286   2.971   6.232  1.2201  0.1963 -1.3820
 3614TIP3    H232334   1.436   2.953   6.225  1.1205 -1.4041  0.0121
 3615TIP3   OH232335   3.889   5.504  11.066  0.0717  0.6847  0.4061
 3615TIP3    H132336   3.972   5.537  11.101  1.0762  2.2219 -3.0059
 3615TIP3    H232337   3.910   5.419  11.028  0.8139  1.9971 -2.4218
 3616TIP3   OH232338   0.196   4.567   2.822 -0.0711  0.2485  0.0677
 3616TIP3    H132339   0.197   4.534   2.732  1.4616  2.6717 -0.9186
 3616TIP3    H232340   0.177   4.491   2.876 -1.2634 -1.2562 -2.3063
 3617TIP3   OH232341   6.284   0.662  15.053  0.0468  0.2341 -0.4386
 3617TIP3    H132342   6.270   0.708  14.970 -1.6639  1.7015  0.6036
 3617TIP3    H232343   6.198   0.661  15.095  1.1431  0.8832  1.9861
 3618TIP3   OH232344   4.982   1.645   5.789 -0.2385  0.4334 -0.1309
 3618TIP3    H132345   5.042   1.713   5.819 -0.1924  0.3698 -0.0783
 3618TIP3    H232346   4.965   1.592   5.867 -1.3339  1.1764  0.1578
 3619TIP3   OH232347   5.190   1.935   4.107  0.2729 -0.1288  0.0254
 3619TIP3    H132348   5.150   1.953   4.022  0.1633  2.6979  0.5925
 3619TIP3    H232349   5.121   1.892   4.158  0.5027 -2.3545 -1.3745
 3620TIP3   OH232350   1.617   1.933   0.607  0.4000 -0.3222  0.1540
 3620TIP3    H132351   1.610   1.841   0.584  2.4572 -0.6775  0.6993
 3620TIP3    H232352   1.529   1.969   0.593 -1.0417 -2.8136  2.0121
 3621TIP3   OH232353   4.491   2.338   0.643  0.5049 -0.6558 -0.5704
 3621TIP3    H132354   4.419   2.387   0.602  0.6276  0.1741  0.1798
 3621TIP3    H232355   4.453   2.252   0.663 -0.3581 -0.1502  0.0258
 3622TIP3   OH232356   3.753   4.881  11.493  0.1924  0.2679  0.6507
 3622TIP3    H132357   3.772   4.945  11.425  0.0651  1.2152  1.4831
 3622TIP3    H232358   3.658   4.888  11.508  0.5438  1.8067  2.5624
 3623TIP3   OH232359   6.197   5.258  16.468 -0.2355  0.0161  0.6118
 3623TIP3    H132360   6.226   5.324  16.405 -1.4051 -1.6710 -1.8424
 3623TIP3    H232361   6.145   5.308  16.532 -3.3423  1.3677 -2.5719
 3624TIP3   OH232362   2.664   3.660   0.104  0.0246  0.0905  0.4456
 3624TIP3    H132363   2.715   3.733   0.140 -1.2276  0.7019  1.0674
 3624TIP3    H232364   2.715   3.629   0.030  0.9891  1.0680  0.6710
 3625TIP3   OH232365   3.113   3.562  17.072  0.1441  0.0193  0.5469
 3625TIP3    H132366   3.201   3.599  17.070  0.8389 -1.5213  0.8778
 3625TIP3    H232367   3.061   3.622  17.019  1.4952  0.6859 -0.0968
 3626TIP3   OH232368   4.038   3.162   3.466 -0.0510  0.2138 -0.4154
 3626TIP3    H132369   4.065   3.102   3.396 -1.7623  0.5208 -1.3932
 3626TIP3    H232370   3.981   3.110   3.522 -0.3669  0.5360 -0.4352
 3627TIP3   OH232371   1.592   2.316  13.345  0.1549 -0.6661 -0.5249
 3627TIP3    H132372   1.592   2.394  13.400  0.2519  0.1715 -1.6716
 3627TIP3    H232373   1.676   2.275  13.361 -0.0338 -0.7221  0.3398
 3628TIP3   OH232374   2.116   3.660   1.748 -0.8330 -0.7258  0.0206
 3628TIP3    H132375   2.199   3.645   1.704 -0.8081 -1.5307  0.3378
 3628TIP3    H232376   2.068   3.578   1.738 -0.9094 -0.8560  1.2885
 3629TIP3   OH232377   6.707   3.091   5.022 -0.0487  0.4805  0.4155
 3629TIP3    H132378   6.674   3.014   5.069 -1.1004  0.6629 -0.0117
 3629TIP3    H232379   6.659   3.165   5.060  0.4692  0.8577  0.3562
 3630TIP3   OH232380   0.070   4.279  11.802 -0.7299  0.1603  0.0891
 3630TIP3    H132381   0.116   4.295  11.884 -0.1630 -1.2999  0.0913
 3630TIP3    H232382   0.127   4.218  11.754 -1.5200  0.2133 -0.9591
 3631TIP3   OH232383   2.467   5.401  13.906 -0.8013  0.2640 -0.6489
 3631TIP3    H132384   2.427   5.391  13.993  0.1492 -1.4117 -0.3516
 3631TIP3    H232385   2.481   5.495  13.896 -0.0086  0.4249  1.4547
 3632TIP3   OH232386   3.180   0.384  14.503  0.4955  0.1686  0.0574
 3632TIP3    H132387   3.229   0.440  14.443  0.4135  0.8678  0.6291
 3632TIP3    H232388   3.179   0.432  14.585 -0.3072 -0.2899  0.3261
 3633TIP3   OH232389   6.465   5.533   2.339 -0.5943  0.7059 -0.1694
 3633TIP3    H132390   6.420   5.456   2.306 -0.0404  0.3876 -0.2048
 3633TIP3    H232391   6.517   5.564   2.264  0.7043 -0.0420  0.3874
 3634TIP3   OH232392   4.721   4.618  14.892 -0.2779  0.0758  0.0210
 3634TIP3    H132393   4.750   4.587  14.978  0.3328  0.4200 -0.0545
 3634TIP3    H232394   4.648   4.677  14.911 -0.8145 -0.6305  0.2260
 3635TIP3   OH232395   2.575   2.015  17.177 -0.4685  0.7327 -0.1617
 3635TIP3    H132396   2.520   2.044  17.250 -0.6858  2.1577 -0.8800
 3635TIP3    H232397   2.527   1.941  17.140 -0.0909 -0.3841  1.4537
 3636TIP3   OH232398   2.115   0.344  11.584  0.1959  0.1595 -0.3901
 3636TIP3    H132399   2.036   0.368  11.632  0.7294  0.4538  0.3552
 3636TIP3    H232400   2.142   0.261  11.623 -0.4906 -0.6496 -1.5676
 3637TIP3   OH232401   6.289   4.198  13.898 -0.2773  0.1462  0.2691
 3637TIP3    H132402   6.368   4.218  13.949  0.8328 -0.8488 -1.0042
 3637TIP3    H232403   6.237   4.278  13.904  1.2884  1.2217  0.2989
 3638TIP3   OH232404   0.021   4.167  16.960 -0.5056  0.0298  0.4883
 3638TIP3    H132405   0.094   4.195  16.905 -0.4661  0.1872  0.6209
 3638TIP3    H232406   0.023   4.227  17.035  0.5366 -1.2784  1.5632
 3639TIP3   OH232407   1.440   5.930  14.724 -0.1543  0.3393 -0.2538
 3639TIP3    H132408   1.506   5.903  14.660 -1.5153  0.4537 -1.7750
 3639TIP3    H232409   1.398   6.006  14.684 -2.6156 -0.9791 -0.3778
 3640TIP3   OH232410   1.691   2.308  14.700  0.1835  0.0271  0.2431
 3640TIP3    H132411   1.604   2.341  14.677 -0.1266 -0.1734  1.1057
 3640TIP3    H232412   1.712   2.245  14.631 -0.2997  0.1680 -0.0339
 3641TIP3   OH232413   5.653   3.132   4.211  0.4598  0.0159 -0.1518
 3641TIP3    H132414   5.667   3.079   4.289  2.8714 -0.6735 -0.9533
 3641TIP3    H232415   5.691   3.217   4.233 -2.0953  1.0369  0.6193
 3642TIP3   OH232416   0.428   4.801  16.697 -0.1680  0.6530  0.1743
 3642TIP3    H132417   0.350   4.851  16.675 -0.7882 -0.1296  0.5415
 3642TIP3    H232418   0.436   4.807  16.792 -0.7614 -0.6473  0.3286
 3643TIP3   OH232419   6.399   6.423   4.110 -0.5626 -0.4334  0.5355
 3643TIP3    H132420   6.488   6.388   4.116 -0.4752 -0.1436  1.0408
 3643TIP3    H232421   6.371   6.431   4.201 -1.4924 -1.4645  0.3580
 3644TIP3   OH232422   6.577   5.413  16.977 -0.6847 -0.3663 -0.1355
 3644TIP3    H132423   6.497   5.382  17.021 -1.0421  0.7006 -0.0006
 3644TIP3    H232424   6.565   5.507  16.971 -0.5388 -0.4376 -2.3219
 3645TIP3   OH232425   2.470   5.375   0.930 -0.0309 -0.0155 -0.2435
 3645TIP3    H132426   2.433   5.463   0.941  1.7612  0.8775 -1.0153
 3645TIP3    H232427   2.564   5.386   0.947  0.2533 -1.7562 -0.5110
 3646TIP3   OH232428   2.016   3.868  12.121 -0.4691  0.0086  0.2479
 3646TIP3    H132429   2.036   3.834  12.208  2.2912 -0.3653 -0.4081
 3646TIP3    H232430   1.992   3.791  12.070 -1.3094  0.1115  0.4863
 3647TIP3   OH232431   2.863   0.475  16.887 -0.1645 -0.0897 -0.0418
 3647TIP3    H132432   2.798   0.411  16.861 -0.9338 -0.2435  2.0713
 3647TIP3    H232433   2.883   0.454  16.978 -0.4956  2.6634  0.7751
 3648TIP3   OH232434   1.265   6.697  16.760 -0.2501  0.1877 -0.3958
 3648TIP3    H132435   1.329   6.672  16.693  0.6135 -2.7579  1.3382
 3648TIP3    H232436   1.318   6.734  16.831 -0.3359 -2.3075  1.0705
 3649TIP3   OH232437   3.778   1.840   2.799 -0.3066  0.0482 -0.2642
 3649TIP3    H132438   3.694   1.794   2.802 -1.2163  1.2893 -2.8947
 3649TIP3    H232439   3.769   1.912   2.861 -0.8457 -0.3742  0.1473
 3650TIP3   OH232440   6.810   0.169   3.799  0.0818 -0.0672 -0.2437
 3650TIP3    H132441   6.838   0.258   3.821  0.9136  0.0317 -1.5691
 3650TIP3    H232442   6.720   0.164   3.831 -0.5142  1.7949 -1.4532
 3651TIP3   OH232443   0.760   1.006  11.321 -0.4637  0.4113 -0.0734
 3651TIP3    H132444   0.765   1.066  11.247  0.0378 -0.1011 -0.4596
 3651TIP3    H232445   0.851   0.982  11.340 -0.7235 -1.3430 -0.8502
 3652TIP3   OH232446   5.779   1.836  14.001 -0.6711 -0.6563 -0.5455
 3652TIP3    H132447   5.788   1.828  13.906  0.4252 -0.9009 -0.4436
 3652TIP3    H232448   5.768   1.929  14.016 -0.4535 -0.5685 -0.8992
 3653TIP3   OH232449   6.139   5.470   0.571  0.7319 -0.0290  0.7335
 3653TIP3    H132450   6.101   5.386   0.546  0.8569 -0.5229  2.1111
 3653TIP3    H232451   6.076   5.536   0.541 -0.3464 -0.7310  1.4231
 3654TIP3   OH232452   5.731   5.191   4.008  0.1657 -0.0171 -0.0063
 3654TIP3    H132453   5.687   5.269   4.042  0.1295 -0.2274  0.4382
 3654TIP3    H232454   5.822   5.201   4.035  0.6903  0.9907 -1.9161
 3655TIP3   OH232455   5.343   2.117   4.218  0.2163  0.2180 -0.3875
 3655TIP3    H132456   5.277   2.074   4.163  0.3737 -0.8289  0.2265
 3655TIP3    H232457   5.413   2.053   4.226  0.9954  1.0511 -0.4324
 3656TIP3   OH232458   3.483   1.209  15.460 -0.3801  0.1354 -0.0040
 3656TIP3    H132459   3.398   1.254  15.461 -0.8467 -0.6607  2.2706
 3656TIP3    H232460   3.543   1.271  15.500 -0.9302 -0.9659  2.7142
 3657TIP3   OH232461   6.574   2.789  15.132  0.1935  0.3611 -0.3091
 3657TIP3    H132462   6.619   2.863  15.090  1.2777 -1.1221 -1.8940
 3657TIP3    H232463   6.528   2.745  15.061 -1.7882  0.3751  0.8789
 3658TIP3   OH232464   3.873   5.125  16.032  0.5445  0.0546  0.8163
 3658TIP3    H132465   3.799   5.178  16.003  0.9260 -0.6040 -1.5654
 3658TIP3    H232466   3.921   5.181  16.093  0.0856  1.8738 -0.4249
 3659TIP3   OH232467   2.664   6.087  11.524  0.0819  0.3331  1.0767
 3659TIP3    H132468   2.748   6.067  11.482  0.8288  4.1681  0.3056
 3659TIP3    H232469   2.599   6.044  11.470  1.3345  1.3046 -1.3922
 3660TIP3   OH232470   1.664   4.795  15.274 -0.7821  0.1747  0.6390
 3660TIP3    H132471   1.729   4.816  15.207 -1.5146 -0.2969 -0.2325
 3660TIP3    H232472   1.714   4.744  15.339 -0.7445 -2.3833 -1.2383
 3661TIP3   OH232473   2.705   1.446   6.125  0.8104 -0.3079 -0.3726
 3661TIP3    H132474   2.633   1.460   6.186  0.9152 -0.6543 -0.1690
 3661TIP3    H232475   2.776   1.413   6.179  0.4433 -2.0557 -0.8909
 3662TIP3   OH232476   6.202   6.489  13.663 -0.3679 -0.1709  0.2751
 3662TIP3    H132477   6.227   6.500  13.572 -4.3204 -1.7554 -1.2053
 3662TIP3    H232478   6.280   6.452  13.705  1.7037  0.9801 -2.2862
 3663TIP3   OH232479   3.525   5.893   1.171 -0.5671 -0.3975  0.7790
 3663TIP3    H132480   3.586   5.827   1.138 -1.5753 -0.4694 -1.0503
 3663TIP3    H232481   3.492   5.855   1.253  0.4820 -1.1597  0.8816
 3664TIP3   OH232482   3.474   0.857  16.042 -0.3061 -0.6323 -0.1745
 3664TIP3    H132483   3.430   0.942  16.046  1.3470  0.3250 -1.1477
 3664TIP3    H232484   3.496   0.837  16.133 -0.1867  0.2790  0.0046
 3665TIP3   OH232485   1.683   3.176   5.464 -0.0838 -0.3284 -0.1693
 3665TIP3    H132486   1.630   3.155   5.388 -1.2762 -1.9938  1.0460
 3665TIP3    H232487   1.647   3.122   5.534  0.8234  1.3010  1.6549
 3666TIP3   OH232488   3.491   6.411  11.394  0.3852  0.4727  0.8452
 3666TIP3    H132489   3.468   6.500  11.420  2.5754  1.2960  0.1669
 3666TIP3    H232490   3.477   6.358  11.472  0.0343  1.6015  1.5587
 3667TIP3   OH232491   2.538   6.476  14.590  0.2853  0.1897  0.1876
 3667TIP3    H132492   2.505   6.432  14.668  0.1507 -0.9358 -0.4838
 3667TIP3    H232493   2.610   6.420  14.560  1.5235  1.5629  0.5091
 3668TIP3   OH232494   4.288   0.975  17.291  0.2692  0.0436  0.1692
 3668TIP3    H132495   4.283   1.069  17.275 -1.9939  0.1601  1.1588
 3668TIP3    H232496   4.377   0.960  17.322  0.9991  1.6565 -1.0332
 3669TIP3   OH232497   6.088   4.468  15.285  0.2392 -0.4707 -0.7268
 3669TIP3    H132498   6.153   4.449  15.218 -0.0039 -1.4516 -0.6907
 3669TIP3    H232499   6.137   4.464  15.368  0.6418  1.2025 -0.8469
 3670TIP3   OH232500   5.820   0.136   5.633  0.3022  0.0403 -0.8253
 3670TIP3    H132501   5.876   0.090   5.695 -0.4126 -1.3505 -1.1508
 3670TIP3    H232502   5.876   0.203   5.594  1.0747  0.1668  0.4776
 3671TIP3   OH232503   1.107   3.040  12.552  0.4650  0.0372 -0.6990
 3671TIP3    H132504   1.195   3.013  12.526  0.7753  1.9472 -1.7933
 3671TIP3    H232505   1.053   2.962  12.538  1.6656 -0.6482 -1.7083
 3672TIP3   OH232506   5.082   6.777   4.728  0.1135 -0.2522 -0.7239
 3672TIP3    H132507   5.095   6.869   4.752  0.0323 -0.3538 -0.3001
 3672TIP3    H232508   5.169   6.739   4.728 -0.0715 -0.7479  1.3818
 3673TIP3   OH232509   3.942   6.714  13.454 -0.2452 -0.8973 -0.1543
 3673TIP3    H132510   3.965   6.722  13.546  1.0997  0.0142 -0.5303
 3673TIP3    H232511   3.851   6.744  13.449  0.1425  0.5574  0.6816
 3674TIP3   OH232512   2.418   0.799  16.569 -0.2657  0.5972 -0.8385
 3674TIP3    H132513   2.343   0.740  16.572  0.3113 -0.1658 -1.0438
 3674TIP3    H232514   2.487   0.752  16.616  0.3244  0.9160 -1.3716
 3675TIP3   OH232515   2.117   4.973   4.080 -0.2359  0.4607 -0.3637
 3675TIP3    H132516   2.058   4.904   4.049  0.5060 -0.4078  0.1120
 3675TIP3    H232517   2.202   4.930   4.087  0.0162  1.1183  1.0159
 3676TIP3   OH232518   4.045   0.171   1.437 -0.7703  0.0022 -0.1286
 3676TIP3    H132519   4.045   0.077   1.422  0.7595  0.0988 -0.8921
 3676TIP3    H232520   4.136   0.193   1.457 -1.2065  1.2345  0.6411
 3677TIP3   OH232521   3.116   3.999   4.524  0.3474 -0.3272 -0.1235
 3677TIP3    H132522   3.101   3.940   4.451 -0.6801  0.4294 -0.5511
 3677TIP3    H232523   3.057   4.073   4.508  0.0491 -0.1719  1.4917
 3678TIP3   OH232524   4.996   2.774  16.665  0.2375  0.1425  0.2619
 3678TIP3    H132525   5.071   2.793  16.608  0.6197  1.0589  1.0426
 3678TIP3    H232526   4.932   2.731  16.607  0.2014  1.9235 -1.1194
 3679TIP3   OH232527   4.754   2.536   0.380 -0.5800  0.5216  0.2500
 3679TIP3    H132528   4.777   2.626   0.358 -0.4355  0.5488  0.5039
 3679TIP3    H232529   4.665   2.543   0.417 -1.4952  0.2684 -1.7903
 3680TIP3   OH232530   4.258   1.069   2.400 -0.3582  0.3774  0.3578
 3680TIP3    H132531   4.219   1.067   2.313 -2.2355  1.0554  1.1294
 3680TIP3    H232532   4.251   0.979   2.432  1.2884 -0.1071 -0.5446
 3681TIP3   OH232533   1.743   5.924  14.144 -0.2651  0.1554 -0.0675
 3681TIP3    H132534   1.698   5.947  14.062 -0.2857  1.7981  0.3858
 3681TIP3    H232535   1.689   5.854  14.181 -0.6073 -0.1758 -1.1438
 3682TIP3   OH232536   6.557   2.233  15.398  0.2425  0.3607  0.2288
 3682TIP3    H132537   6.568   2.271  15.485  1.1859 -0.3151  0.4186
 3682TIP3    H232538   6.610   2.154  15.399  0.8737  0.7328 -1.2126
 3683TIP3   OH232539   6.039   5.507  12.352  0.0552  0.1628 -0.0357
 3683TIP3    H132540   6.065   5.423  12.314 -0.9128  0.0569 -0.4814
 3683TIP3    H232541   6.084   5.572  12.298  0.0976 -0.0397 -0.2471
 3684TIP3   OH232542   6.293   4.414  13.501 -0.1472  0.2047 -0.1933
 3684TIP3    H132543   6.271   4.329  13.540 -0.5357  0.1066 -0.6186
 3684TIP3    H232544   6.384   4.405  13.474 -0.0616  0.0644  0.1299
 3685TIP3   OH232545   1.455   0.895  13.412 -0.1080  0.5607 -0.0563
 3685TIP3    H132546   1.428   0.918  13.323 -0.1984  0.7036  0.0082
 3685TIP3    H232547   1.533   0.948  13.428 -0.4342  0.9745  0.1682
 3686TIP3   OH232548   3.010   2.551   3.722 -0.8334 -0.2909  0.9891
 3686TIP3    H132549   2.940   2.489   3.746 -0.1798 -0.6759  1.9919
 3686TIP3    H232550   3.085   2.524   3.777 -0.2066  0.7271  0.6521
 3687TIP3   OH232551   0.605   4.696  12.072  0.0750 -0.2957  0.4270
 3687TIP3    H132552   0.579   4.761  12.138  0.3928 -0.2606  0.5183
 3687TIP3    H232553   0.630   4.748  11.996  1.6865 -0.2319  0.9674
 3688TIP3   OH232554   1.709   1.966   4.094  0.4657  0.3114  0.8715
 3688TIP3    H132555   1.773   1.961   4.165 -0.1023 -0.1423  1.3648
 3688TIP3    H232556   1.627   1.937   4.133  0.6377 -2.4475 -0.5483
 3689TIP3   OH232557   6.215   5.479  16.307 -0.2230 -0.1808 -0.0150
 3689TIP3    H132558   6.133   5.505  16.349 -0.8322 -0.2180 -1.1551
 3689TIP3    H232559   6.249   5.561  16.269  0.5048 -0.0773  0.8250
 3690TIP3   OH232560   4.691   1.904  15.290  0.1053 -0.2205  0.0502
 3690TIP3    H132561   4.758   1.894  15.222 -0.1552  0.6976 -0.3633
 3690TIP3    H232562   4.613   1.934  15.242 -0.7273 -1.6329  0.4678
 3691TIP3   OH232563   0.465   1.569  11.252 -0.0709 -0.1749  0.0445
 3691TIP3    H132564   0.516   1.580  11.172 -1.3412 -2.3247 -1.1444
 3691TIP3    H232565   0.398   1.637  11.248 -0.0049 -0.1452 -0.6302
 3692TIP3   OH232566   3.104   5.286   3.068  0.0796 -0.4087 -0.3218
 3692TIP3    H132567   3.103   5.190   3.066  0.0217 -0.4016 -0.6577
 3692TIP3    H232568   3.140   5.307   3.154 -0.4304 -0.7292 -0.0178
 3693TIP3   OH232569   4.139   4.416  15.768  0.1016 -0.6849  0.6008
 3693TIP3    H132570   4.113   4.380  15.853 -0.6836 -1.4440  0.0519
 3693TIP3    H232571   4.074   4.382  15.706  0.5023  0.0708 -0.2687
 3694TIP3   OH232572   2.300   2.738  12.442 -0.9572  0.2415 -0.8971
 3694TIP3    H132573   2.346   2.687  12.375 -0.8043 -2.1265  0.8524
 3694TIP3    H232574   2.210   2.705  12.439 -0.8760 -0.1106  0.2235
 3695TIP3   OH232575   2.548   5.828  12.060 -0.2812  0.2506 -0.1957
 3695TIP3    H132576   2.492   5.864  12.128  0.3657  1.7967 -0.4411
 3695TIP3    H232577   2.532   5.882  11.983  2.1184  1.3278 -0.0406
 3696TIP3   OH232578   5.183   1.675  12.822  0.0512  0.0238 -0.0250
 3696TIP3    H132579   5.190   1.690  12.728 -2.3322  1.2919 -0.0820
 3696TIP3    H232580   5.175   1.762  12.860  1.4193 -0.4430  1.4485
 3697TIP3   OH232581   1.486   0.744  12.129  0.5311 -0.4086  0.3106
 3697TIP3    H132582   1.567   0.723  12.082 -0.2689 -1.3696 -0.6956
 3697TIP3    H232583   1.420   0.751  12.060 -0.4869 -0.8461  1.2093
 3698TIP3   OH232584   5.223   4.696   2.475  0.0666 -0.4764  0.1527
 3698TIP3    H132585   5.291   4.639   2.440 -1.0350 -1.1426 -0.9840
 3698TIP3    H232586   5.270   4.774   2.506  1.4595 -1.4607  0.5976
 3699TIP3   OH232587   1.898   3.792   1.719 -0.1142 -0.4086  0.4602
 3699TIP3    H132588   1.895   3.883   1.746  0.2643 -0.1745 -0.2502
 3699TIP3    H232589   1.988   3.764   1.738  0.2287 -0.1701 -0.7317
 3700TIP3   OH232590   6.629   0.816   1.564 -0.3855 -0.3007 -0.3102
 3700TIP3    H132591   6.536   0.801   1.582 -0.4935 -0.7345 -1.1989
 3700TIP3    H232592   6.674   0.750   1.616 -0.3940  1.4403  2.0839
 3701TIP3   OH232593   3.511   0.506   1.378 -0.6880  0.2405 -0.0419
 3701TIP3    H132594   3.429   0.461   1.357 -0.4715  0.2395 -0.9308
 3701TIP3    H232595   3.498   0.595   1.345 -1.2413  0.9747  1.9931
 3702TIP3   OH232596   6.501   4.901  16.460 -0.4490 -0.4030 -0.1679
 3702TIP3    H132597   6.495   4.879  16.367  0.1410 -0.0838 -0.2855
 3702TIP3    H232598   6.493   4.996  16.463 -0.6477 -0.4268  0.1275
 3703TIP3   OH232599   1.548   4.355  11.559  0.4417 -0.4760  0.1731
 3703TIP3    H132600   1.548   4.419  11.630  1.6374 -0.7068  0.3930
 3703TIP3    H232601   1.504   4.400  11.487  1.3054  0.6372  0.3061
 3704TIP3   OH232602   4.487   0.453  15.986 -0.3661 -0.4562 -0.4196
 3704TIP3    H132603   4.433   0.396  15.931 -2.0841 -1.5345  2.1917
 3704TIP3    H232604   4.426   0.495  16.046  1.4315  0.2203  1.0609
 3705TIP3   OH232605   5.477   3.495   2.817 -0.1017 -0.1123 -0.1143
 3705TIP3    H132606   5.401   3.513   2.872  0.2946 -1.1783  0.8228
 3705TIP3    H232607   5.441   3.450   2.741 -0.3520 -1.2674  0.6661
 3706TIP3   OH232608   3.321   3.480   4.254 -0.1410  0.6949 -0.3128
 3706TIP3    H132609   3.231   3.477   4.285 -0.3688  0.4000 -0.9786
 3706TIP3    H232610   3.362   3.552   4.303 -0.1860 -0.4119  1.4360
 3707TIP3   OH232611   3.020   1.267   5.878  0.2305 -0.3281  0.2880
 3707TIP3    H132612   2.947   1.214   5.845  0.0651  0.2117 -0.2235
 3707TIP3    H232613   2.989   1.357   5.872  1.7893  0.1214 -2.1926
 3708TIP3   OH232614   1.586   5.184  12.157  0.0906 -0.2531 -0.1153
 3708TIP3    H132615   1.669   5.184  12.109 -0.5252  0.8680 -1.2477
 3708TIP3    H232616   1.544   5.102  12.131 -0.2816  0.3847 -1.6260
 3709TIP3   OH232617   0.174   3.966  11.348  0.4013 -0.6493 -0.3735
 3709TIP3    H132618   0.161   3.879  11.385  0.4928 -0.9791 -1.0953
 3709TIP3    H232619   0.086   3.999  11.332  0.3713 -0.9196 -0.7894
 3710TIP3   OH232620   5.732   0.801  14.945  0.2080  0.9126  0.2302
 3710TIP3    H132621   5.656   0.777  14.998  1.3319 -2.0859  0.6778
 3710TIP3    H232622   5.697   0.809  14.856 -0.7563  0.2840  0.5342
 3711TIP3   OH232623   2.982   6.401   1.829  0.2907  0.3826  0.5887
 3711TIP3    H132624   2.930   6.473   1.792 -1.6239 -0.4553  1.4856
 3711TIP3    H232625   3.057   6.392   1.770 -0.9678  1.1950 -1.2121
 3712TIP3   OH232626   2.588   5.339   2.828 -0.4925 -0.4776 -0.2179
 3712TIP3    H132627   2.658   5.311   2.887 -0.6867 -0.6741 -0.0811
 3712TIP3    H232628   2.605   5.292   2.746  1.0360  1.3820 -1.0707
 3713TIP3   OH232629   2.008   4.572  13.413  0.6182 -0.0170  0.3120
 3713TIP3    H132630   1.958   4.580  13.494  0.9455 -0.4241  0.5586
 3713TIP3    H232631   2.067   4.647  13.413 -0.1787  0.6254 -0.1207
 3714TIP3   OH232632   3.371   6.609   5.911  0.0952  0.1343 -0.5260
 3714TIP3    H132633   3.392   6.559   5.990 -0.9074 -0.2100 -0.4698
 3714TIP3    H232634   3.389   6.700   5.936  3.0420 -0.2298 -0.9997
 3715TIP3   OH232635   1.421   0.256   0.783  0.0281 -0.0359  0.2005
 3715TIP3    H132636   1.477   0.322   0.823 -0.1310  0.8913 -1.0479
 3715TIP3    H232637   1.362   0.305   0.726 -0.8582 -1.1570  0.1099
 3716TIP3   OH232638   4.347   5.100   3.400  0.2875  0.1818  0.2409
 3716TIP3    H132639   4.421   5.041   3.388  0.7104  0.7994 -0.2313
 3716TIP3    H232640   4.361   5.140   3.486 -0.0019 -0.3988  0.5639
 3717TIP3   OH232641   4.338   2.465  13.842 -0.4315  0.1804  0.5139
 3717TIP3    H132642   4.322   2.380  13.801 -2.6350  0.4598  0.6791
 3717TIP3    H232643   4.267   2.475  13.905 -0.1976  2.1353  0.5278
 3718TIP3   OH232644   6.610   6.196  10.381 -0.2975  0.0836 -0.0318
 3718TIP3    H132645   6.624   6.285  10.347 -0.6403  0.5780  1.0561
 3718TIP3    H232646   6.516   6.183  10.376 -0.3813  0.2550  0.9022
 3719TIP3   OH232647   5.639   1.977   0.170  0.2465  0.2198  0.4062
 3719TIP3    H132648   5.551   2.008   0.151  0.1561 -0.3119 -0.0870
 3719TIP3    H232649   5.637   1.884   0.147  1.4451  0.5991 -1.4362
 3720TIP3   OH232650   6.047   0.358   0.464 -0.0564 -0.1196 -0.3562
 3720TIP3    H132651   5.961   0.330   0.435 -0.4149 -0.0907  0.6322
 3720TIP3    H232652   6.039   0.365   0.559  0.4107  1.9452 -0.4172
 3721TIP3   OH232653   1.880   6.646   4.882 -0.2964  0.0570  0.0788
 3721TIP3    H132654   1.810   6.671   4.822 -1.2624  0.5838  1.3869
 3721TIP3    H232655   1.925   6.729   4.901  0.9806 -0.3366 -1.0815
 3722TIP3   OH232656   6.803   2.786   4.135  0.0606  0.3890  0.2909
 3722TIP3    H132657   6.782   2.717   4.198  1.6097  0.3896  0.8455
 3722TIP3    H232658   6.853   2.741   4.066  0.3683  0.8060  0.2353
 3723TIP3   OH232659   6.346   4.470   5.978 -0.2144 -0.1651  0.0686
 3723TIP3    H132660   6.286   4.438   6.046  0.0569 -0.6443  0.0858
 3723TIP3    H232661   6.413   4.402   5.971 -0.7045 -0.5450 -1.2785
 3724TIP3   OH232662   2.095   5.426  15.136 -0.2927  0.0378  0.2550
 3724TIP3    H132663   2.085   5.414  15.041 -1.8933  0.3395  0.3458
 3724TIP3    H232664   2.113   5.519  15.146  0.1663 -0.0490  0.2263
 3725TIP3   OH232665   2.170   6.110   0.581  0.6309 -0.4578 -0.0968
 3725TIP3    H132666   2.108   6.170   0.540  0.0232 -0.8111  0.2975
 3725TIP3    H232667   2.173   6.035   0.523 -0.0710 -0.8680  0.3866
 3726TIP3   OH232668   1.561   2.053  10.798  0.0061 -0.0508  0.5935
 3726TIP3    H132669   1.561   2.145  10.774  1.2065 -0.3753 -0.8656
 3726TIP3    H232670   1.488   2.015  10.749  0.2191 -0.0633  0.2802
 3727TIP3   OH232671   3.695   1.224   3.927 -0.2838  0.0591 -0.3837
 3727TIP3    H132672   3.615   1.196   3.882 -0.1315  0.0417 -0.6459
 3727TIP3    H232673   3.703   1.163   4.000 -0.7178  0.3011 -0.1273
 3728TIP3   OH232674   4.701   5.353  11.012  0.2644 -0.5420  0.0678
 3728TIP3    H132675   4.736   5.405  10.940 -1.8625  0.2281 -0.4723
 3728TIP3    H232676   4.669   5.273  10.971  2.0175 -1.6135  0.6715
 3729TIP3   OH232677   3.946   5.267  10.945  0.3537  0.1372  0.8601
 3729TIP3    H132678   4.019   5.211  10.916  0.3778  0.2201  0.7587
 3729TIP3    H232679   3.929   5.240  11.035 -1.6546 -2.2227 -0.1047
 3730TIP3   OH232680   1.010   4.756  15.398 -0.5195 -0.0449  0.3421
 3730TIP3    H132681   0.980   4.845  15.380 -0.9903 -0.4666 -1.0524
 3730TIP3    H232682   0.950   4.700  15.349  0.9290 -1.0368 -0.3739
 3731TIP3   OH232683   3.648   1.534   6.159  0.1475  0.5071 -0.0152
 3731TIP3    H132684   3.704   1.484   6.218  0.4000  1.6146  0.7199
 3731TIP3    H232685   3.665   1.626   6.182 -0.8694  0.9097 -0.7892
 3732TIP3   OH232686   5.383   0.218   4.783 -0.5621  0.3721 -0.2629
 3732TIP3    H132687   5.302   0.267   4.769 -0.3568  0.6271 -0.5938
 3732TIP3    H232688   5.424   0.260   4.858 -0.4459  0.6370 -0.4705
 3733TIP3   OH232689   2.011   1.836   0.456  0.0262 -0.0199 -0.0925
 3733TIP3    H132690   1.954   1.909   0.479 -1.6587 -1.1681 -0.5022
 3733TIP3    H232691   1.982   1.764   0.512  0.5895 -0.8343 -0.8332
 3734TIP3   OH232692   1.166   2.906   1.121  0.5732  0.3924 -0.8952
 3734TIP3    H132693   1.259   2.925   1.109  0.4762  1.5120 -0.0445
 3734TIP3    H232694   1.124   2.992   1.117 -0.3085 -0.0034 -0.2760
 3735TIP3   OH232695   2.120   0.369  15.149  0.3261 -0.3226 -0.2675
 3735TIP3    H132696   2.071   0.340  15.072 -1.2218 -0.2013  0.6401
 3735TIP3    H232697   2.053   0.399  15.211  1.5199 -0.4834  1.1585
 3736TIP3   OH232698   3.419   2.942  16.305  0.4863 -0.4316 -0.3925
 3736TIP3    H132699   3.353   2.893  16.355  0.1784  0.1068 -0.2718
 3736TIP3    H232700   3.492   2.953  16.366 -0.0347  0.5474  0.0740
 3737TIP3   OH232701   2.505   3.463  15.823  0.1801 -0.3125  0.2912
 3737TIP3    H132702   2.576   3.473  15.886  0.2843 -0.7944  0.2559
 3737TIP3    H232703   2.434   3.517  15.858  0.4263 -0.1431  0.5349
 3738TIP3   OH232704   0.012   1.055  15.294 -0.2755  0.4868 -0.1217
 3738TIP3    H132705   0.078   1.097  15.240  0.1546 -0.4713 -0.3722
 3738TIP3    H232706  -0.063   1.043  15.236 -0.2647  0.5797 -0.1540
 3739TIP3   OH232707   5.785   4.865   2.079  0.0231 -0.2612 -0.4924
 3739TIP3    H132708   5.800   4.937   2.017 -1.1478  1.6630  1.3055
 3739TIP3    H232709   5.740   4.798   2.028 -1.2045  1.3897 -1.7093
 3740TIP3   OH232710   4.931   6.387  13.380 -0.4224 -0.3686  0.4133
 3740TIP3    H132711   4.990   6.442  13.328  0.8836 -1.8242  0.2693
 3740TIP3    H232712   4.988   6.317  13.414 -1.5453 -0.3396  2.5095
 3741TIP3   OH232713   3.575   1.644   6.706 -0.1493 -0.9139  0.4012
 3741TIP3    H132714   3.552   1.735   6.724  2.0406 -0.8289  3.6225
 3741TIP3    H232715   3.504   1.593   6.745  0.0009 -0.5567  1.1764
 3742TIP3   OH232716   3.883   0.008   5.271 -0.1005 -0.1827 -0.2472
 3742TIP3    H132717   3.899   0.018   5.364  1.0807 -3.7983  0.0841
 3742TIP3    H232718   3.805  -0.046   5.265 -0.2860  0.1709 -1.4007
 3743TIP3   OH232719   3.866   0.256  14.148 -0.0135 -0.5984  0.1667
 3743TIP3    H132720   3.924   0.295  14.214  1.3221 -0.8165 -0.8393
 3743TIP3    H232721   3.860   0.323  14.080 -1.2502 -0.4446  0.3991
 3744TIP3   OH232722   5.253   3.766   0.377  0.0370  0.0433  0.5338
 3744TIP3    H132723   5.188   3.814   0.428  1.4705 -0.5802  3.1346
 3744TIP3    H232724   5.289   3.832   0.317 -2.9479  0.3602 -1.0944
 3745TIP3   OH232725   4.847   2.822   4.867  0.3041  0.2132 -0.5218
 3745TIP3    H132726   4.780   2.766   4.829 -0.1241  0.2085  0.2168
 3745TIP3    H232727   4.836   2.906   4.824 -0.5079  0.3560 -0.0629
 3746TIP3   OH232728   3.658   0.782   3.381 -0.0619 -0.5778 -0.2178
 3746TIP3    H132729   3.598   0.793   3.307 -0.5734 -0.5908  0.1868
 3746TIP3    H232730   3.601   0.763   3.456  0.4824 -1.0962  0.0753
 3747TIP3   OH232731   2.251   6.047  11.154 -0.6309 -0.5710  0.2216
 3747TIP3    H132732   2.286   6.059  11.066  0.2729  0.3392  0.6819
 3747TIP3    H232733   2.158   6.068  11.146 -0.7213 -1.2265 -0.6500
 3748TIP3   OH232734   1.982   1.060  16.328  0.2155 -0.3351  0.3120
 3748TIP3    H132735   2.017   1.098  16.247 -0.4241  0.9382  0.6117
 3748TIP3    H232736   1.888   1.056  16.314  0.2439 -1.7716  0.3336
 3749TIP3   OH232737   4.779   6.759   3.570 -0.3005  0.3317 -0.3891
 3749TIP3    H132738   4.721   6.809   3.628 -0.4750 -1.0266  0.6536
 3749TIP3    H232739   4.864   6.802   3.581 -0.4821  0.5353  0.3312
 3750TIP3   OH232740   3.949   6.334   1.751  0.2541  0.2004  0.6868
 3750TIP3    H132741   3.888   6.366   1.684  0.1126 -1.1055  0.1522
 3750TIP3    H232742   3.936   6.239   1.750  2.0164 -0.0599  0.8537
 3751TIP3   OH232743   1.433   1.220  16.908 -0.6908  0.8089 -0.3161
 3751TIP3    H132744   1.520   1.226  16.870 -0.4647 -1.7854 -0.3451
 3751TIP3    H232745   1.448   1.187  16.996 -1.6935 -2.2540 -1.1740
 3752TIP3   OH232746   6.535   2.014   4.839  0.1689 -0.4067  0.6567
 3752TIP3    H132747   6.569   1.941   4.891 -0.5146 -0.5230  0.9454
 3752TIP3    H232748   6.544   2.090   4.897 -0.7526 -0.5652  1.0203
 3753TIP3   OH232749   0.380   2.308   1.935 -0.1293  0.1633 -0.0431
 3753TIP3    H132750   0.301   2.271   1.896 -0.1705 -2.3385  2.1700
 3753TIP3    H232751   0.350   2.389   1.977 -1.3485 -0.3483  0.0990
 3754TIP3   OH232752   0.709   4.483  13.536  0.0973  0.5549 -0.0811
 3754TIP3    H132753   0.635   4.506  13.591 -0.5593 -0.1775 -0.6247
 3754TIP3    H232754   0.678   4.408  13.484  1.2767  0.1048 -0.1799
 3755TIP3   OH232755   5.194   1.042  12.838 -0.0627 -0.2547 -0.0521
 3755TIP3    H132756   5.193   1.054  12.743 -0.5830 -0.3214 -0.0565
 3755TIP3    H232757   5.143   1.115  12.872  2.3024  1.3220  0.3740
 3756TIP3   OH232758   3.778   5.079  13.001 -0.0823  0.5192 -0.0108
 3756TIP3    H132759   3.791   5.154  12.943 -0.0164  0.2237 -0.3890
 3756TIP3    H232760   3.765   5.005  12.941  0.4716  0.1234  0.3457
 3757TIP3   OH232761   3.261   3.075   5.542  0.0806  0.1001  0.0065
 3757TIP3    H132762   3.281   3.108   5.454  0.9614  0.7891  0.4499
 3757TIP3    H232763   3.334   3.105   5.596  0.5480 -1.9059  0.5978
 3758TIP3   OH232764   2.905   1.001   1.183  0.4696  0.1362 -0.0987
 3758TIP3    H132765   2.844   1.068   1.150 -0.4020 -0.0387  1.0997
 3758TIP3    H232766   2.991   1.031   1.154 -0.0456  1.0535 -0.7507
 3759TIP3   OH232767   5.166   1.445  11.291  0.3991 -0.0476 -0.2310
 3759TIP3    H132768   5.071   1.445  11.275  0.7458 -0.9977 -2.7859
 3759TIP3    H232769   5.185   1.358  11.325  0.3057  0.3851  0.9891
 3760TIP3   OH232770   5.413   2.208  15.791 -0.2352 -0.1108 -0.2296
 3760TIP3    H132771   5.477   2.203  15.862 -1.0996  0.0241  0.5840
 3760TIP3    H232772   5.367   2.124  15.794  0.5143 -0.5942 -1.4269
 3761TIP3   OH232773   1.422   4.760  14.087 -0.1445 -0.2146  0.4298
 3761TIP3    H132774   1.331   4.743  14.064 -0.1386 -1.3178  1.1424
 3761TIP3    H232775   1.457   4.811  14.013 -0.8108 -1.4435 -0.7631
 3762TIP3   OH232776   5.497   0.011   5.078  0.6357 -0.6103 -0.1591
 3762TIP3    H132777   5.517   0.078   5.012 -1.1125 -0.8412 -0.9717
 3762TIP3    H232778   5.523   0.051   5.161  3.1131 -0.4010 -0.9545
 3763TIP3   OH232779   3.848   6.152  12.198  0.8785 -0.4558 -0.3910
 3763TIP3    H132780   3.934   6.189  12.215  0.4467  1.2804 -1.6383
 3763TIP3    H232781   3.837   6.159  12.103 -0.7013 -0.4521 -0.2421
 3764TIP3   OH232782   3.322   0.533   5.887 -0.5022 -0.0188 -0.1693
 3764TIP3    H132783   3.335   0.571   5.800  0.7316 -0.5778 -0.2458
 3764TIP3    H232784   3.243   0.575   5.920 -1.2866 -0.1548 -1.7633
 3765TIP3   OH232785   4.194   2.472  14.915 -0.1532  0.6047 -0.5670
 3765TIP3    H132786   4.148   2.436  14.840 -0.8846 -2.2608  1.0988
 3765TIP3    H232787   4.244   2.399  14.950  1.0025  2.1112  1.1507
 3766TIP3   OH232788   0.177   5.109  15.798  0.0083  0.4450  0.4485
 3766TIP3    H132789   0.197   5.191  15.754 -1.5454  1.8557  2.1996
 3766TIP3    H232790   0.221   5.042  15.745  0.1084  2.2161 -1.8669
 3767TIP3   OH232791   0.506   0.955   3.262 -0.3665  0.8915 -0.0663
 3767TIP3    H132792   0.415   0.931   3.282 -0.0616 -0.1203  0.1504
 3767TIP3    H232793   0.547   0.969   3.347 -0.6262  2.6638 -0.1782
 3768TIP3   OH232794   0.922   5.401  12.434 -0.6715  0.0802  0.3828
 3768TIP3    H132795   0.949   5.312  12.408 -0.4950  0.2774 -0.1179
 3768TIP3    H232796   1.004   5.451  12.435 -0.9567  0.5755 -0.7040
 3769TIP3   OH232797   0.805   6.306   5.473 -0.0490 -0.0179  0.2138
 3769TIP3    H132798   0.822   6.293   5.566  0.8703 -0.1377  0.0377
 3769TIP3    H232799   0.878   6.263   5.429  0.1107  0.9881 -0.5336
 3770TIP3   OH232800   3.126   4.631   1.313 -0.5133 -0.6278  0.2254
 3770TIP3    H132801   3.114   4.542   1.281  1.6556 -1.3720  1.2978
 3770TIP3    H232802   3.177   4.675   1.245  0.6879 -1.0380  0.8229
 3771TIP3   OH232803   1.166   3.278  14.332  0.2634  0.0625  0.0368
 3771TIP3    H132804   1.226   3.216  14.291 -1.1834 -0.9304 -0.6364
 3771TIP3    H232805   1.082   3.234  14.334 -0.6010  1.6267  0.4774
 3772TIP3   OH232806   5.817   5.948   3.950  0.3685  0.1535 -0.4174
 3772TIP3    H132807   5.731   5.978   3.921 -0.6006  0.7573  2.7115
 3772TIP3    H232808   5.869   6.027   3.958  0.1189  0.2097  0.8630
 3773TIP3   OH232809   0.581   1.044  15.691  0.3544 -0.1021 -0.4991
 3773TIP3    H132810   0.638   0.993  15.750 -1.1312  1.1186  2.1711
 3773TIP3    H232811   0.525   0.978  15.650  0.9554 -0.9397 -0.0328
 3774TIP3   OH232812   6.203   5.922  12.529 -0.1731  0.3006 -0.2711
 3774TIP3    H132813   6.173   5.841  12.573  2.3180 -1.0722 -0.9313
 3774TIP3    H232814   6.217   5.896  12.438 -0.0661  1.6998 -0.6733
 3775TIP3   OH232815   6.189   5.778   1.344 -0.0540 -0.2629 -0.4514
 3775TIP3    H132816   6.227   5.818   1.266  2.3388  1.6560  1.5061
 3775TIP3    H232817   6.260   5.725   1.381 -0.6762 -0.1029  1.0641
 3776TIP3   OH232818   2.647   6.533   2.559 -0.0196 -0.2523 -0.0641
 3776TIP3    H132819   2.695   6.516   2.639 -0.5565  1.4736  0.6652
 3776TIP3    H232820   2.609   6.448   2.535 -0.0206 -0.7496  1.6152
 3777TIP3   OH232821   6.162   1.915   1.536  0.4672  0.0859 -0.5222
 3777TIP3    H132822   6.249   1.903   1.573 -0.9451 -0.2113  3.0943
 3777TIP3    H232823   6.123   1.827   1.536 -0.3384  0.4325 -0.5898
 3778TIP3   OH232824   5.206   3.980  15.357 -0.1434  0.5854  0.0018
 3778TIP3    H132825   5.131   3.941  15.402  0.3267  0.8878  1.0764
 3778TIP3    H232826   5.255   3.905  15.322  0.6651  0.1823  1.9008
 3779TIP3   OH232827   2.346   1.171   1.313  0.0969 -0.2672 -0.5601
 3779TIP3    H132828   2.290   1.132   1.380 -0.3746 -0.5140 -1.0900
 3779TIP3    H232829   2.434   1.138   1.333 -0.5387 -3.2034 -2.0936
 3780TIP3   OH232830   3.234   3.890   4.974  0.0245 -0.9170 -0.0168
 3780TIP3    H132831   3.191   3.854   4.896 -0.4401 -1.1691  0.3523
 3780TIP3    H232832   3.278   3.816   5.014 -0.0887 -0.8714  0.1922
 3781TIP3   OH232833   1.306   4.778  14.989 -0.3522  0.3252 -0.0434
 3781TIP3    H132834   1.383   4.832  14.972  0.6558 -0.4081  1.9099
 3781TIP3    H232835   1.306   4.714  14.918  1.8360 -0.6607  0.7324
 3782TIP3   OH232836   0.216   2.690  13.171 -0.4618 -0.3367 -0.0224
 3782TIP3    H132837   0.175   2.727  13.093  1.4158 -0.3379 -1.0728
 3782TIP3    H232838   0.167   2.728  13.244 -1.2725  0.9059 -1.1672
 3783TIP3   OH232839   0.935   4.385  13.664 -0.1183  0.1097 -0.4432
 3783TIP3    H132840   0.862   4.424  13.615 -0.6525  0.1448  0.3526
 3783TIP3    H232841   1.013   4.413  13.617 -0.6666 -1.4879 -2.4302
 3784TIP3   OH232842   5.328   1.727   5.583  0.4642 -0.0248  0.0902
 3784TIP3    H132843   5.325   1.812   5.628 -0.5828 -1.2166  2.4631
 3784TIP3    H232844   5.237   1.707   5.563  0.7539 -0.3744 -0.9724
 3785TIP3   OH232845   5.398   4.956  14.379  0.3242  0.3617  0.5231
 3785TIP3    H132846   5.314   4.910  14.378  0.5507 -0.1303  2.0369
 3785TIP3    H232847   5.463   4.890  14.357  0.3594  0.7051 -0.4769
 3786TIP3   OH232848   2.499   5.871  14.124 -0.1473 -0.0508  0.1188
 3786TIP3    H132849   2.475   5.962  14.106  0.8350 -0.1188 -1.8866
 3786TIP3    H232850   2.568   5.877  14.190 -2.1074  0.4174  2.2620
 3787TIP3   OH232851   1.975   1.578   6.458 -0.0860 -0.3704  0.2710
 3787TIP3    H132852   1.951   1.667   6.484  0.9813  0.4613 -1.4539
 3787TIP3    H232853   1.998   1.535   6.541 -1.1918  0.7327  1.2084
 3788TIP3   OH232854   3.502   6.641  14.049  0.0648 -0.2254  0.0435
 3788TIP3    H132855   3.549   6.557  14.052  0.9531  0.2418 -0.2601
 3788TIP3    H232856   3.423   6.622  13.999  0.2570 -0.8850 -0.0229
 3789TIP3   OH232857   3.885   4.550   0.440 -0.1826 -0.1271 -0.3322
 3789TIP3    H132858   3.908   4.518   0.353 -1.8081  0.5776 -1.0541
 3789TIP3    H232859   3.795   4.519   0.454  0.0092 -0.1218  1.0479
 3790TIP3   OH232860   5.775   6.383   3.967  0.2711 -0.3363 -0.2338
 3790TIP3    H132861   5.794   6.454   4.029  0.6242  0.1985 -0.9379
 3790TIP3    H232862   5.859   6.363   3.926  0.4622 -2.1484  0.9430
 3791TIP3   OH232863   0.400   5.430  12.341  0.2663 -0.0099 -0.0416
 3791TIP3    H132864   0.413   5.390  12.255 -0.2721 -0.0169 -0.1266
 3791TIP3    H232865   0.475   5.488  12.353 -0.8569  1.9523 -1.6382
 3792TIP3   OH232866   4.747   5.245   5.613  0.3664  0.0519  0.1013
 3792TIP3    H132867   4.732   5.264   5.705 -0.0465 -0.2720  0.1030
 3792TIP3    H232868   4.840   5.266   5.599  0.2554  0.7754  0.4158
 3793TIP3   OH232869   0.683   4.205  13.805 -0.3721 -0.1369 -0.6389
 3793TIP3    H132870   0.706   4.254  13.885  1.0114 -0.8803 -0.5575
 3793TIP3    H232871   0.766   4.189  13.762 -0.8083 -2.1414 -0.8259
 3794TIP3   OH232872   1.734   6.695   0.446  0.4854  0.1850 -0.5040
 3794TIP3    H132873   1.796   6.737   0.505 -1.5612  2.1017  0.4402
 3794TIP3    H232874   1.651   6.698   0.493 -0.7985 -0.1276 -2.6337
 3795TIP3   OH232875   2.651   3.270   1.107 -0.3311 -0.4016 -0.2559
 3795TIP3    H132876   2.558   3.288   1.118  0.0992  0.3142  3.7044
 3795TIP3    H232877   2.688   3.353   1.076 -0.9391 -0.6463 -1.7009
 3796TIP3   OH232878   5.006   5.699   3.536  0.0472  0.3264  0.3623
 3796TIP3    H132879   5.081   5.743   3.497  1.6124 -2.5188 -0.0846
 3796TIP3    H232880   5.031   5.607   3.539 -2.9222 -0.5553  1.4599
 3797TIP3   OH232881   1.031   3.260  13.549  0.0397  0.5884  0.0750
 3797TIP3    H132882   1.096   3.191  13.568  0.4376  1.0259  0.3264
 3797TIP3    H232883   0.947   3.214  13.548  0.3290  0.0466 -0.0491
 3798TIP3   OH232884   2.331   3.649   3.543 -0.2878 -0.2071  0.1821
 3798TIP3    H132885   2.267   3.584   3.571  0.5025 -0.1113  2.3848
 3798TIP3    H232886   2.280   3.714   3.495 -1.1824 -2.0704 -1.5270
 3799TIP3   OH232887   2.203   3.976  16.577 -0.1694  0.0498 -0.5984
 3799TIP3    H132888   2.165   3.912  16.516 -1.1944 -0.7662  0.8447
 3799TIP3    H232889   2.140   3.980  16.649  1.8123 -0.3085  1.2407
 3800TIP3   OH232890   3.461   1.680  15.672  0.3507  0.3805  0.8132
 3800TIP3    H132891   3.411   1.748  15.626  3.5038  1.1600 -1.8542
 3800TIP3    H232892   3.549   1.717  15.681  1.8634 -2.7802  0.4635
 3801TIP3   OH232893   2.146   3.562  13.028 -0.4713 -0.1499 -0.3025
 3801TIP3    H132894   2.202   3.616  12.972  1.4494  0.8843  2.3795
 3801TIP3    H232895   2.207   3.511  13.081 -2.2228 -2.4756 -0.3785
 3802TIP3   OH232896   2.593   6.545   5.008 -0.5674  0.9017  0.1407
 3802TIP3    H132897   2.556   6.617   4.956 -1.3400  0.3787 -0.0559
 3802TIP3    H232898   2.664   6.510   4.954 -2.0830 -0.3676 -1.1197
 3803TIP3   OH232899   2.697   0.895  15.458  0.0938  0.3783 -0.2237
 3803TIP3    H132900   2.723   0.827  15.396  0.0151  0.7123 -0.6214
 3803TIP3    H232901   2.605   0.912  15.439  0.3504  1.2465 -0.7422
 3804TIP3   OH232902   2.185   1.056   1.518 -0.0206 -0.7054  0.6019
 3804TIP3    H132903   2.210   0.990   1.582  1.4485 -0.7846  0.0066
 3804TIP3    H232904   2.090   1.054   1.516 -0.0358 -1.8342  1.5858
 3805TIP3   OH232905   5.120   0.536  17.304 -0.3645  0.2584 -0.0190
 3805TIP3    H132906   5.135   0.444  17.286  2.1917  0.5307  0.3620
 3805TIP3    H232907   5.183   0.582  17.248 -2.7734  1.9400 -1.5580
 3806TIP3   OH232908   0.202   1.626   0.930  0.3344 -0.4290 -0.2078
 3806TIP3    H132909   0.283   1.586   0.961  0.8814  0.0115 -1.0118
 3806TIP3    H232910   0.157   1.556   0.883 -0.3237 -0.9959  1.2373
 3807TIP3   OH232911   5.876   5.857  14.767 -0.2477 -0.1632 -0.5488
 3807TIP3    H132912   5.867   5.856  14.863 -0.0024 -0.0133 -0.5230
 3807TIP3    H232913   5.952   5.913  14.751 -1.5870  1.6481 -0.9219
 3808TIP3   OH232914   2.401   5.400  13.069 -0.1748 -0.1317 -0.6838
 3808TIP3    H132915   2.406   5.315  13.025  1.1176  0.1155 -1.0445
 3808TIP3    H232916   2.478   5.447  13.039 -0.1049  0.6368  0.6442
 3809TIP3   OH232917   5.117   3.718  11.122  0.6289 -0.4438 -0.3547
 3809TIP3    H132918   5.029   3.679  11.124  0.5357 -0.2165  0.5372
 3809TIP3    H232919   5.148   3.704  11.033 -0.2696 -0.6283 -0.6440
 3810TIP3   OH232920   5.784   1.736   5.171  0.4056 -0.0205 -0.4788
 3810TIP3    H132921   5.802   1.671   5.238 -0.5955  0.9825  0.8066
 3810TIP3    H232922   5.690   1.751   5.177  0.7493  2.2689 -0.0284
 3811TIP3   OH232923   3.261   3.188  16.820 -0.5537  0.7259 -0.0695
 3811TIP3    H132924   3.258   3.265  16.763  1.0766  0.1352 -1.0296
 3811TIP3    H232925   3.343   3.198  16.869 -0.0405 -0.6291 -0.5968
 3812TIP3   OH232926   4.075   1.985  12.695 -0.1239 -0.6985  0.0465
 3812TIP3    H132927   4.029   2.051  12.747  1.0219  0.3870 -0.2762
 3812TIP3    H232928   4.150   2.031  12.658 -0.9234 -1.3932 -2.6678
 3813TIP3   OH232929   2.703   6.440   4.248  0.0799 -0.0359  0.3135
 3813TIP3    H132930   2.761   6.508   4.214  0.2348  0.0624  0.7748
 3813TIP3    H232931   2.679   6.469   4.336  0.4593 -0.7645  0.6688
 3814TIP3   OH232932   2.307   0.834   0.947 -0.7180  0.0520 -0.1354
 3814TIP3    H132933   2.402   0.841   0.952 -0.8044  1.2619  0.2068
 3814TIP3    H232934   2.282   0.894   0.877 -1.1754 -0.9437 -0.8490
 3815TIP3   OH232935   4.971   2.154   0.440  0.2933  0.2035 -0.8532
 3815TIP3    H132936   5.006   2.115   0.520 -2.3696 -1.2528 -0.2664
 3815TIP3    H232937   4.994   2.246   0.446  0.4218  0.0763  1.4726
 3816TIP3   OH232938   1.481   3.619   1.836  0.0966  0.6285  0.7456
 3816TIP3    H132939   1.577   3.623   1.841  0.1760 -1.1744  1.4186
 3816TIP3    H232940   1.450   3.654   1.919 -0.0039  3.5975 -0.4036
 3817TIP3   OH232941   0.265   6.076   5.190 -0.1231 -0.4893 -0.1986
 3817TIP3    H132942   0.296   6.121   5.112  0.5852 -2.0670 -0.8640
 3817TIP3    H232943   0.343   6.035   5.228 -0.4491  0.2462  1.3719
 3818TIP3   OH232944   0.466   1.164   0.486  0.2179 -0.1602 -0.0325
 3818TIP3    H132945   0.396   1.166   0.421 -0.0477 -0.6027  0.2382
 3818TIP3    H232946   0.428   1.205   0.563  0.1112 -0.7826  0.2526
 3819TIP3   OH232947   2.284   4.242   4.461  0.0440  0.2379 -0.0039
 3819TIP3    H132948   2.195   4.229   4.427  0.3200  1.4936 -1.3346
 3819TIP3    H232949   2.330   4.287   4.390  2.0376 -1.2403  0.2729
 3820TIP3   OH232950   0.482   3.653   1.749  0.1328 -0.2232 -0.3212
 3820TIP3    H132951   0.568   3.627   1.716  0.4755  1.1433 -0.5825
 3820TIP3    H232952   0.498   3.735   1.796 -1.3552  1.4243 -2.4562
 3821TIP3   OH232953   1.565   4.444   0.912  0.3340  0.1381 -0.0034
 3821TIP3    H132954   1.506   4.424   0.840  1.4236  0.6316 -1.0781
 3821TIP3    H232955   1.546   4.535   0.934  1.4083  0.6740 -1.1210
 3822TIP3   OH232956   1.797   4.229   1.596  0.5012 -0.0444 -0.0917
 3822TIP3    H132957   1.796   4.206   1.503 -1.7570  1.4060 -0.5090
 3822TIP3    H232958   1.889   4.250   1.614  1.3235 -2.0805 -1.4796
 3823TIP3   OH232959   6.596   1.150  15.741 -0.5580  0.3075 -0.1514
 3823TIP3    H132960   6.683   1.161  15.702 -0.0204 -0.2432  0.8372
 3823TIP3    H232961   6.541   1.119  15.669  0.6697 -1.7534 -0.2834
 3824TIP3   OH232962   0.840   3.128   0.702 -0.0195 -0.5948  0.2312
 3824TIP3    H132963   0.755   3.167   0.720 -0.5259 -1.7785  0.4639
 3824TIP3    H232964   0.875   3.180   0.629 -0.4771  0.5439  0.7918
 3825TIP3   OH232965   1.016   6.759  15.757 -0.0520 -0.5947  0.6446
 3825TIP3    H132966   1.081   6.712  15.809  1.5038  0.8305  0.0714
 3825TIP3    H232967   0.957   6.798  15.821  0.3514 -0.9366  1.2299
 3826TIP3   OH232968   6.457   5.691   1.756  0.2849  0.5628  0.0284
 3826TIP3    H132969   6.531   5.734   1.798  1.0275 -0.5784 -0.0698
 3826TIP3    H232970   6.439   5.615   1.811  0.1720 -0.0110 -0.7940
 3827TIP3   OH232971   3.026   4.035  14.942  0.3850  0.0365 -0.3053
 3827TIP3    H132972   3.050   3.950  14.979 -0.2057 -0.5209 -1.1714
 3827TIP3    H232973   2.939   4.021  14.904  1.6250  0.0543 -3.4327
 3828TIP3   OH232974   2.252   3.269  15.829  0.4257 -0.1274 -0.0394
 3828TIP3    H132975   2.169   3.306  15.857  0.2247 -0.2066 -0.5141
 3828TIP3    H232976   2.313   3.343  15.831  0.6407 -0.3198  1.4537
 3829TIP3   OH232977   3.328   6.742  15.643 -0.2603  0.3165  0.4166
 3829TIP3    H132978   3.253   6.693  15.610 -1.3569  1.4118  1.1820
 3829TIP3    H232979   3.316   6.831  15.608  1.8162  0.0529 -1.1649
 3830TIP3   OH232980   2.141   0.088   2.749 -1.0085  0.4181  0.3194
 3830TIP3    H132981   2.165   0.173   2.712 -0.0624  0.4430  0.9547
 3830TIP3    H232982   2.175   0.024   2.686 -0.3149  0.4829  0.6191
 3831TIP3   OH232983   3.085   4.681  15.530  0.5143 -0.3046 -0.0483
 3831TIP3    H132984   3.033   4.645  15.458  0.2916  2.5410 -1.4746
 3831TIP3    H232985   3.095   4.774  15.507  1.5270  0.4359  2.9932
 3832TIP3   OH232986   6.283   3.879  11.471  0.4534 -0.0311 -0.1021
 3832TIP3    H132987   6.368   3.923  11.476  2.3156 -3.3946  2.3849
 3832TIP3    H232988   6.219   3.950  11.464  3.3787  2.6908 -2.1061
 3833TIP3   OH232989   3.010   0.507  15.788  0.3384  0.3858 -0.3992
 3833TIP3    H132990   3.013   0.526  15.694  3.1150 -0.7418 -0.6050
 3833TIP3    H232991   3.101   0.492  15.813 -0.1532  1.8851  2.7837
 3834TIP3   OH232992   2.703   1.176   1.133  0.0576 -0.2263 -1.0057
 3834TIP3    H132993   2.744   1.263   1.143  1.5353 -0.8639 -1.2388
 3834TIP3    H232994   2.673   1.174   1.043  0.3269 -0.0824 -1.0990
 3835TIP3   OH232995   5.228   5.028   1.831  0.0212 -0.3019  0.2573
 3835TIP3    H132996   5.166   4.975   1.781 -1.1673  0.8682  0.4467
 3835TIP3    H232997   5.312   4.984   1.818 -0.6494 -1.3309 -0.8674
 3836TIP3   OH232998   0.898   5.106  14.912  0.1170 -0.0483  0.2131
 3836TIP3    H132999   0.955   5.073  14.843 -0.3009  2.5747 -1.5807
 3836TIP3    H233000   0.814   5.064  14.896 -0.3411  1.5062 -1.8399
 3837TIP3   OH233001   2.937   1.323  15.434  0.3744  0.4545  0.4238
 3837TIP3    H133002   2.929   1.228  15.429 -1.4409  0.5462  1.0219
 3837TIP3    H233003   2.867   1.357  15.379  0.1780  1.4264  1.2380
 3838TIP3   OH233004   4.556   2.943  14.488 -0.0048 -0.2577  0.0420
 3838TIP3    H133005   4.464   2.964  14.471  0.4346  2.3386  0.5837
 3838TIP3    H233006   4.579   2.993  14.566  1.5064 -2.0098  0.7988
 3839TIP3   OH233007   5.168   2.824   5.294  0.8413  0.4223 -0.1898
 3839TIP3    H133008   5.117   2.834   5.374  0.2652  0.7186 -0.5910
 3839TIP3    H233009   5.107   2.786   5.231  0.8747  1.5327 -0.9186
 3840TIP3   OH233010   2.081   3.830  16.399 -0.1640 -0.0775 -0.0301
 3840TIP3    H133011   2.014   3.778  16.354 -1.3557  0.2795  1.2447
 3840TIP3    H233012   2.134   3.765  16.446 -1.0638 -0.2249  0.8036
 3841TIP3   OH233013   5.166   0.073  14.304  0.3035  0.1059  0.2201
 3841TIP3    H133014   5.163   0.168  14.293 -0.6733  0.0973  0.2921
 3841TIP3    H233015   5.257   0.054  14.325  0.2290  1.2168  1.7527
 3842TIP3   OH233016   5.992   0.982  10.966 -0.5151 -0.0469 -0.1823
 3842TIP3    H133017   5.902   0.950  10.960  0.4169 -2.8469 -0.7992
 3842TIP3    H233018   6.037   0.915  11.018  2.1307 -1.1756 -3.5487
 3843TIP3   OH233019   5.948   3.427   1.456  0.0250 -0.6881 -0.0997
 3843TIP3    H133020   5.854   3.407   1.449 -0.2464 -0.6179  2.4386
 3843TIP3    H233021   5.951   3.512   1.499  1.2875 -0.1511 -1.1912
 3844TIP3   OH233022   2.623   0.253   4.272 -0.0371  0.1313 -0.1685
 3844TIP3    H133023   2.552   0.256   4.337 -0.4458  2.0355 -0.6315
 3844TIP3    H233024   2.578   0.254   4.188  0.5196 -0.4138 -0.4788
 3845TIP3   OH233025   6.103   2.038  16.070  0.5961 -0.0106 -0.1657
 3845TIP3    H133026   6.119   2.003  16.158 -0.7336  1.1305  0.5809
 3845TIP3    H233027   6.130   1.969  16.011  0.8313 -1.1051  1.1703
 3846TIP3   OH233028   5.083   4.628   2.173  0.1468  0.0551  0.2334
 3846TIP3    H133029   5.005   4.647   2.226  0.6078 -1.2965  1.4706
 3846TIP3    H233030   5.052   4.570   2.104 -0.3490  1.3793 -0.7099
 3847TIP3   OH233031   5.759   2.691  17.010 -0.1220 -0.2448 -0.0798
 3847TIP3    H133032   5.784   2.686  17.102 -0.3844 -2.7600 -0.0738
 3847TIP3    H233033   5.837   2.721  16.965  0.2477  0.2519  0.8686
 3848TIP3   OH233034   0.170   0.071  15.743 -0.3757 -0.3572  0.0379
 3848TIP3    H133035   0.165   0.102  15.653  0.3648  0.5881  0.3068
 3848TIP3    H233036   0.200  -0.019  15.736 -2.8729 -1.2234 -0.7792
 3849TIP3   OH233037   4.854   1.952   3.938 -0.1204 -0.2731 -0.3005
 3849TIP3    H133038   4.793   1.998   3.996 -0.8227 -0.5246 -0.8261
 3849TIP3    H233039   4.852   1.861   3.967 -1.1472 -0.5749 -1.2579
 3850TIP3   OH233040   1.443   3.235  13.940 -0.0540 -0.5135 -0.7789
 3850TIP3    H133041   1.440   3.331  13.942  0.5647 -0.4758  1.9792
 3850TIP3    H233042   1.518   3.215  13.885  1.5912  0.7202  0.8810
 3851TIP3   OH233043   1.057   4.464   2.970  0.1415 -0.2727 -0.0267
 3851TIP3    H133044   1.141   4.492   2.933 -0.0806  0.4285 -0.0038
 3851TIP3    H233045   1.081   4.401   3.039  0.6883  0.4988  0.4964
 3852TIP3   OH233046   1.046   0.739   4.793  0.4010  0.5946 -0.3941
 3852TIP3    H133047   1.115   0.747   4.859  0.6411 -0.0987 -0.5522
 3852TIP3    H233048   1.091   0.751   4.710  0.5790 -1.1012 -0.5735
 3853TIP3   OH233049   5.827   4.682   0.843  0.1783  0.0301 -0.1158
 3853TIP3    H133050   5.857   4.596   0.814 -1.0893 -0.2734 -0.6097
 3853TIP3    H233051   5.801   4.668   0.934 -0.1219 -0.1418 -0.2259
 3854TIP3   OH233052   4.553   2.138  14.585  0.1932 -0.4025 -0.1615
 3854TIP3    H133053   4.557   2.212  14.646 -1.6134 -1.5241  1.4531
 3854TIP3    H233054   4.529   2.177  14.501 -0.8245  0.8713  0.6814
 3855TIP3   OH233055   2.450   6.098   1.547  0.5738  0.3741 -0.1990
 3855TIP3    H133056   2.434   6.058   1.633 -2.1881  2.6180  0.5145
 3855TIP3    H233057   2.521   6.160   1.562 -1.5489  2.6426  1.3223
 3856TIP3   OH233058   6.478   1.288  15.364 -0.2057  0.1523  0.1410
 3856TIP3    H133059   6.430   1.359  15.323 -0.2296 -0.6402 -1.2618
 3856TIP3    H233060   6.435   1.208  15.332 -0.4733 -0.5114  2.0290
 3857TIP3   OH233061   6.025   4.238  16.648  0.0735 -0.0907 -0.1608
 3857TIP3    H133062   6.023   4.226  16.553  0.6181 -0.1085 -0.1731
 3857TIP3    H233063   6.115   4.266  16.667  0.3676 -1.3972  0.4972
 3858TIP3   OH233064   6.189   1.564  11.242  0.5641 -0.2487  0.1636
 3858TIP3    H133065   6.108   1.536  11.199  0.3469 -1.1336  1.1172
 3858TIP3    H233066   6.248   1.585  11.170 -0.3753  0.0035 -0.5497
 3859TIP3   OH233067   2.210   3.520   4.333 -0.2063  0.2677 -0.0989
 3859TIP3    H133068   2.187   3.486   4.247 -1.0125  1.0274 -0.1936
 3859TIP3    H233069   2.228   3.442   4.386 -2.4085 -0.3632 -0.1922
 3860TIP3   OH233070   6.155   2.571   1.167  0.2270  0.8921 -0.8517
 3860TIP3    H133071   6.200   2.547   1.086  1.0889  0.2128 -0.1895
 3860TIP3    H233072   6.150   2.667   1.164  3.4111  1.1815 -0.1120
 3861TIP3   OH233073   5.222   4.543  16.116  0.1234  0.4224  0.6200
 3861TIP3    H133074   5.221   4.584  16.029 -3.5696  0.8369  0.6812
 3861TIP3    H233075   5.258   4.610  16.174  3.1777 -0.0615 -0.5635
 3862TIP3   OH233076   5.252   4.003   5.702 -0.8517 -0.1295  0.4365
 3862TIP3    H133077   5.302   4.009   5.621 -1.6863 -1.0173 -0.1614
 3862TIP3    H233078   5.205   3.920   5.696 -3.2454  1.1408  0.4547
 3863TIP3   OH233079   5.816   4.960  13.158  0.1219  0.4588 -0.5492
 3863TIP3    H133080   5.874   4.958  13.234  0.9078 -0.4373 -1.1537
 3863TIP3    H233081   5.762   5.038  13.171 -0.1069  0.0581  1.1787
 3864TIP3   OH233082   2.271   3.140   2.934  0.0869  0.2129 -0.4140
 3864TIP3    H133083   2.338   3.193   2.977 -1.6235  2.6667 -0.5787
 3864TIP3    H233084   2.216   3.108   3.005 -0.0785  0.4212 -0.4464
 3865TIP3   OH233085   3.213   2.981   4.710 -0.0253  0.3456  0.0882
 3865TIP3    H133086   3.132   3.000   4.662 -1.1745  0.4331  1.9547
 3865TIP3    H233087   3.208   3.035   4.788  0.8385 -1.1879  1.2561
 3866TIP3   OH233088   6.727   2.495   5.968  0.5199 -0.2976  0.2930
 3866TIP3    H133089   6.796   2.497   5.902 -1.4490  4.3036 -2.0679
 3866TIP3    H233090   6.649   2.464   5.921  0.0287 -1.6449  1.8775
 3867TIP3   OH233091   1.415   4.252   3.933 -0.0482 -0.0197 -0.2403
 3867TIP3    H133092   1.442   4.293   4.016 -1.4449  1.2315 -0.3518
 3867TIP3    H233093   1.466   4.299   3.866 -0.6895  0.6507 -0.2655
 3868TIP3   OH233094   1.772   0.897  15.357 -0.2306  0.0376 -0.1771
 3868TIP3    H133095   1.685   0.885  15.319 -0.0636  0.2236 -0.6285
 3868TIP3    H233096   1.800   0.983  15.326  0.1787 -0.0884 -0.1628
 3869TIP3   OH233097   2.047   4.655   4.884  0.0780  0.2158  0.0873
 3869TIP3    H133098   1.999   4.686   4.961  1.0757  0.1668  0.7551
 3869TIP3    H233099   2.107   4.726   4.863  0.6735 -0.2710  0.1203
 3870TIP3   OH233100   5.618   2.417  16.143  0.0690  0.5371  0.5648
 3870TIP3    H133101   5.525   2.429  16.162 -0.1554  0.4536 -0.4163
 3870TIP3    H233102   5.624   2.326  16.112  0.4851  0.5195  0.6968
 3871TIP3   OH233103   2.605   4.793   5.451 -0.2939  0.2339  0.1810
 3871TIP3    H133104   2.643   4.857   5.391 -0.7881 -0.9135 -1.4098
 3871TIP3    H233105   2.520   4.830   5.474 -0.1266  0.6566  0.1281
 3872TIP3   OH233106   1.187   6.445  17.191  0.0446  0.0982 -0.1084
 3872TIP3    H133107   1.138   6.397  17.125 -0.2022 -1.3923  1.1044
 3872TIP3    H233108   1.255   6.385  17.220  1.4760  1.4771 -0.4496
 3873TIP3   OH233109   0.432   0.833  15.576 -0.2751 -0.0639 -0.7308
 3873TIP3    H133110   0.361   0.885  15.539  0.2429  0.6693 -0.7237
 3873TIP3    H233111   0.409   0.743  15.556  0.4178  0.3238 -3.6324
 3874TIP3   OH233112   0.494   6.315   5.928  0.2382  0.3886 -0.2707
 3874TIP3    H133113   0.477   6.398   5.972  0.1901 -0.4703  1.4034
 3874TIP3    H233114   0.589   6.304   5.932  0.1908  0.0743  0.0984
 3875TIP3   OH233115   6.216   3.304  14.660  0.0018 -0.4361 -0.3252
 3875TIP3    H133116   6.300   3.342  14.685 -0.6568  0.5957  0.4147
 3875TIP3    H233117   6.200   3.235  14.725  0.6601 -1.2208 -0.9784
 3876TIP3   OH233118   4.599   2.551   4.978  0.2281 -0.0952  0.0859
 3876TIP3    H133119   4.627   2.603   4.903 -0.4314  1.9796  1.2115
 3876TIP3    H233120   4.556   2.613   5.036  0.9786 -1.5642  2.3544
 3877TIP3   OH233121   5.370   3.199  14.061  0.0025  0.2214  0.5481
 3877TIP3    H133122   5.446   3.151  14.094 -1.5478 -1.5499  1.7911
 3877TIP3    H233123   5.325   3.229  14.141 -1.2832  0.0877 -0.1027
 3878TIP3   OH233124   6.812   2.440  14.088 -0.8313 -0.8534 -0.1147
 3878TIP3    H133125   6.855   2.377  14.030 -2.7558 -2.3854  0.0069
 3878TIP3    H233126   6.884   2.490  14.127  0.6902 -1.9965 -1.3385
 3879TIP3   OH233127   1.535   5.109   4.085  0.4880 -0.2642 -0.3531
 3879TIP3    H133128   1.503   5.103   3.995  0.5412 -1.2754 -0.3186
 3879TIP3    H233129   1.538   5.203   4.103 -0.3874 -0.0735 -1.0957
 3880TIP3   OH233130   2.376   0.175   5.115 -0.1295 -0.3281 -0.1074
 3880TIP3    H133131   2.306   0.239   5.102  0.8207  0.6397 -0.5780
 3880TIP3    H233132   2.454   0.227   5.132  0.0211 -1.3924  3.1217
 3881TIP3   OH233133   4.495   5.917   1.856  0.6042 -0.1288  0.2555
 3881TIP3    H133134   4.453   5.872   1.929  0.9100  0.5918  0.8857
 3881TIP3    H233135   4.424   5.935   1.794  0.3145 -0.5759  0.4503
 3882TIP3   OH233136   0.457   4.600  16.534  0.3293  0.0571  0.9085
 3882TIP3    H133137   0.536   4.613  16.481 -0.3354  0.3489 -0.0371
 3882TIP3    H233138   0.467   4.659  16.608  2.2006 -1.7675  2.2149
 3883TIP3   OH233139   1.250   0.424   1.015  0.0011 -0.1594 -0.5350
 3883TIP3    H133140   1.321   0.406   0.954  1.5735  1.2030  0.8057
 3883TIP3    H233141   1.221   0.513   0.992 -1.9791 -1.0519 -1.6946
 3884TIP3   OH233142   1.626   6.413  10.875  0.1260 -0.3063 -0.8053
 3884TIP3    H133143   1.607   6.357  10.800  0.6491  0.3704 -1.4629
 3884TIP3    H233144   1.594   6.499  10.849  0.2187 -0.0856 -0.2023
 3885TIP3   OH233145   4.407   0.056   2.679  0.3530  0.3783 -0.0213
 3885TIP3    H133146   4.333   0.103   2.716  0.9892  0.9006  0.6005
 3885TIP3    H233147   4.480   0.117   2.684  0.7462  0.0120 -0.9927
 3886TIP3   OH233148   4.827   0.697  16.347 -0.5688  0.3548 -0.3358
 3886TIP3    H133149   4.838   0.770  16.286 -1.2991  1.1014  0.4009
 3886TIP3    H233150   4.741   0.661  16.327 -1.3272  1.3355  0.9689
 3887TIP3   OH233151   3.193   0.138  11.300 -0.0302 -0.1787 -0.0503
 3887TIP3    H133152   3.265   0.197  11.279 -0.6667  0.7769  0.3999
 3887TIP3    H233153   3.181   0.148  11.394 -1.0058 -0.0331 -0.1870
 3888TIP3   OH233154   5.023   5.427   1.976  0.0144 -0.1673  0.3620
 3888TIP3    H133155   5.105   5.382   1.997  0.5551  0.3699 -0.5594
 3888TIP3    H233156   5.039   5.469   1.892 -0.4900  1.6832  1.1368
 3889TIP3   OH233157   2.002   3.523   3.106 -0.6297  0.5033 -0.7064
 3889TIP3    H133158   1.964   3.462   3.170  1.1449  0.4942  0.4084
 3889TIP3    H233159   1.963   3.607   3.127  0.7565  0.7373  1.2333
 3890TIP3   OH233160   3.462   1.252   1.504 -0.6733 -0.0245 -0.1962
 3890TIP3    H133161   3.402   1.318   1.468 -0.3569 -0.9936 -2.7024
 3890TIP3    H233162   3.548   1.279   1.473 -0.4318 -1.1045 -0.5199
 3891TIP3   OH233163   0.408   3.512  15.240 -0.6446  0.4797 -0.3462
 3891TIP3    H133164   0.486   3.567  15.245 -0.5752  0.4686 -1.1459
 3891TIP3    H233165   0.424   3.442  15.303 -0.5379  1.1232  0.3550
 3892TIP3   OH233166   0.939   3.748   3.621 -0.4497 -0.1753  0.0301
 3892TIP3    H133167   1.030   3.778   3.632 -0.7007  0.3586  0.7092
 3892TIP3    H233168   0.917   3.774   3.531  0.1177 -0.4527 -0.1963
 3893TIP3   OH233169   2.936   1.728  12.871 -0.2047  0.3848  0.6708
 3893TIP3    H133170   2.874   1.669  12.913 -0.2935 -0.7511 -0.9690
 3893TIP3    H233171   2.989   1.762  12.943 -0.4975 -1.2805  1.7306
 3894TIP3   OH233172   4.146   3.482   1.923 -0.1394 -0.0435 -0.0504
 3894TIP3    H133173   4.124   3.502   1.832 -1.3705  1.0728  0.4538
 3894TIP3    H233174   4.215   3.416   1.917  1.0013  1.1947 -1.8191
 3895TIP3   OH233175   1.725   6.416   1.162  0.3049 -0.6232 -0.3250
 3895TIP3    H133176   1.757   6.489   1.109 -1.7874  0.0354 -0.7912
 3895TIP3    H233177   1.731   6.448   1.252 -2.4247  1.0593 -0.6017
 3896TIP3   OH233178   2.958   3.708   4.967  0.2570 -0.0250 -0.6226
 3896TIP3    H133179   3.003   3.747   4.893 -0.5367 -0.5557 -1.4030
 3896TIP3    H233180   2.959   3.614   4.949 -1.0555 -0.0566 -0.6157
 3897TIP3   OH233181   3.653   1.021   1.029 -0.7819 -0.2546 -0.0867
 3897TIP3    H133182   3.573   1.019   0.976 -0.0790 -0.1255 -1.1808
 3897TIP3    H233183   3.721   0.990   0.971  0.5293  2.5062 -0.1805
 3898TIP3   OH233184   4.700   6.709  17.249 -0.3890 -0.0774 -0.1770
 3898TIP3    H133185   4.612   6.684  17.221 -0.8945  0.3458  0.9810
 3898TIP3    H233186   4.734   6.631  17.294  0.0371 -0.4104 -1.0440
 3899TIP3   OH233187   6.533   1.782   3.185 -0.2016 -0.3424  0.2530
 3899TIP3    H133188   6.593   1.710   3.166  2.4924  2.1352 -1.5777
 3899TIP3    H233189   6.467   1.778   3.117  0.2398 -0.7945 -0.1555
 3900TIP3   OH233190   5.048   3.925   0.387 -0.3481  0.7207 -0.5299
 3900TIP3    H133191   5.062   3.909   0.294 -0.5461  1.4518 -0.6909
 3900TIP3    H233192   4.956   3.950   0.394 -0.2758  0.8901 -0.1695
 3901TIP3   OH233193   4.959   1.800  13.153 -0.7587 -0.1870 -0.0861
 3901TIP3    H133194   4.932   1.818  13.063 -1.1758 -0.1121  0.0542
 3901TIP3    H233195   4.918   1.717  13.174  0.4859 -0.9193 -0.4433
 3902TIP3   OH233196   4.391   0.485   4.714  0.2410 -0.0131 -0.4244
 3902TIP3    H133197   4.304   0.474   4.752  0.3504 -1.3272 -0.5020
 3902TIP3    H233198   4.394   0.421   4.643  0.9373  0.6847 -1.0404
 3903TIP3   OH233199   2.686   3.461  11.076 -0.4188  0.2837 -0.5782
 3903TIP3    H133200   2.645   3.462  10.989 -0.4492 -0.4752 -0.5779
 3903TIP3    H233201   2.739   3.540  11.078 -0.1262  0.1200 -1.4324
 3904TIP3   OH233202   3.462   3.154   5.130  0.3824 -0.4855  0.4737
 3904TIP3    H133203   3.530   3.168   5.196  1.2505 -3.4663  0.3313
 3904TIP3    H233204   3.478   3.066   5.096 -2.9269 -0.9119 -0.3448
 3905TIP3   OH233205   5.033   5.751   1.376 -0.2737  0.2210 -0.1279
 3905TIP3    H133206   4.964   5.685   1.386 -1.2615  1.0840 -0.9556
 3905TIP3    H233207   5.045   5.758   1.281  0.5412  0.5119 -0.0068
 3906TIP3   OH233208   3.201   0.807   6.120 -0.1908  0.3477 -0.4795
 3906TIP3    H133209   3.168   0.896   6.109 -2.5045 -0.4206 -0.2298
 3906TIP3    H233210   3.210   0.797   6.215 -2.4746 -0.4744 -0.2916
 3907TIP3   OH233211   4.486   4.083   0.048  0.5670 -0.1929 -0.8274
 3907TIP3    H133212   4.552   4.134   0.096  0.6874 -0.3181 -0.8602
 3907TIP3    H233213   4.458   4.140  -0.023 -0.9530  0.7435  0.4530
 3908TIP3   OH233214   3.040   3.008  11.603 -0.1064  0.5598 -0.0373
 3908TIP3    H133215   3.120   2.959  11.623 -0.1487  0.7386  0.5910
 3908TIP3    H233216   3.022   3.058  11.683 -3.6913 -3.3079  1.9823
 3909TIP3   OH233217   1.162   1.461  17.170 -0.0877  0.1788 -0.0361
 3909TIP3    H133218   1.078   1.483  17.210 -0.5177 -3.0721  1.1085
 3909TIP3    H233219   1.226   1.469  17.241 -0.2713 -2.0739  0.4388
 3910TIP3   OH233220   0.664   4.640   5.005  0.6172 -0.0052 -0.4397
 3910TIP3    H133221   0.573   4.666   5.019  0.6511 -0.1083 -0.0377
 3910TIP3    H233222   0.705   4.650   5.090  0.6372 -1.3871 -0.2755
 3911TIP3   OH233223   2.181   6.100   1.477  0.1733  0.1360 -0.1316
 3911TIP3    H133224   2.148   6.189   1.493  0.3456 -0.2094  2.6982
 3911TIP3    H233225   2.268   6.099   1.517  0.1220 -1.3270 -0.0122
 3912TIP3   OH233226   0.756   1.986   2.124 -0.1509  0.8514 -0.2317
 3912TIP3    H133227   0.809   2.021   2.196 -0.6509  0.4656  0.3375
 3912TIP3    H233228   0.801   2.016   2.045  1.1491  0.1916  0.2225
 3913TIP3   OH233229   6.610   2.462  16.823  0.1567  1.0115  0.1159
 3913TIP3    H133230   6.518   2.437  16.835  0.2025  0.5975 -0.3515
 3913TIP3    H233231   6.624   2.454  16.729  0.6761  1.0803  0.1873
 3914TIP3   OH233232   3.171   2.415  16.220 -0.3592 -0.0359  0.0102
 3914TIP3    H133233   3.167   2.389  16.312 -0.8523 -1.3855 -0.3694
 3914TIP3    H233234   3.234   2.488  16.218 -0.2205 -0.0962  1.3746
 3915TIP3   OH233235   3.918   6.021   4.785  0.1825  0.6690 -0.1291
 3915TIP3    H133236   4.001   5.976   4.800 -0.0897  0.3222  0.3648
 3915TIP3    H233237   3.875   6.022   4.870 -1.5366 -1.5925 -0.8542
 3916TIP3   OH233238   1.846   3.987   5.689 -0.1732  0.0360 -0.8285
 3916TIP3    H133239   1.776   4.041   5.651 -0.1488  1.2122  0.6698
 3916TIP3    H233240   1.817   3.897   5.675 -2.3069  0.4799  0.1967
 3917TIP3   OH233241   2.098   2.370   2.683 -0.1370 -0.4281 -0.6857
 3917TIP3    H133242   2.072   2.377   2.775  0.1792  0.5153 -0.6613
 3917TIP3    H233243   2.120   2.277   2.672  0.3075 -0.4553  0.3280
 3918TIP3   OH233244   0.991   0.475  14.273  0.3858 -0.5237 -0.1801
 3918TIP3    H133245   1.016   0.546  14.332  2.8229 -0.9004 -0.6301
 3918TIP3    H233246   0.914   0.508  14.227 -2.5785 -0.7648  4.0629
 3919TIP3   OH233247   3.328   3.109   0.035 -0.5012 -0.2593  0.2792
 3919TIP3    H133248   3.369   3.049   0.097 -0.0479 -1.0026 -0.7292
 3919TIP3    H233249   3.311   3.057  -0.043 -1.2331  0.6186 -0.1777
 3920TIP3   OH233250   4.390   0.195  15.056  0.8518 -0.2690  0.1576
 3920TIP3    H133251   4.380   0.276  15.107  0.2353  0.3233 -0.8791
 3920TIP3    H233252   4.319   0.197  14.993  2.2242 -0.4269 -1.4708
 3921TIP3   OH233253   6.172   4.616   3.864  0.1158 -0.2452  0.4438
 3921TIP3    H133254   6.187   4.704   3.900 -0.0198 -0.5990  1.4009
 3921TIP3    H233255   6.238   4.606   3.795 -0.3957  0.9148 -0.2477
 3922TIP3   OH233256   0.871   2.608   0.966 -0.1058 -0.1912  0.1745
 3922TIP3    H133257   0.917   2.688   0.940 -0.8028  0.4337  0.8225
 3922TIP3    H233258   0.906   2.587   1.052 -0.4689 -0.1533  0.3321
 3923TIP3   OH233259   0.893   5.981  15.095 -0.2457  0.7486 -0.2313
 3923TIP3    H133260   0.797   5.982  15.089 -0.3072 -2.4372 -1.7252
 3923TIP3    H233261   0.912   6.009  15.184 -2.7276 -0.7968  0.8915
 3924TIP3   OH233262   3.528   4.130  15.294  0.1257  0.7762  0.2351
 3924TIP3    H133263   3.575   4.056  15.331 -1.2817  0.5705  1.7564
 3924TIP3    H233264   3.473   4.162  15.366 -1.3125  1.5879 -1.1470
 3925TIP3   OH233265   1.662   2.029  16.180  0.0291 -0.4946  0.4552
 3925TIP3    H133266   1.737   2.058  16.231  1.5295 -2.5735 -0.4287
 3925TIP3    H233267   1.648   2.098  16.116 -0.7229  1.2801  2.4351
 3926TIP3   OH233268   3.762   5.035  15.447  0.2745  0.3491 -0.1657
 3926TIP3    H133269   3.781   5.128  15.454  3.1164 -0.1244 -0.3681
 3926TIP3    H233270   3.733   5.009  15.534 -0.4074  1.3886 -0.0745
 3927TIP3   OH233271   3.614   4.668  16.290 -0.3845 -0.0980 -0.1259
 3927TIP3    H133272   3.548   4.605  16.321 -1.2543 -0.1966 -2.0385
 3927TIP3    H233273   3.615   4.656  16.195  0.7203  1.5662 -0.3542
 3928TIP3   OH233274   0.880   0.431   6.553 -0.0886 -0.3133 -0.3724
 3928TIP3    H133275   0.934   0.401   6.626 -1.7716  0.3510  1.2095
 3928TIP3    H233276   0.823   0.357   6.534  0.4564 -0.5467 -1.1756
 3929TIP3   OH233277   4.206   1.368  14.867 -0.0395 -0.2597  0.3898
 3929TIP3    H133278   4.165   1.287  14.836  1.7909 -0.7971 -0.8638
 3929TIP3    H233279   4.242   1.408  14.787  1.0974  0.5796  1.2902
 3930TIP3   OH233280   2.028   3.193   4.809 -0.4288  0.0880  0.1373
 3930TIP3    H133281   2.087   3.217   4.881 -1.3509  0.4714  0.7749
 3930TIP3    H233282   2.065   3.112   4.774 -0.2144 -0.3418  1.3335
 3931TIP3   OH233283   3.528   5.353   5.299 -0.0942  0.5772 -0.2433
 3931TIP3    H133284   3.528   5.271   5.348  0.6219  0.1132 -0.9797
 3931TIP3    H233285   3.576   5.414   5.355 -0.2552  0.3716  0.1225
 3932TIP3   OH233286   1.719   6.347  16.827 -0.0787 -0.0756 -0.0835
 3932TIP3    H133287   1.662   6.411  16.869 -0.1082 -0.2480  0.1418
 3932TIP3    H233288   1.804   6.390  16.821 -0.4495  0.5329 -1.2671
 3933TIP3   OH233289   1.415   3.935   2.249 -0.6887  0.2452  0.6293
 3933TIP3    H133290   1.446   3.985   2.174 -1.4784 -0.2851 -0.0772
 3933TIP3    H233291   1.402   4.000   2.318  0.5206  0.6677  0.4821
 3934TIP3   OH233292   3.396   3.772   4.761  0.6679 -0.0584 -0.3520
 3934TIP3    H133293   3.375   3.835   4.692  0.8715  0.3307 -0.0628
 3934TIP3    H233294   3.340   3.696   4.742  0.4609  0.1860 -0.7327
 3935TIP3   OH233295   6.173   1.428   3.773  0.0483 -0.1158  0.0012
 3935TIP3    H133296   6.151   1.341   3.741  1.2879 -0.6570  0.5470
 3935TIP3    H233297   6.195   1.478   3.695 -0.1620 -0.4411 -0.2673
 3936TIP3   OH233298   2.634   4.947   3.919  0.1064 -0.0623  0.3602
 3936TIP3    H133299   2.542   4.928   3.940 -0.1672 -2.0175 -2.1820
 3936TIP3    H233300   2.682   4.868   3.944  0.7190  0.0471 -0.4282
 3937TIP3   OH233301   0.217   6.342  15.605 -1.0785  0.8514 -0.1207
 3937TIP3    H133302   0.202   6.282  15.533 -0.7183 -1.4196  1.5730
 3937TIP3    H233303   0.296   6.390  15.580  1.4338 -2.6660  0.2914
 3938TIP3   OH233304   2.366   5.384   2.557 -0.1852  0.0798  0.5776
 3938TIP3    H133305   2.276   5.356   2.576 -0.7785  0.5540 -1.3404
 3938TIP3    H233306   2.357   5.448   2.487  1.7150 -0.4180 -0.1766
 3939TIP3   OH233307   4.217   2.469   0.515 -0.4184  0.3814 -0.7772
 3939TIP3    H133308   4.174   2.426   0.590 -0.9675  2.3033  0.0822
 3939TIP3    H233309   4.177   2.428   0.438 -0.3187 -1.1846 -0.0381
 3940TIP3   OH233310   3.193   2.024  12.988 -0.1851  0.2039 -0.2548
 3940TIP3    H133311   3.164   1.947  13.037 -2.0020  0.5994 -0.6299
 3940TIP3    H233312   3.222   1.990  12.904 -0.4711 -0.1323 -0.2185
 3941TIP3   OH233313   1.664   5.969  17.120 -0.3329 -0.6768  0.6162
 3941TIP3    H133314   1.728   5.907  17.154  1.0049  0.6189  0.5309
 3941TIP3    H233315   1.716   6.043  17.087 -1.8572  0.4183  0.5530
 3942TIP3   OH233316   4.127   4.055  16.557  0.2454  0.6898 -0.3507
 3942TIP3    H133317   4.193   4.083  16.494  0.0381 -0.8663 -1.3162
 3942TIP3    H233318   4.177   4.007  16.624  0.3611  1.6178  0.2508
 3943TIP3   OH233319   6.242   4.633  11.824  0.3236  0.4642  0.7639
 3943TIP3    H133320   6.202   4.676  11.899 -0.6723  0.3830  0.2951
 3943TIP3    H233321   6.177   4.571  11.793 -0.0184  1.6944 -1.1907
 3944TIP3   OH233322   0.043   1.604   5.991  0.1943 -0.0994  0.1805
 3944TIP3    H133323  -0.036   1.560   6.021 -0.0149  0.2695  0.1748
 3944TIP3    H233324   0.109   1.535   5.987  0.1098 -0.2425  1.0593
 3945TIP3   OH233325   4.195   2.186   5.942  0.6934 -0.1669  0.5482
 3945TIP3    H133326   4.100   2.182   5.931  0.9221 -3.2304 -1.6693
 3945TIP3    H233327   4.213   2.277   5.965 -2.6839  0.6758  0.3620
 3946TIP3   OH233328   5.866   4.048   2.866  0.0787 -0.3124  0.0652
 3946TIP3    H133329   5.856   3.952   2.865 -1.5468 -0.1827 -0.6383
 3946TIP3    H233330   5.835   4.076   2.779 -0.7597  0.9275  0.7265
 3947TIP3   OH233331   4.951   4.621   4.126  0.2575  0.2082  0.2668
 3947TIP3    H133332   5.021   4.675   4.163 -0.3865 -0.0240  1.8980
 3947TIP3    H233333   4.903   4.589   4.202 -0.9406 -0.5614 -0.7817
 3948TIP3   OH233334   5.302   0.509   5.705 -0.1341 -0.5744  0.2828
 3948TIP3    H133335   5.207   0.521   5.705  0.1161  3.3718  2.3307
 3948TIP3    H233336   5.332   0.557   5.783  3.5733 -1.6665 -0.2605
 3949TIP3   OH233337   1.396   5.126   5.583  0.9605  0.2603 -0.8301
 3949TIP3    H133338   1.312   5.171   5.576  1.2515  1.3202  1.6285
 3949TIP3    H233339   1.422   5.111   5.492 -1.6103  0.3688 -1.6608
 3950TIP3   OH233340   4.175   4.767  14.863 -0.2936  0.3219 -0.0059
 3950TIP3    H133341   4.195   4.848  14.817 -3.1230  0.8713 -0.4325
 3950TIP3    H233342   4.105   4.790  14.924 -0.0072 -1.4633  1.0877
 3951TIP3   OH233343   1.056   5.705  12.226 -0.3300  0.0533  0.0247
 3951TIP3    H133344   1.063   5.636  12.292 -0.7786 -0.3721 -0.3640
 3951TIP3    H233345   1.011   5.777  12.270  0.7331  0.3733  0.6347
 3952TIP3   OH233346   3.002   1.232  13.616 -0.2310  0.1399 -0.3299
 3952TIP3    H133347   2.975   1.210  13.705  1.2498  0.5226  0.2473
 3952TIP3    H233348   3.001   1.149  13.569 -0.4309 -0.1659  0.2128
 3953TIP3   OH233349   1.785   3.112   2.295  0.0233 -0.9254  0.1469
 3953TIP3    H133350   1.837   3.033   2.279  0.9897 -0.1624 -0.6256
 3953TIP3    H233351   1.814   3.143   2.380  1.2159 -0.2508 -0.4769
 3954TIP3   OH233352   0.687   0.061  15.515  0.1710 -0.4718  0.6183
 3954TIP3    H133353   0.609   0.048  15.570 -0.2898 -1.0384 -0.1454
 3954TIP3    H233354   0.717   0.149  15.536 -0.4979 -0.3600  1.1548
 3955TIP3   OH233355   2.529   0.751   6.727  0.0266 -0.1091 -0.0236
 3955TIP3    H133356   2.504   0.844   6.728 -0.7686 -0.3212  0.4118
 3955TIP3    H233357   2.563   0.737   6.639  0.3036  0.6412 -0.0391
 3956TIP3   OH233358   1.512   4.828  10.954 -0.1365 -0.5153  0.0134
 3956TIP3    H133359   1.548   4.741  10.971  0.5002 -0.2115  0.2407
 3956TIP3    H233360   1.450   4.815  10.882 -0.4278 -1.2451  0.3854
 3957TIP3   OH233361   3.525   0.865  12.067  0.5264  0.2600 -0.5781
 3957TIP3    H133362   3.560   0.908  11.989  0.4988  1.7646  0.2045
 3957TIP3    H233363   3.514   0.936  12.130  1.5512 -1.0609  1.1698
 3958TIP3   OH233364   2.655   2.602  12.401  0.1920 -0.9536 -0.2140
 3958TIP3    H133365   2.609   2.596  12.317 -0.4863  1.3942 -0.0869
 3958TIP3    H233366   2.746   2.618  12.377  0.0018 -0.2894 -0.5237
 3959TIP3   OH233367   0.514   3.529  11.548 -0.0269  0.6711 -0.0493
 3959TIP3    H133368   0.561   3.487  11.620 -0.3332  1.1182  0.4210
 3959TIP3    H233369   0.477   3.456  11.498 -0.2542  0.3644  0.5520
 3960TIP3   OH233370   3.090   2.555  13.275  0.4664  0.2137  0.3649
 3960TIP3    H133371   3.015   2.564  13.334 -0.9530  1.1962 -1.4773
 3960TIP3    H233372   3.061   2.491  13.209  1.5130  0.1004 -0.0062
 3961TIP3   OH233373   3.389   3.232   3.519  0.6534  0.2833 -0.3397
 3961TIP3    H133374   3.353   3.290   3.586 -3.1161  0.3297 -2.0951
 3961TIP3    H233375   3.396   3.146   3.561 -0.4969  0.5686  0.4724
 3962TIP3   OH233376   0.855   3.106   3.362  0.3000  0.2200  0.1234
 3962TIP3    H133377   0.917   3.170   3.328 -0.3019  1.3600  1.0857
 3962TIP3    H233378   0.826   3.143   3.446 -1.5309 -0.3649 -0.2067
 3963TIP3   OH233379   2.369   2.164  11.068 -0.0947 -0.1390 -0.1507
 3963TIP3    H133380   2.340   2.096  11.007  2.2181  0.2490 -1.8229
 3963TIP3    H233381   2.383   2.241  11.013  0.7899  0.6239  1.0913
 3964TIP3   OH233382   2.234   3.406  11.913 -0.6749 -0.0277  0.2403
 3964TIP3    H133383   2.267   3.316  11.910  2.2817  0.9529 -0.2353
 3964TIP3    H233384   2.219   3.429  11.821  0.9260  0.6707  0.1158
 3965TIP3   OH233385   2.137   3.001   4.170  0.7204 -0.2310  0.0607
 3965TIP3    H133386   2.057   2.971   4.127  0.3748  0.8795 -0.0999
 3965TIP3    H233387   2.193   3.031   4.099  1.2148 -0.8034  0.1916
 3966TIP3   OH233388   6.618   0.581  15.745 -0.3698 -0.2539  0.2112
 3966TIP3    H133389   6.577   0.495  15.752 -2.0497  0.3847 -0.9208
 3966TIP3    H233390   6.589   0.628  15.824 -1.1603 -0.0946 -0.1582
 3967TIP3   OH233391   3.816   0.169   1.645  0.7080  0.1893  0.3117
 3967TIP3    H133392   3.751   0.239   1.645  1.0556  0.5428 -0.9938
 3967TIP3    H233393   3.900   0.214   1.637  0.8581 -0.3734 -2.2008
 3968TIP3   OH233394   5.208   5.568  17.136  0.8880  0.4213 -0.5080
 3968TIP3    H133395   5.230   5.661  17.124  1.0252  0.6779  1.3257
 3968TIP3    H233396   5.275   5.521  17.087  1.8747  1.2926 -0.0400
 3969TIP3   OH233397   4.211   0.996  12.650  0.1854 -0.2259 -0.1938
 3969TIP3    H133398   4.136   0.938  12.660 -1.4605  1.6004 -1.1238
 3969TIP3    H233399   4.180   1.080  12.685  1.5275  0.7755 -1.3205
 3970TIP3   OH233400   0.421   4.766  15.886  0.2417 -0.5940 -0.0005
 3970TIP3    H133401   0.502   4.727  15.918 -0.1400 -1.2757  0.1374
 3970TIP3    H233402   0.355   4.699  15.899 -0.3628 -0.0160 -0.0494
 3971TIP3   OH233403   2.352   0.336  16.315 -0.0900 -0.2538 -0.1940
 3971TIP3    H133404   2.381   0.271  16.379 -2.4826 -2.2484 -0.9519
 3971TIP3    H233405   2.279   0.381  16.357 -0.8315 -0.6713 -0.9939
 3972TIP3   OH233406   1.641   4.229   5.947  0.1152 -0.3705  0.2670
 3972TIP3    H133407   1.612   4.311   5.989  0.9265 -0.2724  0.6625
 3972TIP3    H233408   1.561   4.177   5.940  0.0904 -0.8687  3.0313
 3973TIP3   OH233409   0.449   0.636   6.340  0.4288 -0.3165 -0.5108
 3973TIP3    H133410   0.399   0.682   6.407 -0.3134  0.9005 -1.8459
 3973TIP3    H233411   0.384   0.605   6.277  1.1339 -1.0695 -0.8977
 3974TIP3   OH233412   4.419   3.490  13.427 -0.2686  0.2772 -0.4760
 3974TIP3    H133413   4.374   3.489  13.511 -2.3550 -0.7087 -1.5208
 3974TIP3    H233414   4.491   3.429  13.437  2.4940  3.5385  1.9651
 3975TIP3   OH233415   2.183   4.348   2.871  0.7136 -0.4348  0.9393
 3975TIP3    H133416   2.259   4.407   2.862 -0.3428  1.1580  1.8685
 3975TIP3    H233417   2.141   4.351   2.785  0.9627 -0.2691  0.8191
 3976TIP3   OH233418   4.418   5.153  12.314  0.6348  0.1948 -0.4091
 3976TIP3    H133419   4.488   5.116  12.260 -0.3283  0.2410 -1.7402
 3976TIP3    H233420   4.351   5.180  12.252 -0.0984  1.1915  0.7605
 3977TIP3   OH233421   0.983   2.017   4.971  0.1189 -0.3994 -0.2185
 3977TIP3    H133422   0.967   2.098   4.922 -1.9690 -0.6048  0.0177
 3977TIP3    H233423   0.906   2.008   5.027  1.3227 -1.4475  1.3443
 3978TIP3   OH233424   3.081   2.713  11.862  0.1149  0.2124 -0.1032
 3978TIP3    H133425   3.032   2.696  11.942 -0.2941  0.3779 -0.3167
 3978TIP3    H233426   3.014   2.722  11.794  0.5021 -1.0271 -0.6810
 3979TIP3   OH233427   3.091   0.874   0.220 -0.1285 -0.2957 -0.3825
 3979TIP3    H133428   3.169   0.905   0.265 -0.1975 -0.4752 -0.1422
 3979TIP3    H233429   3.108   0.893   0.127 -0.8674  2.0442 -0.1133
 3980TIP3   OH233430   3.041   6.406   0.116  0.1056 -0.1342 -0.1881
 3980TIP3    H133431   2.991   6.485   0.096 -1.0599  0.1453  3.1768
 3980TIP3    H233432   3.094   6.429   0.193  1.4563 -1.9873 -0.4783
 3981TIP3   OH233433   3.661   6.221  13.102  0.2770 -0.6886 -0.4746
 3981TIP3    H133434   3.739   6.169  13.083  1.9931  0.7109  2.1498
 3981TIP3    H233435   3.687   6.278  13.174 -2.1547  2.3096 -1.7527
 3982TIP3   OH233436   0.046   4.473  12.196  0.1741 -0.2467  0.4420
 3982TIP3    H133437  -0.038   4.451  12.236 -0.1667  1.8092  0.9640
 3982TIP3    H233438   0.025   4.498  12.107  0.1363  0.7987  0.7334
 3983TIP3   OH233439   2.181   0.278  16.628 -0.7719 -0.5551 -0.4145
 3983TIP3    H133440   2.116   0.343  16.601  0.0242 -0.2460 -1.6241
 3983TIP3    H233441   2.187   0.218  16.555  1.4111  0.2853 -1.0088
 3984TIP3   OH233442   0.174   0.160  16.792 -0.0654 -0.2153  0.4425
 3984TIP3    H133443   0.171   0.224  16.721 -2.3057  1.1312  1.6446
 3984TIP3    H233444   0.141   0.079  16.754  0.3455  0.0218 -0.4429
 3985TIP3   OH233445   0.470   2.169   3.251 -0.4185 -0.2568  0.3292
 3985TIP3    H133446   0.448   2.253   3.290  2.1110  0.9574 -0.6103
 3985TIP3    H233447   0.443   2.176   3.160  2.3974  0.8151 -0.5375
 3986TIP3   OH233448   5.134   2.979   2.388  0.3819  0.1628  0.2611
 3986TIP3    H133449   5.160   2.965   2.297 -1.6840 -1.7977 -0.1147
 3986TIP3    H233450   5.195   2.925   2.438  0.0073 -0.6961 -0.1884
 3987TIP3   OH233451   4.213   5.038  16.960 -0.1355 -0.1521 -0.2343
 3987TIP3    H133452   4.232   4.975  17.030 -1.8126 -0.4535 -0.0086
 3987TIP3    H233453   4.200   4.983  16.882 -3.3017 -0.3459  0.3046
 3988TIP3   OH233454   1.093   2.279   1.484 -0.6416 -0.1415  0.0233
 3988TIP3    H133455   1.111   2.265   1.391 -0.9000  0.5282 -0.1310
 3988TIP3    H233456   1.082   2.373   1.492  0.0317 -0.1268  0.8526
 3989TIP3   OH233457   3.680   0.373  12.680  0.4929 -0.9484 -0.2136
 3989TIP3    H133458   3.647   0.434  12.746 -1.4825 -1.4276 -0.6863
 3989TIP3    H233459   3.734   0.311  12.730  1.6589  0.5241  0.4286
 3990TIP3   OH233460   4.167   6.523   0.871  0.3279  0.4261 -0.6649
 3990TIP3    H133461   4.104   6.594   0.883  1.0446  0.8096  1.0918
 3990TIP3    H233462   4.132   6.451   0.924  1.0667  0.4562 -0.1209
 3991TIP3   OH233463   4.862   5.259  13.699 -0.0007 -0.6400 -0.4687
 3991TIP3    H133464   4.882   5.333  13.755  0.6311  0.4007 -1.9923
 3991TIP3    H233465   4.766   5.254  13.698 -0.0150 -0.6559  0.6479
 3992TIP3   OH233466   6.544   2.820  11.864 -0.0067  0.0430 -0.0746
 3992TIP3    H133467   6.449   2.835  11.863 -0.0737 -0.3930 -0.5092
 3992TIP3    H233468   6.568   2.824  11.956 -0.8887 -2.4834  0.3281
 3993TIP3   OH233469   2.902   1.669  13.700 -0.2645  0.6185 -0.7333
 3993TIP3    H133470   2.887   1.623  13.783  1.6391  0.1864 -0.6014
 3993TIP3    H233471   2.922   1.759  13.726 -2.6715  1.2745 -0.9271
 3994TIP3   OH233472   2.576   4.496  15.517  0.3427  0.4422  0.1039
 3994TIP3    H133473   2.605   4.560  15.583  2.2904 -0.0333 -0.2199
 3994TIP3    H233474   2.556   4.417  15.568  1.8711  0.0653  0.1786
 3995TIP3   OH233475   1.933   1.573   2.948  0.1928 -0.2469  0.3022
 3995TIP3    H133476   1.913   1.535   3.034  0.2611 -0.8345  0.0601
 3995TIP3    H233477   2.021   1.609   2.958  0.0315  0.0751  0.6056
 3996TIP3   OH233478   5.653   4.433  17.099  0.7895 -0.3066 -0.1262
 3996TIP3    H133479   5.589   4.380  17.052 -0.8478  0.1541  1.4444
 3996TIP3    H233480   5.732   4.378  17.102  0.6304 -0.7626 -2.3924
 3997TIP3   OH233481   0.709   6.091  12.923  0.1894  0.8972 -0.4767
 3997TIP3    H133482   0.789   6.127  12.961 -0.5281  0.9389  1.0672
 3997TIP3    H233483   0.659   6.059  12.998 -0.6555 -0.3581 -1.5314
 3998TIP3   OH233484   0.534   2.999  15.841 -0.0629 -0.6189 -0.2285
 3998TIP3    H133485   0.499   2.990  15.752  1.8714 -0.3374 -1.0633
 3998TIP3    H233486   0.565   3.089  15.845 -0.8947 -0.3715  1.0502
 3999TIP3   OH233487   1.752   1.715   5.496  0.1208 -0.3182  0.3572
 3999TIP3    H133488   1.718   1.784   5.439  1.3014  0.5779  0.6939
 3999TIP3    H233489   1.676   1.662   5.519 -0.4346 -0.5575 -1.8313
 4000TIP3   OH233490   6.710   3.772  14.084 -0.3523 -0.0195  0.0612
 4000TIP3    H133491   6.731   3.832  14.013 -1.0313 -0.4865 -0.5454
 4000TIP3    H233492   6.770   3.798  14.155  0.8687 -0.0389 -0.9188
 4001TIP3   OH233493   2.887   4.170  14.615  0.4938 -0.6795  0.0494
 4001TIP3    H133494   2.977   4.193  14.596  0.4227  0.0375  0.5358
 4001TIP3    H233495   2.879   4.078  14.590  1.4166 -0.8058  0.2169
 4002TIP3   OH233496   4.547   5.366   3.320  0.4935  0.0833 -0.2593
 4002TIP3    H133497   4.579   5.284   3.281 -0.5395 -0.3291 -0.2666
 4002TIP3    H233498   4.506   5.412   3.247  1.1298  0.6434 -0.2672
 4003TIP3   OH233499   1.209   3.420  17.070  0.0452  0.6411 -0.0958
 4003TIP3    H133500   1.236   3.392  17.158 -2.2269  0.3060  0.5398
 4003TIP3    H233501   1.232   3.347  17.013  0.3571  0.3239  0.4314
 4004TIP3   OH233502   1.351   3.357   0.461 -0.3909  0.6274  0.0005
 4004TIP3    H133503   1.379   3.306   0.537  0.6051 -1.3779 -1.6349
 4004TIP3    H233504   1.427   3.410   0.437 -0.3342  0.4114 -0.2903
 4005TIP3   OH233505   2.782   6.395   3.311 -0.2481  0.0312  0.0405
 4005TIP3    H133506   2.693   6.361   3.318 -1.0289  1.5145 -1.8596
 4005TIP3    H233507   2.834   6.319   3.283 -1.2732 -0.4316 -0.6851
 4006TIP3   OH233508   1.662   4.181  15.358  0.0369 -0.3024 -0.0658
 4006TIP3    H133509   1.600   4.254  15.357  1.1750  0.7175 -0.8178
 4006TIP3    H233510   1.692   4.175  15.449 -0.0036  0.2468 -0.0143
 4007TIP3   OH233511   6.785   2.019  16.993 -0.4662 -0.2966  0.0021
 4007TIP3    H133512   6.870   2.013  17.037 -0.2937 -0.7811 -0.3873
 4007TIP3    H233513   6.803   2.066  16.912 -0.8840  1.0717  0.6710
 4008TIP3   OH233514   1.697   2.923  11.460 -0.1012 -0.2780  0.4135
 4008TIP3    H133515   1.719   2.905  11.369 -0.4229 -3.1647  0.8085
 4008TIP3    H233516   1.605   2.898  11.468 -0.4554  1.1683  1.2746
 4009TIP3   OH233517   5.430   1.366  13.490  0.2350 -0.1149  0.4611
 4009TIP3    H133518   5.383   1.418  13.425 -0.0218 -1.5072 -0.5202
 4009TIP3    H233519   5.435   1.422  13.567 -1.8437  0.5955  0.1399
 4010TIP3   OH233520   1.935   0.239   3.195 -0.5988  0.0018 -0.4338
 4010TIP3    H133521   1.872   0.271   3.260 -1.7019 -1.4056 -0.7655
 4010TIP3    H233522   2.017   0.228   3.245 -0.5509  1.9073 -0.0167
 4011TIP3   OH233523   3.598   1.434  13.725  0.1185  0.2831 -0.2491
 4011TIP3    H133524   3.601   1.478  13.640 -2.0813  0.4232 -0.3250
 4011TIP3    H233525   3.600   1.505  13.789  0.3859  0.2651 -0.2386
 4012TIP3   OH233526   4.388   3.491   4.261  0.0385  0.0574 -0.4411
 4012TIP3    H133527   4.382   3.454   4.349  0.9196 -0.6259 -0.6628
 4012TIP3    H233528   4.324   3.442   4.210 -2.0745  1.9053  0.2731
 4013TIP3   OH233529   2.804   4.885  15.003 -0.5975  0.3122  0.5051
 4013TIP3    H133530   2.807   4.789  15.008  2.5755  0.2113 -0.8913
 4013TIP3    H233531   2.750   4.904  14.927 -0.4339 -0.4049  0.2067
 4014TIP3   OH233532   5.681   3.194   5.917 -0.0558 -0.2613 -0.4208
 4014TIP3    H133533   5.645   3.246   5.989 -1.8638 -0.0054 -1.4434
 4014TIP3    H233534   5.768   3.167   5.947  0.6311  2.6359  0.4737
 4015TIP3   OH233535   2.731   0.217  17.053  0.4240  0.4546 -0.1684
 4015TIP3    H133536   2.666   0.280  17.021  1.5509  2.2063  0.8540
 4015TIP3    H233537   2.709   0.204  17.145 -1.0709 -2.3774 -0.8034
 4016TIP3   OH233538   6.111   4.819  15.115 -0.6304 -0.6482 -0.1228
 4016TIP3    H133539   6.154   4.803  15.199 -1.5737 -1.6326  0.2096
 4016TIP3    H233540   6.181   4.816  15.050 -0.0886 -1.3891  0.4830
 4017TIP3   OH233541   2.698   3.885  16.813  0.1495  0.6105 -0.6300
 4017TIP3    H133542   2.625   3.895  16.752  1.2675  0.8169 -1.9794
 4017TIP3    H233543   2.709   3.790  16.821 -2.1809  0.4268  2.0311
 4018TIP3   OH233544   2.971   0.751   6.900  0.0506  0.1355  0.2119
 4018TIP3    H133545   3.041   0.706   6.853  0.2883 -0.4013  1.0507
 4018TIP3    H233546   2.910   0.681   6.924  0.2534  0.2896  1.2415
 4019TIP3   OH233547   3.197   5.615  12.280  0.0772 -0.1673 -0.0483
 4019TIP3    H133548   3.232   5.698  12.248  0.0883 -0.3226 -0.4340
 4019TIP3    H233549   3.265   5.580  12.337  0.3551 -0.2376 -0.4196
 4020TIP3   OH233550   2.152   5.039   1.950 -0.2154  0.2555  0.0390
 4020TIP3    H133551   2.095   5.048   2.026 -1.4274 -0.0545 -0.8003
 4020TIP3    H233552   2.224   5.099   1.967 -0.3833  0.0697  1.4940
 4021TIP3   OH233553   5.483   4.320   4.571 -0.8710 -0.7142 -0.2792
 4021TIP3    H133554   5.481   4.229   4.602 -0.0821  0.2844  3.1391
 4021TIP3    H233555   5.573   4.333   4.543 -1.0309 -1.0360 -0.9461
 4022TIP3   OH233556   3.707   1.105   2.739  0.2660  0.2887 -0.4620
 4022TIP3    H133557   3.658   1.036   2.694 -2.3100  0.9560  1.0818
 4022TIP3    H233558   3.704   1.179   2.679 -2.2628  0.8515  0.2127
 4023TIP3   OH233559   6.630   6.210  11.000  0.1546 -0.0217 -0.2136
 4023TIP3    H133560   6.610   6.245  10.914  0.5070 -0.4495 -0.4735
 4023TIP3    H233561   6.544   6.189  11.038  0.0540 -1.1236 -1.0142
 4024TIP3   OH233562   1.464   2.790  11.373  0.3428 -0.2559  0.2627
 4024TIP3    H133563   1.457   2.765  11.281  0.3881 -0.9825  0.4525
 4024TIP3    H233564   1.376   2.817  11.397 -0.0841 -1.7627  0.4788
 4025TIP3   OH233565   4.868   5.996  11.030  0.4829  0.4423 -0.0073
 4025TIP3    H133566   4.883   5.921  10.971 -0.5706 -0.6301  1.0320
 4025TIP3    H233567   4.939   6.056  11.010  0.1361  0.1729 -2.4424
 4026TIP3   OH233568   4.106   4.910   6.656  0.2516 -0.5081  0.0259
 4026TIP3    H133569   4.046   4.969   6.611  0.3149  0.7349  1.4718
 4026TIP3    H233570   4.049   4.851   6.705  0.1841 -0.0175  0.5501
 4027TIP3   OH233571   3.567   0.253   2.363  0.0932 -0.1227  0.0850
 4027TIP3    H133572   3.560   0.167   2.406  0.4962  0.0159  0.4373
 4027TIP3    H233573   3.599   0.233   2.274  0.6414 -0.3094  0.3177
 4028TIP3   OH233574   5.963   1.791   1.801 -0.0994 -0.2408 -0.0941
 4028TIP3    H133575   5.958   1.818   1.709  0.9691 -0.8422 -0.3474
 4028TIP3    H233576   6.013   1.709   1.799  1.0517  0.4020  1.1410
 4029TIP3   OH233577   5.301   6.552   4.526  0.6569 -0.0904 -0.2182
 4029TIP3    H133578   5.263   6.511   4.603  1.6814 -0.4603  0.1103
 4029TIP3    H233579   5.273   6.497   4.453  1.6985 -1.2016  0.1746
 4030TIP3   OH233580   1.636   6.004   2.890 -1.3330  0.2251 -0.2712
 4030TIP3    H133581   1.681   6.053   2.959 -1.4557  0.9625 -0.7013
 4030TIP3    H233582   1.642   5.913   2.918 -0.1158  0.3639  0.0018
 4031TIP3   OH233583   4.032   1.789   4.935 -0.0958 -0.5319 -0.4239
 4031TIP3    H133584   3.974   1.861   4.959  1.8910  1.2588 -0.7315
 4031TIP3    H233585   4.085   1.774   5.013 -1.5756 -2.9056  0.2399
 4032TIP3   OH233586   3.239   3.223  15.072 -0.1572 -0.8289 -0.2592
 4032TIP3    H133587   3.322   3.270  15.066  0.3664 -1.6308  0.5080
 4032TIP3    H233588   3.263   3.131  15.063 -0.5904 -1.3036  2.6788
 4033TIP3   OH233589   0.573   2.753   5.828 -0.0757 -0.1136 -0.0552
 4033TIP3    H133590   0.566   2.658   5.840  0.9490 -0.4306 -1.6838
 4033TIP3    H233591   0.586   2.764   5.734 -0.6363  1.6916  0.0378
 4034TIP3   OH233592   5.317   1.492  13.202 -0.4002  0.1711  0.1000
 4034TIP3    H133593   5.284   1.485  13.112 -0.5704 -0.5128  0.2109
 4034TIP3    H233594   5.245   1.461  13.256  0.6505 -2.1206  0.3067
 4035TIP3   OH233595   0.726   6.307  14.046 -0.6941 -0.5488  0.0817
 4035TIP3    H133596   0.642   6.260  14.050 -1.0964  0.2101  2.5703
 4035TIP3    H233597   0.792   6.238  14.038 -1.4102 -1.4196  1.3101
 4036TIP3   OH233598   3.743   0.499   4.722  0.7205  0.0961 -0.3562
 4036TIP3    H133599   3.680   0.428   4.716  1.0648 -0.5278  2.1496
 4036TIP3    H233600   3.732   0.549   4.641  0.0731 -2.4506 -1.9564
 4037TIP3   OH233601   0.382   4.131  16.626 -0.3410 -0.0248 -0.1822
 4037TIP3    H133602   0.429   4.212  16.605  0.3631 -0.5205 -0.5230
 4037TIP3    H233603   0.388   4.079  16.546  1.7621 -1.6562  0.9577
 4038TIP3   OH233604   1.297   3.584  12.929 -0.0779  0.2673  0.6572
 4038TIP3    H133605   1.248   3.502  12.935  1.0705 -0.4260  0.8335
 4038TIP3    H233606   1.238   3.650  12.966 -1.7784 -0.1012 -1.2105
 4039TIP3   OH233607   0.096   2.182   3.476  0.4693 -0.4041 -0.9227
 4039TIP3    H133608   0.123   2.168   3.385  1.3349  1.6943 -1.0489
 4039TIP3    H233609   0.002   2.198   3.470  0.9979  3.5806 -2.1266
 4040TIP3   OH233610   5.245   2.207   1.293 -0.2956 -0.3042  0.3304
 4040TIP3    H133611   5.178   2.190   1.359  0.7906  0.4821  1.6848
 4040TIP3    H233612   5.227   2.295   1.260 -1.9258 -1.3529 -1.8265
 4041TIP3   OH233613   6.365   5.548   0.024  0.7062  0.5129 -0.0894
 4041TIP3    H133614   6.447   5.523   0.066  0.3507 -0.4802  0.0527
 4041TIP3    H233615   6.389   5.617  -0.038  1.8296 -0.4432 -0.7653
 4042TIP3   OH233616   3.423   1.965  13.315 -0.4450 -0.3461 -0.3655
 4042TIP3    H133617   3.455   1.892  13.262 -0.5424 -2.8940  2.8405
 4042TIP3    H233618   3.333   1.942  13.337 -0.7192  1.1229  0.1930
 4043TIP3   OH233619   0.449   3.794  11.551  0.4284  0.0774 -0.4578
 4043TIP3    H133620   0.477   3.702  11.550  0.6739  0.1110  1.2583
 4043TIP3    H233621   0.463   3.823  11.641  2.7317  2.5741 -1.5024
 4044TIP3   OH233622   4.219   1.662   2.974  0.0720 -0.0049  0.0176
 4044TIP3    H133623   4.206   1.614   3.056  1.0910 -1.6023 -0.6951
 4044TIP3    H233624   4.148   1.631   2.917 -0.2710  0.6301  0.1002
 4045TIP3   OH233625   2.570   5.745   3.045  0.0806  0.0795  0.1575
 4045TIP3    H133626   2.601   5.660   3.077  0.5628  0.1242 -0.1768
 4045TIP3    H233627   2.476   5.732   3.030  0.1383 -0.3782  0.1620
 4046TIP3   OH233628   5.577   4.413   1.241 -0.7458  0.6280 -0.3105
 4046TIP3    H133629   5.533   4.494   1.263 -2.7620 -0.0844 -1.4405
 4046TIP3    H233630   5.508   4.357   1.204  0.4771 -1.7525  0.7937
 4047TIP3   OH233631   1.912   5.959   1.597 -0.0773  0.2958 -0.3556
 4047TIP3    H133632   1.870   6.031   1.550  1.5293  1.3463 -0.2512
 4047TIP3    H233633   1.965   5.914   1.530  1.3209  1.1033  0.1701
 4048TIP3   OH233634   4.764   5.602   2.872 -0.0268 -0.2578 -0.1594
 4048TIP3    H133635   4.805   5.530   2.919  0.0662 -0.3274 -0.3482
 4048TIP3    H233636   4.715   5.649   2.939  0.3970 -0.1485  0.0799
 4049TIP3   OH233637   1.127   3.956   4.125  0.6595  0.6387 -0.0364
 4049TIP3    H133638   1.219   3.969   4.148  1.0324  0.6837 -1.4693
 4049TIP3    H233639   1.097   4.042   4.096  0.3076  0.5143 -0.0481
 4050TIP3   OH233640   0.324   5.067   3.797  0.7538 -0.1805  0.1952
 4050TIP3    H133641   0.314   5.127   3.723 -0.9614  0.0679  0.5964
 4050TIP3    H233642   0.292   4.983   3.763 -0.4191  0.0264  0.7508
 4051TIP3   OH233643   2.377   1.780   5.370  0.7227 -0.0574 -0.0249
 4051TIP3    H133644   2.339   1.841   5.433 -0.3841 -0.5996 -0.1415
 4051TIP3    H233645   2.324   1.792   5.291 -0.3753 -2.0682  0.3441
 4052TIP3   OH233646   3.184   1.532   4.301  0.0644  0.0158  0.0263
 4052TIP3    H133647   3.165   1.468   4.232  1.2726 -0.6708  0.2913
 4052TIP3    H233648   3.243   1.485   4.361 -0.4239  0.8200  1.1660
 4053TIP3   OH233649   5.059   6.275   3.029  0.4765 -0.0466  0.0074
 4053TIP3    H133650   5.009   6.232   2.960  0.2011 -0.0999  0.2395
 4053TIP3    H233651   5.113   6.339   2.983  1.2232 -0.9510 -0.3800
 4054TIP3   OH233652   1.295   4.528  11.738 -0.2689 -0.1839  0.4391
 4054TIP3    H133653   1.208   4.554  11.769  0.1481  2.1701 -0.2208
 4054TIP3    H233654   1.349   4.606  11.749  1.3066 -1.0154 -0.9415
 4055TIP3   OH233655   6.523   2.076   3.216  0.1147 -0.7661  0.2975
 4055TIP3    H133656   6.496   1.985   3.204 -2.0894 -0.1341 -0.1250
 4055TIP3    H233657   6.515   2.114   3.128  0.1255  0.0279  0.6329
 4056TIP3   OH233658   0.210   1.148   3.385  0.4400  0.0552  0.2573
 4056TIP3    H133659   0.126   1.149   3.431 -0.1969  1.4307 -0.8603
 4056TIP3    H233660   0.187   1.157   3.293  1.7094 -2.3472 -0.3670
 4057TIP3   OH233661   4.756   4.739   5.178  0.5429 -0.0258 -0.8814
 4057TIP3    H133662   4.692   4.669   5.188 -2.2518  2.5223  1.2540
 4057TIP3    H233663   4.714   4.802   5.119  1.4301  1.3318 -0.1282
 4058TIP3   OH233664   5.673   1.996  12.331 -0.0354 -0.3045  0.7885
 4058TIP3    H133665   5.714   1.948  12.258 -0.6468 -0.5514  0.6053
 4058TIP3    H233666   5.745   2.046  12.369 -0.0395  1.2545 -1.1099
 4059TIP3   OH233667   3.046   2.424  15.969 -0.1429 -0.0519  0.0391
 4059TIP3    H133668   3.115   2.384  15.917  0.0636  1.9668 -1.3699
 4059TIP3    H233669   3.073   2.411  16.060  1.5792 -0.1475 -0.4541
 4060TIP3   OH233670   3.177   5.891  15.589  0.3236 -0.3197 -0.3606
 4060TIP3    H133671   3.217   5.968  15.628  1.4217 -0.2880 -1.5042
 4060TIP3    H233672   3.236   5.866  15.518 -0.7617 -1.3549 -0.9382
 4061TIP3   OH233673   4.696   4.473   4.599 -0.1597  0.2768  0.1244
 4061TIP3    H133674   4.651   4.411   4.542 -1.1199  0.7867  0.3158
 4061TIP3    H233675   4.789   4.464   4.575 -0.3398 -0.8747 -0.1737
 4062TIP3   OH233676   0.831   3.732   2.590  0.0051  0.3585 -0.0135
 4062TIP3    H133677   0.770   3.659   2.591  0.8701 -0.3787  1.1828
 4062TIP3    H233678   0.899   3.706   2.528  0.3478  0.1155  0.4626
 4063TIP3   OH233679   1.287   2.609   0.394  0.4030  0.1678 -0.8834
 4063TIP3    H133680   1.289   2.640   0.303  0.3758 -0.1344 -0.9910
 4063TIP3    H233681   1.200   2.632   0.426  0.5548  0.6384 -0.8012
 4064TIP3   OH233682   4.875   3.503   5.742  0.4015  0.6597 -0.2861
 4064TIP3    H133683   4.799   3.548   5.705  0.7556  0.8168 -0.8392
 4064TIP3    H233684   4.910   3.565   5.807 -0.3918  0.2612  0.5436
 4065TIP3   OH233685   0.388   4.782   5.677 -0.1666  0.1751  0.3854
 4065TIP3    H133686   0.417   4.871   5.659 -0.4681 -0.1529 -1.9861
 4065TIP3    H233687   0.295   4.782   5.654 -0.3561 -0.5924  1.0731
 4066TIP3   OH233688   4.830   0.784   5.619 -0.1576 -0.1134 -0.6357
 4066TIP3    H133689   4.831   0.867   5.667 -0.9929  0.5577 -1.7430
 4066TIP3    H233690   4.773   0.800   5.544  0.4010 -1.4157 -1.3699
 4067TIP3   OH233691   6.427   2.821   6.720  0.3789 -0.0768 -0.2290
 4067TIP3    H133692   6.421   2.749   6.658  0.2856 -0.7663  0.5683
 4067TIP3    H233693   6.492   2.880   6.681 -1.5296  0.8246 -2.2813
 4068TIP3   OH233694   5.715   5.789  14.256  0.5002 -0.2653  0.7854
 4068TIP3    H133695   5.643   5.736  14.290  1.4802 -2.1864  0.0128
 4068TIP3    H233696   5.776   5.796  14.329  0.9167 -1.2633  0.5500
 4069TIP3   OH233697   2.140   0.064   0.100 -0.7917  0.1688  0.0024
 4069TIP3    H133698   2.046   0.055   0.080 -0.2806 -2.6993 -1.6635
 4069TIP3    H233699   2.148   0.033   0.190 -1.4303  0.6264  0.2335
 4070TIP3   OH233700   3.687   2.005   3.003  0.1287  0.0689 -0.5245
 4070TIP3    H133701   3.641   1.973   3.081  2.0402  0.3717  0.8040
 4070TIP3    H233702   3.617   2.026   2.941 -1.5102  0.5312  1.3659
 4071TIP3   OH233703   0.311   3.484   2.553  0.0548  0.0021  0.2968
 4071TIP3    H133704   0.261   3.553   2.510 -1.8724 -0.3814  1.7707
 4071TIP3    H233705   0.344   3.430   2.481  1.5834  2.3505 -0.8811
 4072TIP3   OH233706   4.804   4.507  10.956  0.1458  0.0749 -0.2409
 4072TIP3    H133707   4.744   4.580  10.944 -1.9261 -1.1685  1.6439
 4072TIP3    H233708   4.747   4.430  10.961  1.8116 -1.1472  1.9385
 4073TIP3   OH233709   2.462   4.449  11.310 -0.5623 -0.2366 -0.2082
 4073TIP3    H133710   2.472   4.509  11.384 -1.0246  1.4925 -1.4827
 4073TIP3    H233711   2.439   4.505  11.236 -0.2343 -1.9129 -1.6609
 4074TIP3   OH233712   1.238   4.001  13.377 -0.1694 -0.4791  0.1153
 4074TIP3    H133713   1.231   3.997  13.282 -2.1894 -0.2085  0.2129
 4074TIP3    H233714   1.155   3.967  13.409 -1.2098  3.1397  1.6799
 4075TIP3   OH233715   2.250   1.789   4.070  0.5146 -0.3192 -0.0026
 4075TIP3    H133716   2.271   1.742   3.989  1.4192  0.7916 -0.4293
 4075TIP3    H233717   2.170   1.837   4.049 -0.0477 -1.1248  0.2302
 4076TIP3   OH233718   6.445   1.878   0.339  0.0730  0.3786  0.2649
 4076TIP3    H133719   6.456   1.971   0.318 -0.9019  0.5168  0.3043
 4076TIP3    H233720   6.525   1.836   0.308 -0.3894  0.9021 -1.7685
 4077TIP3   OH233721   3.489   0.802   2.357 -0.2608 -0.4289  0.5187
 4077TIP3    H133722   3.473   0.708   2.368  0.8034 -0.6111  0.6233
 4077TIP3    H233723   3.530   0.810   2.271  2.8485 -0.5402  1.8312
 4078TIP3   OH233724   4.736   0.518   3.497 -0.0629  0.0430  0.4622
 4078TIP3    H133725   4.792   0.596   3.490  0.3761 -0.0387  2.3307
 4078TIP3    H233726   4.655   0.550   3.537 -0.1192 -0.3484  0.6682
 4079TIP3   OH233727   2.976   3.684  13.401  0.1123  0.2856 -0.3541
 4079TIP3    H133728   2.951   3.776  13.403 -1.3239 -0.0859 -0.0219
 4079TIP3    H233729   3.032   3.672  13.478 -0.4350  0.6814  0.1072
 4080TIP3   OH233730   0.560   3.792  10.922 -0.1807  0.6748  0.9717
 4080TIP3    H133731   0.649   3.773  10.891 -0.2977  0.5684  0.6963
 4080TIP3    H233732   0.546   3.885  10.900 -0.9039  0.1733 -0.9218
 4081TIP3   OH233733   5.437   6.288   1.146 -0.7794  0.1345  0.4362
 4081TIP3    H133734   5.383   6.211   1.162 -0.4623 -0.2755 -0.4126
 4081TIP3    H233735   5.515   6.274   1.199  0.0842 -1.0183 -1.0935
 4082TIP3   OH233736   4.714   0.279  15.331 -0.5375  0.2410  0.4053
 4082TIP3    H133737   4.748   0.304  15.245 -0.5249 -1.5141 -0.1497
 4082TIP3    H233738   4.625   0.314  15.333 -0.4061  0.6227 -0.1684
 4083TIP3   OH233739   1.939   5.732   5.815  0.5474  0.3224 -0.2704
 4083TIP3    H133740   1.999   5.735   5.740 -1.7107  0.3130 -2.2122
 4083TIP3    H233741   1.914   5.640   5.821 -0.3288  0.5372 -0.4363
 4084TIP3   OH233742   4.818   0.720  13.096  0.2327 -0.0065 -0.1294
 4084TIP3    H133743   4.772   0.721  13.012  0.1092  0.2685 -0.0597
 4084TIP3    H233744   4.908   0.744  13.075 -0.0587  1.2557 -0.0352
 4085TIP3   OH233745   4.925   4.305  11.137  0.2804  0.1365 -0.2909
 4085TIP3    H133746   4.872   4.231  11.165 -0.9736  1.3669  0.7460
 4085TIP3    H233747   4.904   4.316  11.044 -0.5179 -0.0040 -0.1309
 4086TIP3   OH233748   5.650   6.346   1.966 -0.1562  0.4341  0.6772
 4086TIP3    H133749   5.725   6.371   1.913 -1.6401  1.3290 -1.1251
 4086TIP3    H233750   5.637   6.253   1.949  0.2901  0.3691  0.6891
 4087TIP3   OH233751   4.969   4.279   4.873  0.4092  0.6419 -0.4729
 4087TIP3    H133752   4.910   4.240   4.808 -0.5527  1.6680 -0.2464
 4087TIP3    H233753   4.926   4.361   4.897  0.3835 -0.0097  1.9488
 4088TIP3   OH233754   3.646   0.972  13.924 -0.5243 -0.1028 -0.4132
 4088TIP3    H133755   3.647   0.876  13.929 -0.8252 -0.0862  0.0840
 4088TIP3    H233756   3.734   0.996  13.897 -0.0538 -0.4640  0.7404
 4089TIP3   OH233757   1.488   1.869  15.992 -0.2951  0.3520  0.1515
 4089TIP3    H133758   1.499   1.864  16.087 -2.6333  0.5344  0.4842
 4089TIP3    H233759   1.448   1.785  15.967 -0.3646  0.5884 -0.5719
 4090TIP3   OH233760   2.147   3.092   1.999 -0.7110 -0.2546 -0.3717
 4090TIP3    H133761   2.118   3.080   1.909 -1.4733  0.6874 -0.2749
 4090TIP3    H233762   2.069   3.079   2.052 -0.9988  2.0920 -0.0893
 4091TIP3   OH233763   1.261   5.296   0.654  0.2665  0.0315  0.4249
 4091TIP3    H133764   1.199   5.240   0.607 -0.4344  1.4311 -0.4144
 4091TIP3    H233765   1.249   5.273   0.746 -0.5755 -0.6371  0.1685
 4092TIP3   OH233766   6.345   4.723   0.084 -0.5432  0.6678  0.2719
 4092TIP3    H133767   6.286   4.737   0.158 -1.5032  0.9539 -0.5272
 4092TIP3    H233768   6.305   4.772   0.011  0.9770  1.3628 -0.1517
 4093TIP3   OH233769   1.246   3.765  11.168  0.6649 -0.0817 -0.5767
 4093TIP3    H133770   1.248   3.858  11.190 -0.7167 -0.0708 -0.4165
 4093TIP3    H233771   1.281   3.722  11.246 -3.7167 -0.0086  1.7178
 4094TIP3   OH233772   4.982   1.587   1.936  0.3444  0.3994 -0.0060
 4094TIP3    H133773   4.965   1.584   1.842 -0.5395  0.0471  0.1522
 4094TIP3    H233774   5.026   1.671   1.950  1.3924  0.0143 -0.8682
 4095TIP3   OH233775   2.079   2.058  10.588  0.1346 -0.0996 -0.0857
 4095TIP3    H133776   2.091   2.149  10.615 -0.5708 -0.3766  1.2928
 4095TIP3    H233777   2.137   2.008  10.647 -0.5725 -0.6421  0.1647
 4096TIP3   OH233778   5.906   4.372   0.481  0.4296  0.0507 -0.1285
 4096TIP3    H133779   5.870   4.293   0.522 -1.2698  1.9146  2.2674
 4096TIP3    H233780   5.857   4.444   0.520  2.2620  2.3736 -1.8031
 4097TIP3   OH233781   5.040   6.075  13.691 -0.0652  0.2211  0.2159
 4097TIP3    H133782   4.975   6.024  13.645 -0.4091  1.3223 -0.5696
 4097TIP3    H233783   5.083   6.127  13.623  0.8880  0.3216  0.8627
 4098TIP3   OH233784   6.344   0.054   6.326 -0.0564  0.5257 -0.3202
 4098TIP3    H133785   6.289  -0.024   6.320  0.5127  0.0190  0.8298
 4098TIP3    H233786   6.310   0.102   6.401 -0.8684  1.7892 -1.4453
 4099TIP3   OH233787   5.509   2.844   4.676 -0.9128 -0.6307  0.3339
 4099TIP3    H133788   5.525   2.752   4.656  1.1178 -0.2730  0.1555
 4099TIP3    H233789   5.488   2.884   4.591 -1.5441 -0.8593  0.3747
 4100TIP3   OH233790   4.902   1.099   4.843 -0.0685 -0.4030  0.1770
 4100TIP3    H133791   4.988   1.133   4.869 -1.3908  1.6801  2.1443
 4100TIP3    H233792   4.866   1.167   4.786 -1.4232  0.0024  1.4599
 4101TIP3   OH233793   4.417   2.992  11.636  0.0552  0.1627  0.0834
 4101TIP3    H133794   4.454   2.944  11.562 -0.4005  1.2604 -0.8765
 4101TIP3    H233795   4.355   2.930  11.675 -0.1481 -0.2299 -0.8253
 4102TIP3   OH233796   0.773   2.766   4.703  0.3687  0.7039 -0.9926
 4102TIP3    H133797   0.790   2.744   4.794 -1.8165 -0.8139 -0.8643
 4102TIP3    H233798   0.710   2.838   4.706  0.0918  0.4792 -1.2908
 4103TIP3   OH233799   5.143   0.367  14.250 -0.2344  0.1587  0.2796
 4103TIP3    H133800   5.202   0.385  14.322 -1.3286  1.6073  0.8709
 4103TIP3    H233801   5.169   0.427  14.181 -0.6968  0.4648  0.3653
 4104TIP3   OH233802   2.804   0.823  14.509 -0.3081  0.3319  0.5013
 4104TIP3    H133803   2.736   0.840  14.575  1.1767 -0.0653  2.2200
 4104TIP3    H233804   2.857   0.753  14.546  0.7665  0.2924 -1.0039
 4105TIP3   OH233805   2.900   6.381  14.014 -0.0338  0.4115 -0.0088
 4105TIP3    H133806   2.909   6.453  13.951  0.5618  0.6721  0.3583
 4105TIP3    H233807   2.989   6.368  14.048 -0.2158 -0.2057  0.2541
 4106TIP3   OH233808   5.858   2.062   5.438 -0.0951 -0.3428  0.2895
 4106TIP3    H133809   5.902   2.020   5.364  0.3075  1.9916 -0.8879
 4106TIP3    H233810   5.907   2.033   5.515  0.2252 -1.8716 -0.4654
 4107TIP3   OH233811   4.073   1.323   4.387  0.2298  0.3831 -0.0014
 4107TIP3    H133812   4.159   1.302   4.425 -0.1748 -0.2579  0.5998
 4107TIP3    H233813   4.088   1.328   4.293  1.1888  1.6075  0.1922
 4108TIP3   OH233814   5.968   5.147   5.870  0.0072 -0.1096  0.9280
 4108TIP3    H133815   5.927   5.158   5.955  0.7664  0.8879  1.1830
 4108TIP3    H233816   5.950   5.229   5.824 -1.0373 -0.9045 -0.1801
 4109TIP3   OH233817   3.898   1.567  17.123  0.7884  0.0137 -0.7730
 4109TIP3    H133818   3.922   1.660  17.121  1.2819 -0.1061 -3.3150
 4109TIP3    H233819   3.981   1.521  17.141  0.1978  0.0327  2.8529
 4110TIP3   OH233820   6.044   3.209   1.799  0.2739  0.4386  0.1088
 4110TIP3    H133821   5.950   3.194   1.786  0.0135  2.5450 -0.7664
 4110TIP3    H233822   6.082   3.121   1.797 -1.7484 -0.5344  1.2666
 4111TIP3   OH233823   2.947   1.883  16.113  0.0411  0.3769 -0.8400
 4111TIP3    H133824   2.968   1.975  16.097  1.9208  0.0114 -0.7047
 4111TIP3    H233825   3.027   1.836  16.089 -0.7163 -1.1751 -0.4241
 4112TIP3   OH233826   3.847   3.828   0.737 -0.3279  0.3958  0.1153
 4112TIP3    H133827   3.905   3.844   0.812 -0.4170  0.9138  0.0815
 4112TIP3    H233828   3.789   3.757   0.765  0.1667  0.0356  0.2380
 4113TIP3   OH233829   6.073   4.104  17.133  0.4321 -0.2993 -0.6407
 4113TIP3    H133830   6.131   4.126  17.206  0.2746 -0.0239 -0.5951
 4113TIP3    H233831   6.131   4.086  17.060  0.5899 -0.5302 -0.4604
 4114TIP3   OH233832   0.011   2.304  16.223 -0.1440  0.3550  0.2784
 4114TIP3    H133833   0.106   2.298  16.234  0.5124 -0.3991 -3.9632
 4114TIP3    H233834  -0.001   2.331  16.132 -4.0688  1.6824  0.9779
 4115TIP3   OH233835   3.451   1.516   2.091  1.1863  0.5026 -0.2436
 4115TIP3    H133836   3.397   1.595   2.092  0.1643 -0.1785  0.3089
 4115TIP3    H233837   3.483   1.510   2.001 -0.3818  0.4567 -0.8285
 4116TIP3   OH233838   1.338   5.867   5.360  0.1906 -0.7122  0.6172
 4116TIP3    H133839   1.349   5.940   5.300 -0.8411 -1.5788 -0.6818
 4116TIP3    H233840   1.267   5.894   5.419  1.4408  0.2802  1.7371
 4117TIP3   OH233841   4.866   3.065  13.943 -0.3064  0.2830 -0.0986
 4117TIP3    H133842   4.928   3.119  13.992 -1.0123  0.3371  0.7605
 4117TIP3    H233843   4.920   2.996  13.905  0.4179  0.8611 -0.1519
 4118TIP3   OH233844   2.717   6.805  12.735 -0.1968 -0.2038 -0.0654
 4118TIP3    H133845   2.804   6.770  12.716  0.9452  1.4958  1.6579
 4118TIP3    H233846   2.673   6.804  12.650  2.5515  1.5911 -1.6977
 4119TIP3   OH233847   2.737   3.880   0.789 -0.1786  0.1602 -0.2688
 4119TIP3    H133848   2.670   3.840   0.734 -0.9925  1.0412  0.0509
 4119TIP3    H233849   2.690   3.943   0.843  0.6649 -0.3515  1.1376
 4120TIP3   OH233850   5.060   3.218   5.147 -0.6630 -0.2483 -0.2523
 4120TIP3    H133851   5.082   3.176   5.063 -0.2963 -3.1566  1.1593
 4120TIP3    H233852   5.124   3.181   5.209 -0.6145  2.1955  1.2553
 4121TIP3   OH233853   4.438   3.272  11.296  0.0733  0.3977  0.4640
 4121TIP3    H133854   4.514   3.214  11.303  0.0615  0.0843 -1.5298
 4121TIP3    H233855   4.393   3.244  11.216 -0.2582  2.7577 -0.2615
 4122TIP3   OH233856   2.988   0.056   2.261  0.0568 -0.5968  0.4896
 4122TIP3    H133857   2.962  -0.036   2.261  0.6747 -0.7827  1.0474
 4122TIP3    H233858   3.083   0.054   2.267  0.0624  0.0798  0.7721
 4123TIP3   OH233859   4.343   1.139  13.938 -0.3396  0.1307 -0.3680
 4123TIP3    H133860   4.428   1.096  13.951  0.2663  1.4254  0.1226
 4123TIP3    H233861   4.365   1.231  13.922 -1.5601  0.1456 -2.2164
 4124TIP3   OH233862   5.334   6.310  13.975  0.9537 -0.0957  0.1750
 4124TIP3    H133863   5.263   6.368  14.002 -0.0975 -0.5453 -1.4418
 4124TIP3    H233864   5.291   6.241  13.925  2.4015 -1.1459  0.3090
 4125TIP3   OH233865   5.736   6.146   5.591  0.6205 -0.6532  0.4214
 4125TIP3    H133866   5.685   6.170   5.514  0.3584 -3.8486 -0.5374
 4125TIP3    H233867   5.768   6.230   5.626 -2.4385  1.2294 -0.8726
 4126TIP3   OH233868   4.318   5.444   6.674 -0.1197 -0.1561 -0.3711
 4126TIP3    H133869   4.369   5.517   6.640  0.9555  0.2544  1.9554
 4126TIP3    H233870   4.250   5.484   6.727 -0.8275 -0.8090 -0.7581
 4127TIP3   OH233871   2.893   5.578   5.368  0.2279 -0.4662  0.6328
 4127TIP3    H133872   2.916   5.664   5.334 -1.1113 -0.5598 -0.5839
 4127TIP3    H233873   2.838   5.539   5.300  1.2472 -2.5075  0.9116
 4128TIP3   OH233874   3.058   1.939   2.470 -0.4577 -0.8330 -0.2091
 4128TIP3    H133875   3.081   2.030   2.490  2.2297 -1.6754  0.9863
 4128TIP3    H233876   2.999   1.946   2.395  0.1561  1.8695 -0.5778
 4129TIP3   OH233877   5.304   5.203  10.713 -0.1529 -1.1726  0.3171
 4129TIP3    H133878   5.391   5.200  10.753  0.5921  0.0654 -1.0983
 4129TIP3    H233879   5.251   5.251  10.777  0.8350  0.1381  0.2147
 4130TIP3   OH233880   3.727   0.746  13.161 -0.1257 -0.2081  0.0409
 4130TIP3    H133881   3.741   0.787  13.246 -1.7853 -0.7227  0.5816
 4130TIP3    H233882   3.770   0.661  13.168 -0.0895 -0.1692  0.2938
 4131TIP3   OH233883   4.998   3.750   3.677  0.0221 -0.2631  0.1810
 4131TIP3    H133884   4.932   3.803   3.721 -0.4229 -1.5745  1.1581
 4131TIP3    H233885   4.949   3.692   3.618  0.5533  0.8829 -1.4554
 4132TIP3   OH233886   3.748   5.971   0.567  0.2960  0.2249  0.0906
 4132TIP3    H133887   3.702   6.052   0.548 -0.8448  0.1997  2.3851
 4132TIP3    H233888   3.782   5.983   0.656  2.0295 -0.9933 -0.3480
 4133TIP3   OH233889   3.626   0.042  14.363  0.0044 -0.6019 -0.0603
 4133TIP3    H133890   3.716   0.017  14.384  0.8187  1.2257 -1.1320
 4133TIP3    H233891   3.610   0.121  14.413  0.2171  0.9630 -2.3024
 4134TIP3   OH233892   0.608   5.937   4.039 -0.1242  0.2465  0.4558
 4134TIP3    H133893   0.676   6.001   4.018 -0.0395 -0.6222 -2.2461
 4134TIP3    H233894   0.619   5.868   3.975 -4.6801  0.9092 -1.4363
 4135TIP3   OH233895   5.970   2.322   5.090 -0.3347 -0.5655 -0.4009
 4135TIP3    H133896   5.952   2.232   5.062  1.6230 -1.1898  0.1400
 4135TIP3    H233897   6.025   2.358   5.020 -0.4012 -0.0794 -0.2106
 4136TIP3   OH233898   1.525   5.650   5.780  0.3631 -0.2339  0.6807
 4136TIP3    H133899   1.483   5.637   5.865  1.7031 -0.9277  1.2732
 4136TIP3    H233900   1.573   5.732   5.789 -1.7966  1.2560 -0.4325
 4137TIP3   OH233901   1.307   2.992   6.790 -0.1784 -0.9308 -0.1005
 4137TIP3    H133902   1.293   3.009   6.697 -1.2911 -0.6248  0.1101
 4137TIP3    H233903   1.228   3.025   6.832  0.4937 -0.7027  0.9993
 4138TIP3   OH233904   1.864   5.383  10.855 -0.1353  0.5253 -0.0540
 4138TIP3    H133905   1.778   5.341  10.851 -0.1951  0.6204  0.2319
 4138TIP3    H233906   1.924   5.312  10.878 -0.0635  0.3598 -0.7274
 4139TIP3   OH233907   2.610   0.794  12.980 -0.1264  0.1159 -0.2498
 4139TIP3    H133908   2.574   0.791  12.892  1.2013  2.0933 -0.9387
 4139TIP3    H233909   2.612   0.887  13.002  2.0973 -0.0922  0.7463
 4140TIP3   OH233910   3.489   5.940  13.729 -0.1839  0.0513 -0.0803
 4140TIP3    H133911   3.548   5.865  13.727 -0.3778 -0.1365  0.7754
 4140TIP3    H233912   3.404   5.905  13.703 -0.1177  0.1280 -0.4019
 4141TIP3   OH233913   2.878   5.521   4.293  0.5442  0.1090  0.1376
 4141TIP3    H133914   2.916   5.517   4.381  1.3007  0.2445 -0.1719
 4141TIP3    H233915   2.871   5.429   4.266 -2.1764 -0.1386  1.3396
 4142TIP3   OH233916   0.166   1.328   5.334  0.3560  0.7448 -0.1089
 4142TIP3    H133917   0.116   1.247   5.346  3.1135 -0.8457  1.7839
 4142TIP3    H233918   0.227   1.307   5.263  1.7871  0.7437  1.0913
 4143TIP3   OH233919   2.516   4.283  13.174 -0.2581  0.1094 -0.0243
 4143TIP3    H133920   2.435   4.275  13.224 -0.6793 -0.7105 -0.8121
 4143TIP3    H233921   2.578   4.226  13.220 -0.8022 -1.0740 -0.7339
 4144TIP3   OH233922   4.849   5.117   0.414 -0.3498 -0.1103 -0.1955
 4144TIP3    H133923   4.927   5.172   0.409 -1.8565  2.0730 -0.6887
 4144TIP3    H233924   4.884   5.028   0.423  2.2713  0.4327 -3.1271
 4145TIP3   OH233925   3.440   3.191   5.746 -0.7081  0.1594 -0.3059
 4145TIP3    H133926   3.476   3.139   5.819  0.7216  2.1395  0.4975
 4145TIP3    H233927   3.514   3.202   5.686 -0.9839  1.2140 -0.4719
 4146TIP3   OH233928   5.742   2.248   1.741  0.5253  0.0319  0.0262
 4146TIP3    H133929   5.718   2.319   1.800  0.5268  0.0981 -0.0538
 4146TIP3    H233930   5.820   2.280   1.695 -0.4052  0.6363 -1.1935
 4147TIP3   OH233931   5.848   6.244  11.338  0.5449 -0.0349  0.6207
 4147TIP3    H133932   5.855   6.336  11.314 -0.5576 -0.5410 -1.8968
 4147TIP3    H233933   5.894   6.238  11.422 -0.7247  3.0738  1.6643
 4148TIP3   OH233934   2.111   0.768   5.122 -0.1298 -0.2658 -0.1840
 4148TIP3    H133935   2.181   0.792   5.182  0.0382  1.0222 -0.8776
 4148TIP3    H233936   2.031   0.792   5.167 -0.1231 -1.2011  0.3626
 4149TIP3   OH233937   4.976   1.592  11.675 -0.1075  0.5349  0.2596
 4149TIP3    H133938   5.048   1.553  11.625 -0.4832 -0.3260  0.3666
 4149TIP3    H233939   4.937   1.656  11.616  1.5579  1.9746  0.6669
 4150TIP3   OH233940   3.852   2.412  12.680 -0.4942  0.3034 -0.0338
 4150TIP3    H133941   3.797   2.368  12.615  1.5305 -4.7217  1.1805
 4150TIP3    H233942   3.793   2.432  12.753 -1.4535 -1.3865 -0.2945
 4151TIP3   OH233943   3.487   6.462  16.898  0.5762 -0.1520 -0.9039
 4151TIP3    H133944   3.515   6.478  16.988  1.5850  0.0085 -1.2321
 4151TIP3    H233945   3.397   6.431  16.906  0.9286 -0.9612  0.2221
 4152TIP3   OH233946   1.747   4.889   3.033  0.3476 -0.3250 -0.3333
 4152TIP3    H133947   1.722   4.971   2.991  1.3194 -1.0371 -2.4020
 4152TIP3    H233948   1.842   4.883   3.020  0.4413 -1.3229  0.6598
 4153TIP3   OH233949   6.722   2.019  15.869  0.4498 -0.6227  0.2227
 4153TIP3    H133950   6.730   1.927  15.844  0.0815 -1.1519  1.9266
 4153TIP3    H233951   6.724   2.019  15.964 -1.0344  0.9846  0.3193
 4154TIP3   OH233952   2.743   6.753   1.929  0.2125 -0.1101  0.0226
 4154TIP3    H133953   2.831   6.787   1.911 -0.8658  2.3427 -0.9461
 4154TIP3    H233954   2.684   6.811   1.882 -2.0743 -0.6004  2.0888
 4155TIP3   OH233955   3.058   6.754  12.390  0.2516 -0.0314  0.1369
 4155TIP3    H133956   3.044   6.671  12.435 -1.5328 -0.7714 -1.6085
 4155TIP3    H233957   3.147   6.779  12.414  0.0938 -1.3513  2.3895
 4156TIP3   OH233958   4.156   5.349  11.429  0.4197  0.4972  0.1835
 4156TIP3    H133959   4.194   5.268  11.463  1.5166  1.1105  0.4668
 4156TIP3    H233960   4.199   5.362  11.345 -0.4517  0.2972 -0.2970
 4157TIP3   OH233961   3.981   1.605   0.815 -0.1047  0.5734 -0.0780
 4157TIP3    H133962   3.959   1.514   0.795  1.4527 -0.3633  2.1726
 4157TIP3    H233963   3.897   1.644   0.841 -0.9411  0.0818 -1.8240
 4158TIP3   OH233964   3.014   3.864   5.203  0.0750 -0.6321  0.2034
 4158TIP3    H133965   3.013   3.827   5.115 -0.1248 -0.7852  0.2706
 4158TIP3    H233966   3.041   3.955   5.189 -0.4179 -0.5210 -0.0688
 4159TIP3   OH233967   0.823   1.775  15.102  0.2828  0.3178 -0.2271
 4159TIP3    H133968   0.864   1.860  15.113 -2.0632  1.4433  0.4851
 4159TIP3    H233969   0.820   1.762  15.007  1.4146  0.6105 -0.3139
 4160TIP3   OH233970   2.667   6.375  11.964 -0.0213  0.1857 -0.4171
 4160TIP3    H133971   2.655   6.295  11.912  0.0508  0.1553 -0.3887
 4160TIP3    H233972   2.585   6.385  12.011  0.6061 -0.9224  1.0180
 4161TIP3   OH233973   3.013   3.934   4.093  0.5705  0.2544  0.1953
 4161TIP3    H133974   2.935   3.982   4.121  0.9986  1.3264 -0.4245
 4161TIP3    H233975   3.076   4.001   4.068  1.3455 -0.6186 -0.2753
 4162TIP3   OH233976   5.887   6.594  16.880  0.2243  0.0791  0.2669
 4162TIP3    H133977   5.974   6.569  16.914  0.0398  0.5424  1.1001
 4162TIP3    H233978   5.867   6.526  16.816  1.8483  0.7579 -1.0305
 4163TIP3   OH233979   3.284   3.830  16.710  0.2300  0.1348  0.2471
 4163TIP3    H133980   3.328   3.763  16.658  1.1268 -0.1109  1.2976
 4163TIP3    H233981   3.326   3.912  16.684 -0.0468  0.1478 -0.1689
 4164TIP3   OH233982   2.488   0.846   3.121 -0.3876 -0.6179 -0.2398
 4164TIP3    H133983   2.394   0.833   3.128 -0.8595  2.6710  2.2192
 4164TIP3    H233984   2.501   0.883   3.034 -2.1747  2.8117  0.7458
 4165TIP3   OH233985   6.303   6.723   6.010  0.1606  0.3003  0.6088
 4165TIP3    H133986   6.287   6.633   5.981  0.9857  1.3497 -3.8741
 4165TIP3    H233987   6.397   6.726   6.027  0.9680  1.0213 -3.1501
 4166TIP3   OH233988   0.894   1.159   4.306 -0.3658  0.0143 -0.2576
 4166TIP3    H133989   0.891   1.083   4.247 -1.5697  0.7189 -1.1548
 4166TIP3    H233990   0.814   1.208   4.285 -2.4148 -1.1433  3.9038
 4167TIP3   OH233991   3.531   2.452   5.332  0.1971 -0.3782 -0.0695
 4167TIP3    H133992   3.474   2.525   5.357  1.1328  0.5622 -0.5775
 4167TIP3    H233993   3.549   2.467   5.239  2.5609  0.2851  0.4313
 4168TIP3   OH233994   1.154   3.050  11.486  0.4137  0.0330  0.3702
 4168TIP3    H133995   1.076   3.084  11.531  0.3399  0.2982  0.0448
 4168TIP3    H233996   1.130   2.960  11.462  0.0751  0.2281 -0.0360
 4169TIP3   OH233997   3.158   1.815  12.284 -0.1662  0.3569  0.3501
 4169TIP3    H133998   3.243   1.841  12.249  0.4807 -0.5336  1.1951
 4169TIP3    H233999   3.094   1.866  12.234  0.8905  1.5082  0.1231
 4170TIP3   OH234000   2.716   2.699   3.825 -0.3360  0.5063 -0.4091
 4170TIP3    H134001   2.647   2.686   3.759 -0.2427  1.4049 -0.6889
 4170TIP3    H234002   2.704   2.626   3.886 -2.1231  1.1172  0.0515
 4171TIP3   OH234003   2.487   5.268  11.643 -0.3367  0.6613  0.2567
 4171TIP3    H134004   2.558   5.322  11.677  1.6227 -1.9553  0.5537
 4171TIP3    H234005   2.489   5.283  11.549  1.0544  0.1885  0.1845
 4172TIP3   OH234006   6.407   1.173  13.127  0.2531 -0.8794 -0.3914
 4172TIP3    H134007   6.387   1.260  13.093  1.8786  0.2041  1.2710
 4172TIP3    H234008   6.322   1.131  13.137 -0.6490  0.9146 -0.2013
 4173TIP3   OH234009   1.654   0.230  13.386 -0.0683  0.1407  0.2224
 4173TIP3    H134010   1.702   0.286  13.324  2.2875 -1.3007  0.6453
 4173TIP3    H234011   1.701   0.147  13.385 -3.4576 -1.9450 -0.3934
 4174TIP3   OH234012   5.893   6.151   1.918 -0.1022  0.6370 -0.0512
 4174TIP3    H134013   5.982   6.121   1.900  0.0970  0.7147  0.7902
 4174TIP3    H234014   5.895   6.179   2.009 -0.8186  1.2688 -0.2235
 4175TIP3   OH234015   2.119   2.759   3.504 -0.2198  0.0357  0.5235
 4175TIP3    H134016   2.204   2.801   3.497  0.1284 -0.9279 -2.1639
 4175TIP3    H234017   2.084   2.788   3.589  1.7088  2.3700  0.6014
 4176TIP3   OH234018   1.841   4.807  16.398 -0.3421  0.3540  0.1675
 4176TIP3    H134019   1.816   4.756  16.321  1.5155  0.5431 -0.6151
 4176TIP3    H234020   1.902   4.750  16.445 -0.8022  0.5804  1.0685
 4177TIP3   OH234021   5.734   0.701  15.301 -0.0777 -0.0814 -0.3130
 4177TIP3    H134022   5.757   0.787  15.266 -0.1171 -0.5991 -1.6861
 4177TIP3    H234023   5.676   0.720  15.375  1.3732  1.1110  0.5927
 4178TIP3   OH234024   3.085   4.503   2.531  0.0380  0.0201 -0.0691
 4178TIP3    H134025   3.041   4.588   2.533  1.1691  0.6003  0.8826
 4178TIP3    H234026   3.136   4.500   2.612  0.5103 -1.3028 -0.3895
 4179TIP3   OH234027   3.857   2.381  11.621 -0.0509 -0.4224 -0.2969
 4179TIP3    H134028   3.804   2.412  11.695  0.2155 -2.5383  0.8520
 4179TIP3    H234029   3.947   2.390  11.651  0.1443  0.3057 -1.0641
 4180TIP3   OH234030   6.413   6.576   1.115 -0.1799 -0.1305  0.4719
 4180TIP3    H134031   6.379   6.646   1.058  0.6940  0.9343  1.2133
 4180TIP3    H234032   6.368   6.497   1.085 -0.5982  0.5997 -0.9270
 4181TIP3   OH234033   1.237   6.747  17.142 -0.0909 -0.7005 -0.2525
 4181TIP3    H134034   1.225   6.654  17.162  0.2731 -0.4288  1.3219
 4181TIP3    H234035   1.149   6.783  17.140 -0.1194 -0.5323  2.0535
 4182TIP3   OH234036   2.368   6.072   2.503 -0.1474 -0.5410 -0.0721
 4182TIP3    H134037   2.279   6.039   2.516 -0.3630 -0.2855 -0.8507
 4182TIP3    H234038   2.424   6.003   2.539 -0.6747 -0.0802  1.7617
 4183TIP3   OH234039   3.742   3.869   1.739  0.3519  0.3097 -0.1948
 4183TIP3    H134040   3.755   3.777   1.716 -1.9440 -0.1187  0.0039
 4183TIP3    H234041   3.821   3.892   1.788 -0.0808 -2.3810  2.0752
 4184TIP3   OH234042   1.268   3.621   2.012 -0.1143 -0.0493  0.1841
 4184TIP3    H134043   1.239   3.677   2.084 -2.3993 -1.1127  0.1624
 4184TIP3    H234044   1.276   3.534   2.050  1.4195 -0.1361 -0.2519
 4185TIP3   OH234045   0.708   3.368  11.380 -0.0954  0.4995 -0.0454
 4185TIP3    H134046   0.694   3.460  11.399 -1.4142  0.8413 -2.3514
 4185TIP3    H234047   0.709   3.362  11.285  0.6447 -1.7830  0.0334
 4186TIP3   OH234048   6.168   0.883  15.620  0.0044  0.6240  0.1146
 4186TIP3    H134049   6.120   0.906  15.540 -0.7899 -0.3931  0.2870
 4186TIP3    H234050   6.112   0.913  15.691  0.2976  0.7296  0.3024
 4187TIP3   OH234051   5.609   4.553  14.077 -0.2659  0.7295 -0.5188
 4187TIP3    H134052   5.569   4.466  14.073  0.3745  0.4455 -0.7910
 4187TIP3    H234053   5.641   4.570  13.989 -1.4468  1.7617 -0.7732
 4188TIP3   OH234054   1.202   4.280   4.751  0.3108  0.1244  0.0195
 4188TIP3    H134055   1.195   4.366   4.709  1.8788  0.6503  0.7600
 4188TIP3    H234056   1.111   4.255   4.768 -0.2580  0.9118 -1.6058
 4189TIP3   OH234057   3.074   5.754  14.295 -0.1221 -0.4293 -0.4770
 4189TIP3    H134058   3.102   5.681  14.239 -0.3167 -0.9019  0.0351
 4189TIP3    H234059   3.103   5.729  14.383 -0.3878  0.0097 -0.2660
 4190TIP3   OH234060   0.863   2.857   3.790  0.4102 -0.3125 -0.5161
 4190TIP3    H134061   0.955   2.881   3.777  0.1339  0.0340 -2.0759
 4190TIP3    H234062   0.823   2.935   3.828  0.5080  0.0027 -1.0475
 4191TIP3   OH234063   1.214   2.318  14.089 -0.2337  0.1649 -0.3931
 4191TIP3    H134064   1.264   2.397  14.070 -1.8229  1.1137 -0.7883
 4191TIP3    H234065   1.228   2.302  14.182 -1.6944  2.2801  0.2706
 4192TIP3   OH234066   1.671   1.608  12.835 -0.1935  0.2601  0.0573
 4192TIP3    H134067   1.609   1.658  12.783 -0.3339 -1.7835 -1.8866
 4192TIP3    H234068   1.621   1.534  12.868  0.9325 -0.8559 -0.6718
 4193TIP3   OH234069   5.771   1.036  13.407  0.5752  0.1490 -0.4156
 4193TIP3    H134070   5.835   1.089  13.455  0.1806  0.2551 -0.0017
 4193TIP3    H234071   5.735   1.096  13.342 -0.0162  0.4642  0.1823
 4194TIP3   OH234072   4.279   5.332   1.117  0.4405  0.0749  0.7263
 4194TIP3    H134073   4.357   5.338   1.172  0.7727 -1.0393  0.4120
 4194TIP3    H234074   4.281   5.243   1.082 -0.0756  0.5631 -0.6196
 4195TIP3   OH234075   5.696   5.116   0.024  1.0722  0.3913 -0.1335
 4195TIP3    H134076   5.673   5.151  -0.062 -1.3747 -0.4352  0.1121
 4195TIP3    H234077   5.685   5.190   0.084 -0.0931  0.2693 -0.1703
 4196TIP3   OH234078   4.953   2.760  16.049  0.6873  0.0173 -0.0962
 4196TIP3    H134079   4.871   2.711  16.058  0.9655 -0.0811  3.1284
 4196TIP3    H234080   5.021   2.696  16.068  1.3800  0.5909 -0.5895
 4197TIP3   OH234081   1.885   1.942   1.890  0.2149  0.0941 -0.0853
 4197TIP3    H134082   1.838   2.016   1.851  1.7292  0.4990 -1.2191
 4197TIP3    H234083   1.974   1.949   1.857  0.7428 -1.4791  0.8647
 4198TIP3   OH234084   6.815   1.638  13.472 -0.4013  0.4079  0.2808
 4198TIP3    H134085   6.772   1.724  13.470  0.2833  0.7468 -1.2446
 4198TIP3    H234086   6.762   1.583  13.416 -1.4540 -0.5290  2.0920
 4199TIP3   OH234087   1.745   3.608   1.837 -0.4939  0.0001  0.0621
 4199TIP3    H134088   1.812   3.668   1.805 -0.5019 -0.9086 -1.8290
 4199TIP3    H234089   1.767   3.593   1.928  2.5094 -1.0266 -0.7400
 4200TIP3   OH234090   5.688   1.428   4.529 -0.0325 -0.2153  0.0988
 4200TIP3    H134091   5.711   1.516   4.559 -1.0509  0.5300 -1.1840
 4200TIP3    H234092   5.659   1.440   4.439  4.1880 -2.5317 -1.8389
 4201TIP3   OH234093   4.621   5.289   2.586  0.5030  0.5766  0.3381
 4201TIP3    H134094   4.564   5.227   2.540  0.9408  0.7775 -0.5064
 4201TIP3    H234095   4.664   5.338   2.515  0.2871  1.7330  0.9837
 4202TIP3   OH234096   3.227   1.484   0.811 -0.0927  0.1611 -0.0892
 4202TIP3    H134097   3.179   1.503   0.891 -1.2515 -2.0335 -0.2009
 4202TIP3    H234098   3.296   1.424   0.837 -0.1012 -0.0963 -0.6417
 4203TIP3   OH234099   1.545   5.599  11.976  0.1999 -0.2304 -0.2285
 4203TIP3    H134100   1.537   5.694  11.963  0.4241 -0.3407 -1.3571
 4203TIP3    H234101   1.470   5.575  12.029  0.3335  0.6346  0.3680
 4204TIP3   OH234102   0.462   0.455   1.833  0.5208 -0.0804 -0.0749
 4204TIP3    H134103   0.477   0.399   1.757  0.5638  1.4515 -1.2265
 4204TIP3    H234104   0.454   0.393   1.906 -0.0207 -1.6300 -1.3724
 4205TIP3   OH234105   4.554   5.961  15.390  0.0323  0.1169 -0.0470
 4205TIP3    H134106   4.523   6.005  15.469  0.0803 -0.2918  0.2000
 4205TIP3    H234107   4.619   5.898  15.421  0.8036  0.6722 -0.5234
 4206TIP3   OH234108   4.920   6.499  11.235  0.2451  0.2062 -0.4905
 4206TIP3    H134109   5.004   6.465  11.206  0.3622  0.8035 -0.8679
 4206TIP3    H234110   4.894   6.561  11.167 -0.0818  0.6710  0.0504
 4207TIP3   OH234111   0.919   3.174   1.272  0.4987  0.7831  0.4213
 4207TIP3    H134112   0.975   3.184   1.194  1.3157  1.1947  1.0481
 4207TIP3    H234113   0.909   3.263   1.305  2.4837  0.3526  2.3814
 4208TIP3   OH234114   4.375   0.090   0.875  0.6933 -0.2638  0.1981
 4208TIP3    H134115   4.340   0.091   0.964  0.1370 -1.3896  0.0133
 4208TIP3    H234116   4.470   0.088   0.887  0.6306 -0.1247  0.7654
 4209TIP3   OH234117   5.846   1.633   0.448 -0.8998 -0.0955  0.1056
 4209TIP3    H134118   5.773   1.581   0.479  1.1413 -2.3352  1.4741
 4209TIP3    H234119   5.908   1.634   0.521  1.4161 -0.2628 -1.7221
 4210TIP3   OH234120   5.190   5.873  15.788 -0.0538 -0.5109 -0.5160
 4210TIP3    H134121   5.208   5.785  15.755 -0.7474 -0.8316 -0.0682
 4210TIP3    H234122   5.166   5.924  15.710 -0.4333 -0.9311 -0.6774
 4211TIP3   OH234123   2.519   0.659   5.640 -0.1469 -0.1650  0.9816
 4211TIP3    H134124   2.602   0.687   5.680  0.0136 -0.4579  0.8625
 4211TIP3    H234125   2.539   0.572   5.604 -0.1810  0.2374 -0.0436
 4212TIP3   OH234126   0.305   4.227   6.301 -1.0640 -0.6639  0.0260
 4212TIP3    H134127   0.224   4.273   6.326 -1.3487 -1.3664  0.4060
 4212TIP3    H234128   0.297   4.140   6.340  0.2588 -0.4712  0.7692
 4213TIP3   OH234129   1.218   5.167  15.266 -0.0413  0.4994  0.2164
 4213TIP3    H134130   1.206   5.134  15.356 -0.2690  1.2833  0.4767
 4213TIP3    H234131   1.145   5.227  15.253 -0.6698 -0.4628 -0.9063
 4214TIP3   OH234132   5.361   0.138  15.129  0.1932 -0.5902  0.3129
 4214TIP3    H134133   5.348   0.167  15.219 -0.9365 -0.8061  0.2377
 4214TIP3    H234134   5.300   0.190  15.078  0.0270 -1.2402 -0.1732
 4215TIP3   OH234135   2.242   3.056  15.267 -0.5376  0.4550  0.1736
 4215TIP3    H134136   2.172   3.121  15.273  0.6047  1.6465  1.0210
 4215TIP3    H234137   2.281   3.070  15.180 -2.2031 -1.1728 -0.9086
 4216TIP3   OH234138   1.587   4.645   2.183  0.1608  0.3891 -0.4003
 4216TIP3    H134139   1.607   4.729   2.223  1.9927  0.3230 -1.1095
 4216TIP3    H234140   1.657   4.630   2.119 -0.5358 -1.3143 -0.8393
 4217TIP3   OH234141   0.506   3.267  11.985  0.2890  0.0371  0.0784
 4217TIP3    H134142   0.581   3.261  12.045  0.7811  0.3414 -0.4974
 4217TIP3    H234143   0.444   3.201  12.017  0.7825 -0.1858  0.5894
 4218TIP3   OH234144   1.743   3.798  13.462  0.2640 -0.4112 -0.2727
 4218TIP3    H134145   1.648   3.803  13.452 -0.1071 -0.1058  2.5111
 4218TIP3    H234146   1.774   3.887  13.446  0.1999 -0.6223 -1.7237
 4219TIP3   OH234147   0.449   4.670  15.326 -0.0541  0.5525  0.3408
 4219TIP3    H134148   0.389   4.701  15.259  0.5351  0.5015 -0.2159
 4219TIP3    H234149   0.512   4.741  15.336  0.9005 -0.1685 -0.4441
 4220TIP3   OH234150   2.087   0.970  11.936 -0.5318 -0.2832 -0.1935
 4220TIP3    H134151   2.120   1.044  11.987  0.3031  0.7837 -2.1643
 4220TIP3    H234152   2.092   0.895  11.996 -0.1328  0.9856  1.4297
 4221TIP3   OH234153   0.677   2.444  13.107 -0.4199  0.7145 -0.0922
 4221TIP3    H134154   0.675   2.494  13.026 -0.4752 -0.0747 -0.5891
 4221TIP3    H234155   0.762   2.401  13.107  0.1907  1.8345  0.9886
 4222TIP3   OH234156   4.203   5.506  15.004  0.5599  0.6308 -0.4470
 4222TIP3    H134157   4.140   5.498  15.076  0.2484 -1.0125 -0.8687
 4222TIP3    H234158   4.216   5.601  14.995  0.0068  0.9092  1.2417
 4223TIP3   OH234159   6.701   3.948  12.457  0.2262  0.2642 -0.9539
 4223TIP3    H134160   6.761   4.006  12.504 -0.1618  0.8779 -1.2061
 4223TIP3    H234161   6.696   3.869  12.512 -0.2192  0.9708  0.0490
 4224TIP3   OH234162   0.404   6.668   3.421 -0.4549  0.1884 -0.4207
 4224TIP3    H134163   0.454   6.724   3.481  0.5612  0.4721 -1.5045
 4224TIP3    H234164   0.471   6.617   3.375 -1.0964  0.9682 -2.2889
 4225TIP3   OH234165   2.034   3.197   3.351 -0.1413  0.2806  0.0583
 4225TIP3    H134166   1.971   3.254   3.307 -0.1374 -0.7059 -1.3041
 4225TIP3    H234167   1.990   3.167   3.430 -0.1693  2.0801  0.7631
 4226TIP3   OH234168   0.979   5.381  13.087  0.3436 -0.2909  0.3202
 4226TIP3    H134169   1.063   5.343  13.059  0.3418  0.1048 -0.2478
 4226TIP3    H234170   0.941   5.416  13.006 -0.7954 -1.2714  0.4123
 4227TIP3   OH234171   5.677   1.585   4.093  0.6854  0.2544  0.9275
 4227TIP3    H134172   5.758   1.622   4.127  0.8852  1.0605 -0.3740
 4227TIP3    H234173   5.620   1.660   4.079  0.9778  0.0922 -1.4627
 4228TIP3   OH234174   3.805   0.534  12.350  0.2577  0.3538 -0.0340
 4228TIP3    H134175   3.793   0.488  12.267  0.8970 -0.2505  0.2008
 4228TIP3    H234176   3.716   0.558  12.377 -0.0425 -0.2909 -0.4240
 4229TIP3   OH234177   2.187   5.770  11.900 -0.6994  0.2574  0.0114
 4229TIP3    H134178   2.218   5.691  11.943  2.2288  0.7515 -0.9724
 4229TIP3    H234179   2.148   5.740  11.818  0.3725 -0.2029 -0.3428
 4230TIP3   OH234180   0.602   4.920  15.611  0.4026  0.3826  0.0243
 4230TIP3    H134181   0.630   4.986  15.674  0.8490 -0.6625  0.9650
 4230TIP3    H234182   0.507   4.930  15.607  0.3113  0.1976  1.2178
 4231TIP3   OH234183   5.641   5.396  17.241  0.9583  0.2373 -0.1888
 4231TIP3    H134184   5.683   5.480  17.261  0.3997  0.6340 -0.6464
 4231TIP3    H234185   5.563   5.395  17.297  1.9322 -0.8274  1.2144
 4232TIP3   OH234186   5.416   1.339   2.829  0.0396  0.3325 -0.4534
 4232TIP3    H134187   5.373   1.373   2.908 -0.3946  1.7900 -1.2673
 4232TIP3    H234188   5.499   1.386   2.825  0.0178  0.3370 -0.9038
 4233TIP3   OH234189   0.983   5.515  16.679 -0.8446 -0.3982  0.3625
 4233TIP3    H134190   0.924   5.589  16.694 -0.2451  0.4438 -1.2176
 4233TIP3    H234191   1.029   5.504  16.762 -0.6686  1.2590  0.5151
 4234TIP3   OH234192   1.738   0.810   5.989  0.0621 -0.3396 -0.6683
 4234TIP3    H134193   1.739   0.837   6.081 -1.4977 -0.1683 -0.6740
 4234TIP3    H234194   1.710   0.718   5.992 -1.8571  0.1767 -1.0242
 4235TIP3   OH234195   4.878   3.563  11.032 -0.5789 -0.1691  0.3182
 4235TIP3    H134196   4.866   3.508  10.954  1.5514 -1.2903  0.7052
 4235TIP3    H234197   4.810   3.534  11.093 -0.8238 -0.8740 -0.2810
 4236TIP3   OH234198   4.601   0.845   0.356 -0.1086  0.0087  0.2512
 4236TIP3    H134199   4.692   0.815   0.362 -0.4325 -1.3787 -1.0352
 4236TIP3    H234200   4.584   0.850   0.262 -1.4670 -0.1064  0.4745
 4237TIP3   OH234201   0.446   4.610   2.378  0.0512  0.1716 -0.0330
 4237TIP3    H134202   0.401   4.534   2.340  0.7321 -1.2028  1.7603
 4237TIP3    H234203   0.392   4.636   2.452 -0.3519  1.6981 -0.8344
 4238TIP3   OH234204   3.547   3.066   0.381  0.5047  0.2877  0.2798
 4238TIP3    H134205   3.543   3.150   0.336 -1.5720  0.5292  0.8241
 4238TIP3    H234206   3.493   3.008   0.328 -1.0061  0.2689  1.7554
 4239TIP3   OH234207   5.691   0.298  13.012  0.0710  0.3258 -0.1082
 4239TIP3    H134208   5.690   0.203  13.003  0.6043  0.4213 -1.3468
 4239TIP3    H234209   5.628   0.329  12.947  0.4103  0.8430 -0.1967
 4240TIP3   OH234210   3.898   3.635   5.388  0.1733  0.4116  0.0939
 4240TIP3    H134211   3.858   3.712   5.347  1.8876  0.9287 -0.7201
 4240TIP3    H234212   3.941   3.670   5.466 -0.7531 -0.0984  0.8516
 4241TIP3   OH234213   3.215   1.149  16.779  0.2198 -0.3985 -0.8911
 4241TIP3    H134214   3.179   1.199  16.706 -2.5930  2.4990  2.1480
 4241TIP3    H234215   3.308   1.170  16.780  0.0497  0.6093 -2.7416
 4242TIP3   OH234216   2.223   6.782  15.206  0.0322  0.3584  0.2639
 4242TIP3    H134217   2.295   6.723  15.229 -0.4467 -0.6432 -0.6669
 4242TIP3    H234218   2.146   6.742  15.246 -0.1679  0.8394  0.3630
 4243TIP3   OH234219   2.543   6.631  11.308 -0.6363  0.7462 -0.3092
 4243TIP3    H134220   2.515   6.583  11.386  2.1576 -1.3664 -0.4225
 4243TIP3    H234221   2.613   6.689  11.338  2.3802 -1.9898 -1.3663
 4244TIP3   OH234222   6.012   0.842  12.027  0.5239 -0.0242 -0.4251
 4244TIP3    H134223   6.061   0.767  12.060  1.5357  1.0907  0.7583
 4244TIP3    H234224   5.951   0.864  12.098  0.3123  0.3342 -0.7105
 4245TIP3   OH234225   4.529   4.361  10.986 -0.1991  0.3063  0.2361
 4245TIP3    H134226   4.463   4.310  10.938  1.1310  1.1389 -2.7091
 4245TIP3    H234227   4.611   4.317  10.967  0.7078  2.2389 -0.6253
 4246TIP3   OH234228   6.030   4.345  12.931 -0.1232  0.3389  0.0247
 4246TIP3    H134229   6.039   4.250  12.934 -1.8949  0.1485  0.4502
 4246TIP3    H234230   6.099   4.377  12.989  0.3839 -0.6989  0.0183
 4247TIP3   OH234231   6.404   2.442  11.336  0.0379 -0.6416 -0.2908
 4247TIP3    H134232   6.403   2.425  11.242 -1.2278  0.5298 -0.5125
 4247TIP3    H234233   6.371   2.361  11.376  2.3418 -1.8585 -0.6703
 4248TIP3   OH234234   0.480   6.700  17.145 -0.8760  0.6480 -0.0533
 4248TIP3    H134235   0.390   6.675  17.168 -0.6702  0.1305  0.2053
 4248TIP3    H234236   0.509   6.634  17.083 -0.3950  0.3323  0.4897
 4249TIP3   OH234237   6.016   6.686   1.420 -0.2588 -0.3274 -0.3792
 4249TIP3    H134238   5.987   6.610   1.470  0.9528 -1.3484 -1.1518
 4249TIP3    H234239   6.011   6.658   1.329  0.7300  0.3294 -0.6492
 4250TIP3   OH234240   6.294   4.023  12.281 -0.0377  0.1833  0.3936
 4250TIP3    H134241   6.310   3.993  12.370 -1.2801 -1.5795  0.0702
 4250TIP3    H234242   6.381   4.031  12.242  0.4290 -1.5089  1.0193
 4251TIP3   OH234243   0.639   6.539  14.695  0.1855 -0.2451  0.6574
 4251TIP3    H134244   0.624   6.598  14.769  1.7297 -0.4464  1.1736
 4251TIP3    H234245   0.573   6.470  14.705  0.2723 -0.1810  1.7552
 4252TIP3   OH234246   0.825   6.481   3.627 -0.2145  0.2191  0.2395
 4252TIP3    H134247   0.760   6.532   3.675 -2.7908 -1.7336 -0.9697
 4252TIP3    H234248   0.857   6.541   3.559 -1.7719  0.8515  0.0224
 4253TIP3   OH234249   2.839   2.451  15.279 -0.5377  0.2517  0.0965
 4253TIP3    H134250   2.898   2.398  15.225 -0.2235  0.7284 -0.0366
 4253TIP3    H234251   2.751   2.430  15.246 -0.4448 -0.4587  0.2945
 4254TIP3   OH234252   0.016   3.230  12.019 -0.8582 -0.3750 -0.0379
 4254TIP3    H134253   0.016   3.134  12.029 -0.1243 -0.4394 -0.5752
 4254TIP3    H234254   0.099   3.249  11.975 -1.2263  0.4668 -0.3812
 4255TIP3   OH234255   3.826   3.983  16.573 -0.0212 -0.1081  0.2504
 4255TIP3    H134256   3.871   4.048  16.519 -0.3368  0.0636  0.1910
 4255TIP3    H234257   3.851   3.899  16.535  0.3371 -0.0184  0.2879
 4256TIP3   OH234258   3.725   6.440   2.151  0.0847  0.4814 -0.3069
 4256TIP3    H134259   3.783   6.444   2.075 -1.9292  2.0289 -1.8881
 4256TIP3    H234260   3.765   6.498   2.215 -0.8652  3.5779 -2.3309
 4257TIP3   OH234261   4.779   3.526  16.421  0.1077 -0.5767 -0.2914
 4257TIP3    H134262   4.736   3.456  16.371 -0.2282 -0.1344 -0.6398
 4257TIP3    H234263   4.716   3.548  16.490  0.5664 -1.1785  0.3365
 4258TIP3   OH234264   5.316   5.053   6.367 -0.2503  0.3368 -0.5551
 4258TIP3    H134265   5.367   4.995   6.424  0.7999  0.5698 -1.2440
 4258TIP3    H234266   5.276   5.116   6.427 -0.0732 -0.0914  0.0281
 4259TIP3   OH234267   0.056   6.753   2.198  0.1673 -0.4485  0.4867
 4259TIP3    H134268  -0.001   6.816   2.152 -0.8072 -0.2517  1.8840
 4259TIP3    H234269   0.088   6.802   2.274  1.2869 -0.9367  0.3408
 4260TIP3   OH234270   6.784   3.281   1.244 -0.1191  0.1053  0.4883
 4260TIP3    H134271   6.821   3.363   1.211 -2.6002  1.2017  0.1734
 4260TIP3    H234272   6.733   3.247   1.171 -0.8132 -0.6114  1.2955
 4261TIP3   OH234273   4.941   4.831  13.487 -0.0232  0.1927 -0.3378
 4261TIP3    H134274   4.964   4.755  13.542  1.8136  1.1304  0.2704
 4261TIP3    H234275   4.904   4.894  13.548  0.2885  0.5330 -0.4996
 4262TIP3   OH234276   1.663   3.601  15.775  0.5611  0.1486 -0.2328
 4262TIP3    H134277   1.741   3.547  15.787  0.2338 -0.0028  1.3784
 4262TIP3    H234278   1.590   3.544  15.800  0.1269  1.0137  0.5060
 4263TIP3   OH234279   5.381   5.133  13.304 -0.1754 -0.3100 -0.0458
 4263TIP3    H134280   5.344   5.045  13.314  1.4935 -1.1764 -0.9048
 4263TIP3    H234281   5.331   5.187  13.365 -2.8227 -1.3260 -1.1540
 4264TIP3   OH234282   0.454   1.430   0.885 -0.0344  0.5276  0.1996
 4264TIP3    H134283   0.524   1.367   0.868 -0.5506 -1.0899  3.4645
 4264TIP3    H234284   0.500   1.511   0.908  0.6463  0.7559 -1.7761
 4265TIP3   OH234285   3.820   5.193   1.395  0.4209  0.0469  0.3103
 4265TIP3    H134286   3.856   5.109   1.422  1.8941  0.5802  0.0840
 4265TIP3    H234287   3.878   5.223   1.325 -0.6586  0.8033 -0.2974
 4266TIP3   OH234288   1.930   5.300  15.666 -0.0007  0.1271  0.7915
 4266TIP3    H134289   2.009   5.267  15.623  0.3895  1.3916  0.4809
 4266TIP3    H234290   1.863   5.233  15.648  0.4826 -0.0021 -0.7003
 4267TIP3   OH234291   2.402   0.812   4.105 -1.3380 -0.1162 -0.0389
 4267TIP3    H134292   2.468   0.744   4.117 -0.4985  0.7388  0.3351
 4267TIP3    H234293   2.376   0.804   4.013 -0.6382 -0.4060 -0.2199
 4268TIP3   OH234294   6.752   2.446   0.690 -0.4688 -0.1529  0.2296
 4268TIP3    H134295   6.788   2.505   0.624 -1.1913  1.3249  1.1113
 4268TIP3    H234296   6.690   2.499   0.739  0.3426 -1.0683  2.3931
 4269TIP3   OH234297   3.377   1.141  14.034 -0.2252  0.0716 -0.2773
 4269TIP3    H134298   3.321   1.206  14.077 -0.2282  0.3508 -0.7015
 4269TIP3    H234299   3.337   1.057  14.055 -0.0236  0.1768  0.5694
 4270TIP3   OH234300   2.771   5.828  17.178  0.6826  0.1873 -0.1824
 4270TIP3    H134301   2.710   5.866  17.114  0.5568  1.3906  0.6443
 4270TIP3    H234302   2.857   5.858  17.151  0.5777  1.1336  0.5024
 4271TIP3   OH234303   3.864   3.071   2.936 -0.8065 -0.2446 -0.1454
 4271TIP3    H134304   3.831   3.050   2.848  1.2906 -1.0518 -0.8122
 4271TIP3    H234305   3.865   2.986   2.981  2.6982 -0.8719 -1.0691
 4272TIP3   OH234306   3.133   1.270  14.093 -0.0173 -0.1429  0.1091
 4272TIP3    H134307   3.118   1.229  14.178  0.3821 -2.0192 -0.6667
 4272TIP3    H234308   3.054   1.252  14.043 -0.1740  0.7824  0.0027
 4273TIP3   OH234309   1.667   6.240  10.663 -0.0253 -1.0367 -0.5195
 4273TIP3    H134310   1.612   6.285  10.599 -0.8277 -1.7541 -0.3514
 4273TIP3    H234311   1.719   6.178  10.611 -0.1844 -1.1429 -0.5516
 4274TIP3   OH234312   1.399   0.729  15.511 -0.0627 -0.1349  0.4041
 4274TIP3    H134313   1.463   0.716  15.581  1.5674  1.7599 -0.6267
 4274TIP3    H234314   1.445   0.782  15.446 -3.1608  2.7743  0.3130
 4275TIP3   OH234315   4.532   3.696   5.332 -0.1915  0.3020 -0.1647
 4275TIP3    H134316   4.517   3.618   5.385 -0.2147  0.6702  0.3843
 4275TIP3    H234317   4.543   3.767   5.396 -0.0342  0.7237 -0.6491
 4276TIP3   OH234318   6.292   4.950   2.761 -0.2000  0.7430  0.0912
 4276TIP3    H134319   6.204   4.975   2.733  0.3369  1.3503 -1.0761
 4276TIP3    H234320   6.298   4.982   2.851 -2.0028 -1.3977  1.0633
 4277TIP3   OH234321   2.316   3.186  11.393  0.0044  0.0091  0.0220
 4277TIP3    H134322   2.402   3.217  11.420 -0.1918  1.4335 -0.8345
 4277TIP3    H234323   2.290   3.247  11.324 -2.1854  0.3642  1.0763
 4278TIP3   OH234324   2.576   3.269  11.379 -0.3594 -0.0794 -0.2836
 4278TIP3    H134325   2.577   3.352  11.425  1.5593  0.1403 -0.6321
 4278TIP3    H234326   2.603   3.290  11.290 -0.9549 -0.9259 -0.6799
 4279TIP3   OH234327   2.906   6.749   5.553  0.7072  0.2843 -0.1644
 4279TIP3    H134328   2.979   6.790   5.507  0.8872  2.3558  1.7829
 4279TIP3    H234329   2.947   6.701   5.625  0.2739 -1.0236 -0.7404
 4280TIP3   OH234330   3.515   4.834   5.757  0.1551 -0.4963  0.0959
 4280TIP3    H134331   3.538   4.899   5.823 -3.3363  0.2289  0.8003
 4280TIP3    H234332   3.534   4.750   5.798  2.7033 -0.0419 -0.0082
 4281TIP3   OH234333   2.584   6.557   0.980  0.2494 -0.0565 -0.1949
 4281TIP3    H134334   2.603   6.496   1.051  2.0618 -0.1568 -0.7063
 4281TIP3    H234335   2.550   6.503   0.909  0.3358 -0.2556 -0.0845
 4282TIP3   OH234336   3.430   3.754  12.047 -0.6708  0.4093 -0.1769
 4282TIP3    H134337   3.344   3.716  12.063 -0.6000 -0.4741 -1.7381
 4282TIP3    H234338   3.431   3.775  11.954 -0.1631  2.9381  0.3182
 4283TIP3   OH234339   6.467   6.023  16.883 -0.5224  0.3550  0.1657
 4283TIP3    H134340   6.543   5.998  16.936 -0.1796 -0.8222 -0.8342
 4283TIP3    H234341   6.498   6.095  16.829  0.2602 -0.8510 -1.0511
 4284TIP3   OH234342   2.650   2.012  11.143  0.5370 -0.4202  0.1813
 4284TIP3    H134343   2.614   2.086  11.191 -0.5148 -2.0529  2.0183
 4284TIP3    H234344   2.588   1.997  11.072  0.6788  0.3223 -0.1159
 4285TIP3   OH234345   1.485   1.713   0.349  0.1180 -0.3147  0.4187
 4285TIP3    H134346   1.457   1.626   0.320 -0.7317 -0.4446  1.5469
 4285TIP3    H234347   1.559   1.735   0.292  0.8613 -2.1030  0.6248
 4286TIP3   OH234348   0.196   6.549  12.936 -0.4828  0.1461  0.6582
 4286TIP3    H134349   0.136   6.530  13.008  0.3331 -1.2573  1.0160
 4286TIP3    H234350   0.148   6.609  12.880 -2.9743 -2.3046 -0.0369
 4287TIP3   OH234351   4.794   0.991  11.260 -0.4741 -0.9794  0.3697
 4287TIP3    H134352   4.779   1.012  11.168 -0.6975 -1.6824  0.2397
 4287TIP3    H234353   4.740   1.053  11.309 -1.0004 -1.1383  0.0005
 4288TIP3   OH234354   5.744   2.208   3.955  0.5599 -0.7674  0.3030
 4288TIP3    H134355   5.777   2.241   4.039  2.4771  1.1396 -1.1123
 4288TIP3    H234356   5.694   2.280   3.918 -0.1066 -1.5218 -0.3237
 4289TIP3   OH234357   4.214   3.532  15.580 -0.7533  0.3035  0.2789
 4289TIP3    H134358   4.291   3.496  15.625  0.8213  2.0605 -0.8109
 4289TIP3    H234359   4.212   3.488  15.495 -0.9508  0.2511  0.3110
 4290TIP3   OH234360   5.754   3.373   0.002  0.4420 -0.1947  0.0779
 4290TIP3    H134361   5.674   3.327  -0.020  0.5536  0.7541 -2.6228
 4290TIP3    H234362   5.822   3.329  -0.048  1.2611  0.3503  0.6711
 4291TIP3   OH234363   1.423   1.387  14.727 -0.0587 -0.0020  0.2183
 4291TIP3    H134364   1.352   1.439  14.764 -0.3671 -1.4796  1.8268
 4291TIP3    H234365   1.384   1.301  14.713  0.4972  0.0737 -2.1783
 4292TIP3   OH234366   4.674   5.138  13.293 -0.3382 -0.0823  0.6264
 4292TIP3    H134367   4.623   5.197  13.350 -1.9965  0.5067 -1.3346
 4292TIP3    H234368   4.611   5.110  13.226  1.1273 -1.9973 -0.0347
 4293TIP3   OH234369   4.341   4.875  13.611 -0.4323  0.4025 -0.4763
 4293TIP3    H134370   4.333   4.782  13.632 -1.7707  0.6542  0.2113
 4293TIP3    H234371   4.414   4.906  13.665 -0.8348  0.0372  0.2883
 4294TIP3   OH234372   4.363   2.833   4.720 -0.1087 -0.2535 -0.4960
 4294TIP3    H134373   4.371   2.928   4.719  1.0300 -0.2934  0.8326
 4294TIP3    H234374   4.280   2.816   4.766 -0.1493  0.1039 -0.4363
 4295TIP3   OH234375   2.345   4.378   5.164  0.3512 -0.2495  0.3022
 4295TIP3    H134376   2.321   4.319   5.235 -2.5505  1.2768  0.7294
 4295TIP3    H234377   2.400   4.445   5.205  0.0043 -0.2418  0.7507
 4296TIP3   OH234378   4.245   2.699  12.303  0.0103  0.4042 -0.1250
 4296TIP3    H134379   4.262   2.611  12.334 -0.6211  0.5398  0.6277
 4296TIP3    H234380   4.328   2.746  12.315  0.0481  0.1917  0.4361
 4297TIP3   OH234381   5.358   6.471   5.101 -0.5515 -0.1401 -0.6308
 4297TIP3    H134382   5.285   6.510   5.053 -1.3594 -0.5743  0.2058
 4297TIP3    H234383   5.330   6.474   5.193  0.9128  0.5837 -0.1848
 4298TIP3   OH234384   6.325   0.066   3.789  0.8502  0.1627  0.1411
 4298TIP3    H134385   6.347  -0.026   3.804  0.0917 -0.2131 -0.8989
 4298TIP3    H234386   6.309   0.071   3.695  2.8767  1.8069 -0.1901
 4299TIP3   OH234387   3.914   6.561  16.942 -0.2316  0.2759 -0.8692
 4299TIP3    H134388   3.915   6.642  16.890 -0.0788  0.7870 -0.0898
 4299TIP3    H234389   3.927   6.491  16.878 -0.2505  0.8778 -1.5420
 4300TIP3   OH234390   1.441   2.374   0.309  0.3052 -0.2782  1.0504
 4300TIP3    H134391   1.477   2.356   0.396 -0.6997  0.0996  1.5674
 4300TIP3    H234392   1.397   2.459   0.319  1.1953  0.3384 -0.1510
 4301TIP3   OH234393   0.389   6.072   5.949  0.2662  0.4205 -0.3279
 4301TIP3    H134394   0.412   6.163   5.930 -2.4220  0.7670 -2.6523
 4301TIP3    H234395   0.467   6.036   5.990  1.2967  3.8593  1.1523
 4302TIP3   OH234396   4.853   6.351  17.063  0.5068 -0.2518 -0.4152
 4302TIP3    H134397   4.944   6.328  17.046 -0.0332 -2.7785 -0.2569
 4302TIP3    H234398   4.812   6.355  16.977  0.5906  0.1061 -0.4406
 4303TIP3   OH234399   0.900   2.956   6.162  0.2925  0.1467 -0.0041
 4303TIP3    H134400   0.951   2.902   6.101 -0.4871  0.6163 -1.1027
 4303TIP3    H234401   0.809   2.934   6.143  0.0289  0.3430  0.9773
 4304TIP3   OH234402   4.120   3.425  15.044 -0.0503  0.1864 -0.3690
 4304TIP3    H134403   4.139   3.474  14.964  1.1897 -0.2096 -0.3383
 4304TIP3    H234404   4.204   3.419  15.089 -0.8768  1.1182  1.3837
 4305TIP3   OH234405   1.651   6.531   2.033 -0.3918 -0.0756  0.2042
 4305TIP3    H134406   1.700   6.464   1.985  0.4107  0.5303  0.1516
 4305TIP3    H234407   1.691   6.531   2.121 -0.3314  0.3827  0.1785
 4306TIP3   OH234408   1.626   6.599  11.086 -0.1457 -0.3543 -0.1495
 4306TIP3    H134409   1.562   6.641  11.029 -0.3092  1.5215  1.3178
 4306TIP3    H234410   1.658   6.524  11.035  1.2498  2.3152 -3.6194
 4307TIP3   OH234411   2.400   6.623   4.155  0.0633 -0.1592 -0.3641
 4307TIP3    H134412   2.486   6.636   4.114  0.1611  1.3858  0.2920
 4307TIP3    H234413   2.338   6.629   4.082  0.3655  0.8711 -0.5549
 4308TIP3   OH234414   3.794   0.649   5.327  0.0209 -0.1317  0.2198
 4308TIP3    H134415   3.748   0.732   5.313  0.3320 -0.2550 -1.7478
 4308TIP3    H234416   3.726   0.582   5.326 -0.3952  0.1084  3.0058
 4309TIP3   OH234417   5.902   3.408  16.387  0.7021  0.2359  0.6788
 4309TIP3    H134418   5.850   3.353  16.446 -0.8936  1.4001  0.4472
 4309TIP3    H234419   5.837   3.450  16.331  2.0769  0.2531 -0.9819
 4310TIP3   OH234420   4.084   6.764  12.772 -0.2117 -0.1539 -0.3232
 4310TIP3    H134421   4.017   6.705  12.807  0.9217 -0.8979  0.6523
 4310TIP3    H234422   4.104   6.729  12.685 -2.5285  1.2954 -1.5763
 4311TIP3   OH234423   5.656   0.000  15.279  0.2856 -0.4666 -0.0777
 4311TIP3    H134424   5.693  -0.038  15.358  0.0909  2.4489  1.5624
 4311TIP3    H234425   5.562  -0.001  15.292  0.2768  0.6011  0.0717
 4312TIP3   OH234426   1.745   0.223   4.613 -0.1273 -0.4454 -0.9628
 4312TIP3    H134427   1.697   0.181   4.685 -1.9275  0.6128 -1.4746
 4312TIP3    H234428   1.828   0.249   4.652 -0.8373 -0.3950  0.6077
 4313TIP3   OH234429   4.705   1.270  15.285  0.6904  0.4143  0.0967
 4313TIP3    H134430   4.674   1.226  15.364 -1.0868  1.8160  0.2463
 4313TIP3    H234431   4.785   1.315  15.311  2.1360 -2.0188  0.1250
 4314TIP3   OH234432   5.093   0.375   1.178  0.1734 -0.1385 -0.1506
 4314TIP3    H134433   5.098   0.319   1.256  1.0493  1.5678  1.0751
 4314TIP3    H234434   5.006   0.358   1.142 -1.5052  1.1545  2.9025
 4315TIP3   OH234435   6.067   5.855   4.858 -0.0599 -0.1354 -0.0803
 4315TIP3    H134436   6.088   5.766   4.830  0.6097 -0.1264  0.3680
 4315TIP3    H234437   6.007   5.888   4.791  0.3291 -0.6385 -0.6884
 4316TIP3   OH234438   2.801   4.548   5.220  0.4304 -0.1311  0.3243
 4316TIP3    H134439   2.750   4.478   5.179  0.8645 -0.5040  0.4134
 4316TIP3    H234440   2.780   4.626   5.168  1.4797 -0.7195 -1.0612
 4317TIP3   OH234441   3.591   3.488   3.850  0.1054 -0.0514 -0.3790
 4317TIP3    H134442   3.589   3.437   3.768 -1.6181  0.6005 -0.7817
 4317TIP3    H234443   3.519   3.451   3.902  0.1286  0.6479  0.1507
 4318TIP3   OH234444   5.629   4.718   0.643 -0.2685  0.4280  0.6233
 4318TIP3    H134445   5.659   4.683   0.559 -1.1542  2.1165 -0.4484
 4318TIP3    H234446   5.699   4.697   0.705  0.7373 -0.2036 -0.6873
 4319TIP3   OH234447   2.760   5.771  12.576 -0.3312  0.1208 -0.3035
 4319TIP3    H134448   2.769   5.797  12.485 -0.6848 -0.3792 -0.4793
 4319TIP3    H234449   2.817   5.695  12.586 -2.3677 -1.5647 -0.8217
 4320TIP3   OH234450   1.286   1.610  14.974 -0.5984 -0.2987 -0.3601
 4320TIP3    H134451   1.246   1.535  14.931 -0.6691 -0.2906 -0.3081
 4320TIP3    H234452   1.337   1.653  14.905  0.9582 -1.4385  0.0202
 4321TIP3   OH234453   1.854   4.501   2.768 -0.1860 -0.7185 -0.1044
 4321TIP3    H134454   1.945   4.486   2.793  0.2525  0.6704 -0.7546
 4321TIP3    H234455   1.858   4.524   2.675 -1.0834  0.3391  0.1000
 4322TIP3   OH234456   1.786   3.740   5.559  0.0663 -0.0172  0.1140
 4322TIP3    H134457   1.766   3.802   5.489  1.5102  0.6518  0.2563
 4322TIP3    H234458   1.790   3.655   5.515  0.1455  0.2833 -0.4663
 4323TIP3   OH234459   0.436   5.583   2.587 -0.1905 -0.1656  0.1864
 4323TIP3    H134460   0.352   5.623   2.562 -0.0564 -0.5171 -0.9081
 4323TIP3    H234461   0.469   5.545   2.505  0.9834 -0.1344  0.6280
 4324TIP3   OH234462   3.982   0.921   4.288 -0.1452 -0.3233  0.1321
 4324TIP3    H134463   3.961   0.941   4.380 -0.3923 -0.5096  0.1158
 4324TIP3    H234464   3.982   0.826   4.283  3.5035 -0.5186  0.7893
 4325TIP3   OH234465   2.342   5.031   4.397 -0.0297  0.7486  0.0855
 4325TIP3    H134466   2.426   5.053   4.438  0.9001  0.3982 -1.5239
 4325TIP3    H234467   2.318   4.946   4.434  1.5944 -0.3264 -1.1828
 4326TIP3   OH234468   6.494   2.340  13.150 -0.0524 -0.1362 -0.1630
 4326TIP3    H134469   6.559   2.373  13.089  0.5338 -2.4433 -0.8702
 4326TIP3    H234470   6.411   2.376  13.118  0.6238  1.4325 -0.2618
 4327TIP3   OH234471   4.255   6.774  15.096 -0.1588  0.5034 -0.0199
 4327TIP3    H134472   4.320   6.837  15.127 -2.6093  2.7591  0.9871
 4327TIP3    H234473   4.253   6.785  15.001  1.0403  0.2490 -0.0801
 4328TIP3   OH234474   2.458   5.937   1.807 -0.5946  0.1872 -0.0010
 4328TIP3    H134475   2.371   5.908   1.834 -0.9441  1.6798  0.5589
 4328TIP3    H234476   2.512   5.858   1.811 -2.0596 -0.9344 -1.0760
 4329TIP3   OH234477   6.491   6.059  12.325  0.0599 -0.4545 -0.3049
 4329TIP3    H134478   6.557   6.007  12.279 -0.1502 -0.2760 -0.8167
 4329TIP3    H234479   6.413   6.050  12.271 -0.0659  0.1307 -0.2223
 4330TIP3   OH234480   0.571   4.474   4.504  0.7490  0.1798 -0.4849
 4330TIP3    H134481   0.586   4.399   4.562  0.8230  1.0829  0.6980
 4330TIP3    H234482   0.533   4.541   4.561 -0.3309  0.6745 -1.7533
 4331TIP3   OH234483   1.859   2.309   0.644 -0.3616 -0.5566  0.1719
 4331TIP3    H134484   1.947   2.345   0.657 -0.6833  0.0202  0.8405
 4331TIP3    H234485   1.800   2.381   0.668 -1.0180 -1.0164 -0.0329
 4332TIP3   OH234486   4.964   5.649   6.675 -0.6214 -0.9015 -1.0668
 4332TIP3    H134487   5.026   5.577   6.669  0.9503  0.2643  0.0672
 4332TIP3    H234488   4.896   5.618   6.736  1.6151 -0.4888  1.8733
 4333TIP3   OH234489   6.465   2.353   4.740 -0.3637  0.0659 -0.7444
 4333TIP3    H134490   6.419   2.304   4.808 -2.2797  1.4438 -0.9754
 4333TIP3    H234491   6.514   2.420   4.788  1.5458 -1.4221 -0.4958
 4334TIP3   OH234492   3.326   5.648   1.686 -0.1477  0.6957  0.1555
 4334TIP3    H134493   3.358   5.558   1.693 -2.5198 -0.1980  0.5546
 4334TIP3    H234494   3.363   5.681   1.604  0.1703 -0.8980 -0.3769
 4335TIP3   OH234495   6.564   2.114   0.246 -0.3858  0.0323 -0.2186
 4335TIP3    H134496   6.517   2.197   0.238  1.3675  1.1016  0.0319
 4335TIP3    H234497   6.655   2.135   0.226 -0.0871 -2.1135 -1.4734
 4336TIP3   OH234498   0.350   4.001   3.774  0.0136 -0.7911  0.0840
 4336TIP3    H134499   0.397   3.920   3.791 -0.2657 -0.5748  2.1071
 4336TIP3    H234500   0.258   3.978   3.779 -0.0884 -0.5678 -0.5856
 4337TIP3   OH234501   5.633   3.337   1.183 -0.0732  0.3434  0.2722
 4337TIP3    H134502   5.605   3.310   1.095  1.7630  1.2644 -0.6632
 4337TIP3    H234503   5.673   3.258   1.220 -1.3870 -0.2199  0.5645
 4338TIP3   OH234504   5.936   4.424   3.950 -0.5989 -0.3197  0.1100
 4338TIP3    H134505   6.026   4.455   3.958 -0.9101  0.6450  0.0623
 4338TIP3    H234506   5.908   4.454   3.863 -0.9525 -0.6456  0.1100
 4339TIP3   OH234507   5.529   4.956  16.398  0.3245 -0.1019  0.2084
 4339TIP3    H134508   5.578   5.033  16.425 -1.4278  0.7442  1.1696
 4339TIP3    H234509   5.507   4.973  16.306  0.8011  0.0624  0.1214
 4340TIP3   OH234510   4.241   4.807   1.646  0.9589 -0.2708  0.5485
 4340TIP3    H134511   4.298   4.788   1.571  1.0165  1.2250  0.1779
 4340TIP3    H234512   4.205   4.722   1.671 -2.1803 -0.4679 -3.6423
 4341TIP3   OH234513   3.674   5.674   6.167  0.3488 -0.1597  0.1259
 4341TIP3    H134514   3.763   5.709   6.169 -0.0099  0.7750  0.2155
 4341TIP3    H234515   3.673   5.608   6.236  0.4476  1.1622  1.4530
 4342TIP3   OH234516   0.827   1.246  16.994 -0.1029  0.5550 -0.1134
 4342TIP3    H134517   0.916   1.281  17.004  0.3601 -1.0710  2.4216
 4342TIP3    H234518   0.833   1.186  16.920  0.6491  1.2030 -0.5946
 4343TIP3   OH234519   2.862   0.531   6.998 -0.0906  0.0423 -0.1873
 4343TIP3    H134520   2.819   0.497   6.919  0.0173 -0.9624  0.1735
 4343TIP3    H234521   2.824   0.479   7.070 -0.1319  0.8897  0.4145
 4344TIP3   OH234522   2.816   0.742   1.458 -0.2421  0.0758 -0.4764
 4344TIP3    H134523   2.765   0.687   1.518  0.4914  1.3507  1.4252
 4344TIP3    H234524   2.900   0.696   1.451 -0.1935  0.1150 -0.1913
 4345TIP3   OH234525   0.758   2.290   1.344  0.0538  0.4706  0.1319
 4345TIP3    H134526   0.706   2.262   1.419 -0.4334 -0.8859 -0.6771
 4345TIP3    H234527   0.732   2.231   1.273  0.5825  1.6422 -1.0791
 4346TIP3   OH234528   1.929   0.144  15.041  0.5225 -0.4037 -0.2444
 4346TIP3    H134529   1.883   0.068  15.077 -0.8483  0.5580  0.1054
 4346TIP3    H234530   2.013   0.109  15.010 -0.5582 -2.2721 -1.2001
 4347TIP3   OH234531   3.533   0.078  16.442  0.6622  0.4287  0.0602
 4347TIP3    H134532   3.458   0.020  16.431 -0.2104  1.7687 -1.5420
 4347TIP3    H234533   3.547   0.080  16.537  0.6172 -2.1765  0.1885
 4348TIP3   OH234534   3.620   4.498   0.535  0.1364  0.7661 -0.1001
 4348TIP3    H134535   3.527   4.508   0.556  0.5446  2.0291  1.3260
 4348TIP3    H234536   3.665   4.529   0.614  1.7709  0.6121 -0.9389
 4349TIP3   OH234537   3.543   6.371  14.138  0.0180 -0.1992 -0.7067
 4349TIP3    H134538   3.522   6.303  14.074  0.6541 -0.3145 -0.7972
 4349TIP3    H234539   3.458   6.407  14.163 -0.2579 -0.3710 -1.3786
 4350TIP3   OH234540   1.733   4.450   3.555  0.5545  0.0120 -0.1096
 4350TIP3    H134541   1.788   4.492   3.621  1.4339 -0.0973 -0.7644
 4350TIP3    H234542   1.658   4.510   3.545  0.2605 -0.1065  1.1708
 4351TIP3   OH234543   2.922   4.808  12.384 -0.3630 -1.0242  0.0610
 4351TIP3    H134544   2.904   4.758  12.463 -0.2508  0.8973  1.3617
 4351TIP3    H234545   2.846   4.865  12.374 -0.4710 -1.3740 -1.3639
 4352TIP3   OH234546   3.078   4.077  15.255  0.3891 -0.0310  0.2189
 4352TIP3    H134547   2.987   4.059  15.281  0.7082  0.4639  1.7589
 4352TIP3    H234548   3.077   4.170  15.229  0.4435 -0.0385  0.1894
 4353TIP3   OH234549   1.451   5.727  12.344  0.0331  0.0924 -0.3025
 4353TIP3    H134550   1.531   5.735  12.396  2.1261 -2.2477 -2.8322
 4353TIP3    H234551   1.442   5.813  12.302 -1.0354  1.6202  2.7532
 4354TIP3   OH234552   2.224   3.259   2.525 -0.1941  0.4006  0.5757
 4354TIP3    H134553   2.287   3.216   2.468 -0.5885  0.6379 -0.0527
 4354TIP3    H234554   2.171   3.313   2.466 -0.5041  0.7794  1.1861
 4355TIP3   OH234555   2.513   6.540  11.633  0.1414  0.2043 -0.3951
 4355TIP3    H134556   2.451   6.469  11.650  0.8170 -0.4886 -0.7786
 4355TIP3    H234557   2.541   6.568  11.720 -0.5115  0.3540 -0.2259
 4356TIP3   OH234558   2.834   5.757  13.465 -0.1749 -0.6803  0.3601
 4356TIP3    H134559   2.920   5.724  13.491  0.6372  1.8598  1.2137
 4356TIP3    H234560   2.852   5.841  13.423 -2.1712 -0.6493 -0.5646
 4357TIP3   OH234561   5.905   2.926  11.601  0.2677  0.2420 -0.3808
 4357TIP3    H134562   5.908   3.018  11.627 -1.6353  0.5520 -1.0847
 4357TIP3    H234563   5.835   2.921  11.536  0.6517 -1.6330 -0.7340
 4358TIP3   OH234564   2.057   0.460   0.044  0.2887  1.0730  0.1988
 4358TIP3    H134565   1.969   0.484   0.074  0.6554  0.2352  2.1167
 4358TIP3    H234566   2.045   0.378  -0.004 -0.1496  1.7559 -0.8925
 4359TIP3   OH234567   0.235   4.563   4.676 -0.0056  0.1573  0.0831
 4359TIP3    H134568   0.210   4.655   4.670 -0.3548  0.0736  0.2448
 4359TIP3    H234569   0.329   4.565   4.692 -0.1443  0.5081  0.9161
 4360TIP3   OH234570   0.123   0.046   4.103 -0.5216  0.1145  0.0427
 4360TIP3    H134571   0.151   0.137   4.104 -0.8177  0.2137  1.0211
 4360TIP3    H234572   0.142   0.015   4.015  2.4541  0.2476  0.5210
 4361TIP3   OH234573   6.614   6.682   0.288 -0.2347 -0.0494 -0.0344
 4361TIP3    H134574   6.641   6.733   0.212 -5.1033 -0.2008 -2.2263
 4361TIP3    H234575   6.575   6.747   0.348  0.2416 -0.3644  0.6314
 4362TIP3   OH234576   4.998   5.652   0.845  0.4290 -0.2705  0.2990
 4362TIP3    H134577   5.093   5.641   0.850  0.3934 -0.8868 -0.2134
 4362TIP3    H234578   4.964   5.602   0.919  0.3157 -3.3128 -1.5986
 4363TIP3   OH234579   1.609   1.929  16.787 -0.6502 -0.7625 -0.5258
 4363TIP3    H134580   1.636   1.889  16.870 -0.0209 -0.7077 -0.6954
 4363TIP3    H234581   1.622   2.023  16.801 -2.9645 -0.4909  0.1812
 4364TIP3   OH234582   1.025   2.205   0.583  0.1452  0.0667  0.3035
 4364TIP3    H134583   0.988   2.195   0.670  0.5333 -0.8408  0.3806
 4364TIP3    H234584   1.004   2.122   0.539 -0.8474  0.8588 -0.7794
 4365TIP3   OH234585   1.483   5.139  13.359  0.3226 -0.0441  0.2418
 4365TIP3    H134586   1.417   5.074  13.383 -0.9002  0.2385 -2.0495
 4365TIP3    H234587   1.525   5.163  13.442 -1.0970 -1.6917  1.5059
 4366TIP3   OH234588   5.965   6.381  12.052  0.0963 -0.2646 -0.4575
 4366TIP3    H134589   5.904   6.455  12.062  1.4531  1.4725 -3.6134
 4366TIP3    H234590   6.038   6.402  12.111 -1.2665 -1.2947  1.7410
 4367TIP3   OH234591   6.137   4.298  11.782  0.4640 -0.0098  0.1976
 4367TIP3    H134592   6.073   4.368  11.798  1.0468  0.8179 -0.9379
 4367TIP3    H234593   6.111   4.228  11.842 -3.6073 -1.1036 -2.3903
 4368TIP3   OH234594   6.453   6.130   5.839  0.2219 -0.2844  0.4071
 4368TIP3    H134595   6.452   6.216   5.880  3.0294  0.1589 -0.2158
 4368TIP3    H234596   6.458   6.068   5.912 -0.4752  0.1491  0.8289
 4369TIP3   OH234597   0.046   0.409   4.968 -0.1674 -0.1483  0.0985
 4369TIP3    H134598  -0.016   0.360   5.022  0.1701 -0.8261 -0.1252
 4369TIP3    H234599   0.020   0.390   4.878 -0.3646  0.5153  0.0042
 4370TIP3   OH234600   3.415   6.574   5.146 -0.2248 -0.0909  1.0274
 4370TIP3    H134601   3.321   6.593   5.152 -0.6751 -2.0536  0.7773
 4370TIP3    H234602   3.455   6.634   5.208 -1.7400  0.1875  1.7883
 4371TIP3   OH234603   1.762   0.463  14.338  0.3424  0.2345 -0.7789
 4371TIP3    H134604   1.763   0.492  14.246  0.7043  0.9589 -0.5533
 4371TIP3    H234605   1.675   0.489  14.369 -0.5277 -1.7454 -1.4407
 4372TIP3   OH234606   5.723   0.102  15.699  0.4400  0.2806 -1.0318
 4372TIP3    H134607   5.715   0.007  15.692 -1.4457  0.1066  1.7652
 4372TIP3    H234608   5.697   0.135  15.613 -2.1938 -1.6654 -1.1164
 4373TIP3   OH234609   3.777   2.871   0.988 -0.4661 -0.4474 -0.1361
 4373TIP3    H134610   3.683   2.880   0.975 -0.3630  2.0212  0.3003
 4373TIP3    H234611   3.790   2.779   1.010 -2.9046 -0.6327  0.8096
 4374TIP3   OH234612   5.501   5.694  15.748 -0.0693 -0.1538 -0.4893
 4374TIP3    H134613   5.573   5.744  15.709  1.1520 -1.2502  0.2577
 4374TIP3    H234614   5.445   5.670  15.674  1.4439 -0.9980 -1.4212
 4375TIP3   OH234615   1.395   5.366  11.702  0.1519  0.1175 -0.2865
 4375TIP3    H134616   1.426   5.340  11.616  0.4993  1.1959 -0.5114
 4375TIP3    H234617   1.408   5.461  11.704  1.1402 -0.0146  1.3452
 4376TIP3   OH234618   3.695   4.659  13.752  0.1542 -0.3418 -0.0252
 4376TIP3    H134619   3.643   4.721  13.803  0.7510  1.3839 -1.4355
 4376TIP3    H234620   3.639   4.581  13.747 -2.2922  1.3257 -1.2429
 4377TIP3   OH234621   5.065   6.185   4.261 -0.4930  0.0578 -0.0363
 4377TIP3    H134622   5.122   6.119   4.222 -1.5379 -0.3224 -0.9710
 4377TIP3    H234623   5.003   6.135   4.313 -0.0605  0.4658  0.9116
 4378TIP3   OH234624   0.096   3.189   1.965  0.2016 -0.3938  0.1453
 4378TIP3    H134625   0.082   3.221   1.876  2.2494 -1.2343 -0.5303
 4378TIP3    H234626   0.009   3.165   1.996 -0.3881 -1.5952 -2.2190
 4379TIP3   OH234627   1.616   3.377   4.890  0.1676 -0.3694 -0.9769
 4379TIP3    H134628   1.609   3.425   4.808  0.3514 -0.4075 -1.0143
 4379TIP3    H234629   1.709   3.354   4.897  0.2043 -0.1373 -0.6338
 4380TIP3   OH234630   1.973   6.300   5.837 -0.3146 -0.5981  0.3028
 4380TIP3    H134631   1.899   6.239   5.832  0.0493 -1.0144 -0.0041
 4380TIP3    H234632   1.935   6.385   5.815 -0.3410 -1.1003 -1.7681
 4381TIP3   OH234633   0.949   4.003  12.290 -0.2957 -0.1567 -0.9346
 4381TIP3    H134634   0.974   3.926  12.342  0.5145 -0.7158 -2.0998
 4381TIP3    H234635   0.974   3.980  12.201  1.0482  1.9147 -1.1508
 4382TIP3   OH234636   5.764   0.519  15.095  0.0127 -0.4630 -0.1980
 4382TIP3    H134637   5.757   0.597  15.149 -0.7689 -0.8608  0.2852
 4382TIP3    H234638   5.777   0.552  15.006  2.0576  0.2018  0.2874
 4383TIP3   OH234639   5.807   0.899   0.814 -0.1300  0.3250 -0.1706
 4383TIP3    H134640   5.811   0.875   0.721 -0.5900 -1.7121  0.2974
 4383TIP3    H234641   5.898   0.892   0.844 -0.0539  0.5213 -0.3482
 4384TIP3   OH234642   4.533   2.837  13.256 -0.2876  0.1553 -0.0109
 4384TIP3    H134643   4.538   2.922  13.300 -0.5433  0.4354 -0.5171
 4384TIP3    H234644   4.596   2.782  13.303 -2.0011 -0.1754  2.0595
 4385TIP3   OH234645   1.026   4.938  13.343 -1.0683  0.7510 -0.6389
 4385TIP3    H134646   1.022   4.976  13.431 -0.1607  2.0517 -1.1462
 4385TIP3    H234647   0.968   4.862  13.348 -1.4722  1.1259  0.9254
 4386TIP3   OH234648   5.148   5.975  17.217  0.2912 -0.6475  0.1706
 4386TIP3    H134649   5.074   6.014  17.172 -0.1931 -0.9718  0.6666
 4386TIP3    H234650   5.169   5.896  17.167  2.7717  1.3377 -2.2372
 4387TIP3   OH234651   1.846   2.222  11.863  0.3686 -0.5070  0.6303
 4387TIP3    H134652   1.893   2.295  11.903  1.2305 -0.3836 -0.5474
 4387TIP3    H234653   1.906   2.148  11.872  1.2060 -0.1825 -1.5558
 4388TIP3   OH234654   6.697   6.107   3.140 -0.1361  0.2674  0.5011
 4388TIP3    H134655   6.660   6.082   3.056  0.9451  2.1097 -0.5828
 4388TIP3    H234656   6.791   6.089   3.132 -0.2089 -1.0289  1.9319
 4389TIP3   OH234657   2.886   2.022  10.996 -0.3682  0.3976  0.1262
 4389TIP3    H134658   2.913   1.937  11.031  0.4408  0.8575  0.6454
 4389TIP3    H234659   2.799   2.036  11.035 -0.3012  0.0248  0.4246
 4390TIP3   OH234660   4.194   3.897   0.630  0.1050  0.1125 -0.4745
 4390TIP3    H134661   4.263   3.909   0.695 -0.9143  1.7688  0.3671
 4390TIP3    H234662   4.242   3.877   0.549  1.3832 -2.1306  0.7453
 4391TIP3   OH234663   1.897   3.236   5.081 -0.0619  0.1313 -0.1033
 4391TIP3    H134664   1.991   3.227   5.061  0.3690  1.2459  1.2316
 4391TIP3    H234665   1.892   3.317   5.132 -1.7296 -0.0759  0.0889
 4392TIP3   OH234666   0.133   6.270  14.492  0.3748  0.1423 -0.3435
 4392TIP3    H134667   0.218   6.227  14.489  0.2228 -0.1233 -1.0922
 4392TIP3    H234668   0.090   6.235  14.570  1.2696  0.9036  0.5195
 4393TIP3   OH234669   4.380   0.361   3.549 -0.4385 -0.2115 -0.2562
 4393TIP3    H134670   4.300   0.361   3.497 -0.7297 -1.0729  0.1658
 4393TIP3    H234671   4.380   0.276   3.594  1.5742 -0.9598 -1.5361
 4394TIP3   OH234672   1.556   1.691   4.624 -0.3585  0.4312 -0.1189
 4394TIP3    H134673   1.613   1.757   4.585  0.4333 -0.3449 -0.3043
 4394TIP3    H234674   1.592   1.677   4.712  0.3344 -0.7422 -0.5685
 4395TIP3   OH234675   1.958   0.583  15.600  0.2113  0.3460  0.2076
 4395TIP3    H134676   2.006   0.542  15.672  1.9945  0.3749 -0.9055
 4395TIP3    H234677   1.879   0.530  15.591  0.8022 -0.7246  1.0424
 4396TIP3   OH234678   0.701   6.636  13.580  0.3589 -0.0820 -0.3960
 4396TIP3    H134679   0.695   6.731  13.578  1.3305 -0.0059 -0.2207
 4396TIP3    H234680   0.714   6.611  13.489  1.2846  0.0534 -0.3100
 4397TIP3   OH234681   5.319   6.558   1.456  0.4311 -0.2336 -0.2337
 4397TIP3    H134682   5.300   6.648   1.430  0.7930  0.0643  0.4937
 4397TIP3    H234683   5.296   6.555   1.549 -0.1162 -1.0516 -0.3937
 4398TIP3   OH234684   0.565   5.274  17.052 -0.1407 -0.0246  0.1971
 4398TIP3    H134685   0.586   5.345  17.113  0.7371 -0.7025  0.7023
 4398TIP3    H234686   0.525   5.207  17.107 -2.7863  0.7701 -0.5570
 4399TIP3   OH234687   5.698   4.725  15.664 -0.5786  0.8662 -0.2194
 4399TIP3    H134688   5.625   4.732  15.726 -0.1361  2.3548  0.1762
 4399TIP3    H234689   5.699   4.809  15.619  0.2320  0.4585 -0.9955
 4400TIP3   OH234690   0.855   3.123  16.188 -0.1555 -0.1515 -0.3586
 4400TIP3    H134691   0.940   3.119  16.231 -1.0466  1.1028  1.6886
 4400TIP3    H234692   0.842   3.216  16.169 -1.5740 -0.1186  0.5715
 4401TIP3   OH234693   5.140   3.840   4.239  0.0889  0.3539  0.1534
 4401TIP3    H134694   5.157   3.923   4.195 -2.2307  0.3616 -0.8580
 4401TIP3    H234695   5.098   3.786   4.172  1.5058 -1.6654  0.7961
 4402TIP3   OH234696   2.859   6.523   1.584  0.6444 -0.5056  0.0034
 4402TIP3    H134697   2.773   6.559   1.562  1.0166 -0.2987 -1.1818
 4402TIP3    H234698   2.921   6.582   1.541  1.3376 -1.2841 -0.0907
 4403TIP3   OH234699   6.782   1.767  15.796  0.0401  0.0193  0.1678
 4403TIP3    H134700   6.819   1.748  15.710 -1.3654 -0.8065 -0.2866
 4403TIP3    H234701   6.808   1.693  15.850 -0.0289 -0.0345  0.1290
 4404TIP3   OH234702   2.152   6.208  10.896 -0.1021 -0.3262  0.0800
 4404TIP3    H134703   2.234   6.158  10.901  1.1346  1.6284  0.2386
 4404TIP3    H234704   2.093   6.151  10.846  1.2298 -1.9106  0.2085
 4405TIP3   OH234705   2.964   0.127   3.213  0.0671 -0.0371 -0.9062
 4405TIP3    H134706   2.932   0.204   3.166 -2.0629 -0.2194  0.1148
 4405TIP3    H234707   2.976   0.157   3.303 -0.6158 -0.8194 -0.5358
 4406TIP3   OH234708   4.639   4.896  11.595 -0.3518 -0.0947 -0.1511
 4406TIP3    H134709   4.675   4.953  11.528  1.5682 -0.6577  0.3340
 4406TIP3    H234710   4.560   4.860  11.556 -0.5025  1.3096 -1.2291
 4407TIP3   OH234711   1.563   0.114  15.421  0.0531 -0.1380 -0.2484
 4407TIP3    H134712   1.476   0.147  15.444 -0.5050 -1.3791 -0.4961
 4407TIP3    H234713   1.558   0.020  15.437  2.3978  0.1357  2.9551
 4408TIP3   OH234714   4.895   5.305   4.842  0.4212 -0.0027 -0.1170
 4408TIP3    H134715   4.808   5.265   4.850  0.3926 -0.3505 -1.8661
 4408TIP3    H234716   4.890   5.385   4.895 -0.0726 -1.3684  2.0485
 4409TIP3   OH234717   5.058   3.599  12.172  0.0608  0.1046  0.4117
 4409TIP3    H134718   5.154   3.604  12.171  0.1744 -1.3933 -0.5179
 4409TIP3    H234719   5.029   3.689  12.182  1.5670  0.8115 -1.1329
 4410TIP3   OH234720   1.030   2.310   5.968  0.3621  0.0111 -0.2627
 4410TIP3    H134721   1.003   2.218   5.971  0.4111  0.0178  0.6062
 4410TIP3    H234722   1.070   2.326   6.053 -2.5301  1.7001  0.9244
 4411TIP3   OH234723   3.296   2.189   4.027 -0.4982  0.3674 -0.2363
 4411TIP3    H134724   3.335   2.190   4.114 -1.3966 -1.9982  0.2521
 4411TIP3    H234725   3.371   2.181   3.968  0.0801  1.3888  0.3267
 4412TIP3   OH234726   2.705   5.711  15.145 -0.3761 -0.1245 -0.5964
 4412TIP3    H134727   2.712   5.689  15.238  1.7695  1.4237 -0.3218
 4412TIP3    H234728   2.785   5.677  15.106  0.5350  2.4476 -1.1292
 4413TIP3   OH234729   2.195   0.133  14.204  0.5246 -0.4606 -0.3170
 4413TIP3    H134730   2.130   0.094  14.146  1.8264  0.1218 -2.2635
 4413TIP3    H234731   2.255   0.061  14.225 -0.6771 -0.9996  1.4841
 4414TIP3   OH234732   4.210   1.673   3.574 -0.3240  0.3954 -0.0289
 4414TIP3    H134733   4.117   1.687   3.556 -0.1428 -0.9849 -2.3873
 4414TIP3    H234734   4.256   1.719   3.504  0.7920  0.7009  0.8613
 4415TIP3   OH234735   3.073   6.524  14.459  0.3908 -0.3481  0.2772
 4415TIP3    H134736   3.135   6.484  14.520  1.4520 -0.5097 -0.8837
 4415TIP3    H234737   3.095   6.617  14.459  1.0355 -0.4891 -0.5654
 4416TIP3   OH234738   5.588   1.763  13.637 -0.8270 -0.4612 -0.0472
 4416TIP3    H134739   5.518   1.806  13.589  0.0734  0.6897 -0.3839
 4416TIP3    H234740   5.667   1.810  13.611  0.0543 -1.6065  0.4522
 4417TIP3   OH234741   2.777   1.789  15.296 -0.1341 -0.2442 -0.1078
 4417TIP3    H134742   2.731   1.873  15.291 -0.1193 -0.2310 -0.0202
 4417TIP3    H234743   2.828   1.794  15.377 -0.4679 -0.5060  0.1213
 4418TIP3   OH234744   1.480   2.492  15.526 -0.0273  0.2139 -0.1430
 4418TIP3    H134745   1.515   2.416  15.572 -1.3462 -0.9727 -0.9910
 4418TIP3    H234746   1.387   2.491  15.546  0.2450  2.9856  1.6597
 4419TIP3   OH234747   0.467   4.941  12.499 -0.1950  0.0625 -0.5381
 4419TIP3    H134748   0.532   4.872  12.481  1.3256  1.0157  1.0299
 4419TIP3    H234749   0.420   4.952  12.416 -0.5379 -2.8600 -0.8437
 4420TIP3   OH234750   1.709   2.553   0.684 -0.1018 -0.0941  0.9640
 4420TIP3    H134751   1.731   2.604   0.762  0.2720  0.2796  0.6216
 4420TIP3    H234752   1.613   2.554   0.681 -0.1054  0.3168  1.1392
 4421TIP3   OH234753   3.406   4.623  13.808 -0.8533  0.2354  0.2895
 4421TIP3    H134754   3.374   4.709  13.780 -1.6537 -0.3385 -0.6350
 4421TIP3    H234755   3.462   4.641  13.884  0.4568  1.7514 -0.9683
 4422TIP3   OH234756   5.457   3.384  15.004  0.1039 -0.0069 -0.3257
 4422TIP3    H134757   5.388   3.418  15.062 -1.8562 -2.7816 -0.8506
 4422TIP3    H234758   5.423   3.398  14.916  0.3222 -1.1927 -0.6053
 4423TIP3   OH234759   1.513   2.059  15.782  0.2776  0.1770  0.2925
 4423TIP3    H134760   1.503   2.008  15.863 -0.3858 -0.4036 -0.1490
 4423TIP3    H234761   1.471   2.143  15.802 -0.8125 -0.3374  0.2225
 4424TIP3   OH234762   4.565   2.588   5.674 -0.3245  0.2409  0.8627
 4424TIP3    H134763   4.660   2.581   5.683 -0.2546  0.1716  0.1363
 4424TIP3    H234764   4.542   2.668   5.720  0.1680  0.5750  0.5441
 4425TIP3   OH234765   5.810   2.500  16.783  0.1441  0.0611 -0.1687
 4425TIP3    H134766   5.737   2.546  16.825 -0.3584 -0.0245 -0.9187
 4425TIP3    H234767   5.788   2.407  16.794  1.2923 -0.0528  1.5844
 4426TIP3   OH234768   3.301   2.246  16.758 -0.4289  0.2888  0.3628
 4426TIP3    H134769   3.330   2.245  16.849 -2.2151  1.3217  0.9973
 4426TIP3    H234770   3.343   2.323  16.720  2.1811 -1.3998 -0.4215
 4427TIP3   OH234771   1.022   3.780   2.812  0.1866 -0.0256  0.1578
 4427TIP3    H134772   0.956   3.793   2.744  0.6563 -0.7760 -0.4602
 4427TIP3    H234773   1.088   3.847   2.794 -0.7700  1.2713  1.2785
 4428TIP3   OH234774   1.930   2.955   2.131 -0.0684  0.1584  0.1420
 4428TIP3    H134775   1.904   2.884   2.071 -1.6393  0.2818  0.6244
 4428TIP3    H234776   2.000   2.917   2.184 -0.3064 -0.7576 -0.1771
 4429TIP3   OH234777   2.720   2.848  16.207 -0.2293 -1.1333 -0.0915
 4429TIP3    H134778   2.708   2.778  16.271 -2.0210 -0.8884 -0.1196
 4429TIP3    H234779   2.651   2.835  16.143 -0.6490  0.6668 -0.0600
 4430TIP3   OH234780   0.895   5.614  14.477  0.6934 -0.5657 -0.1642
 4430TIP3    H134781   0.975   5.577  14.440  1.3461  1.5877 -1.0452
 4430TIP3    H234782   0.925   5.692  14.524 -0.8052 -0.1980  0.2185
 4431TIP3   OH234783   6.631   6.480  16.246  0.6424 -0.2211  0.5389
 4431TIP3    H134784   6.605   6.507  16.334 -0.7613  0.7294 -0.1415
 4431TIP3    H234785   6.633   6.384  16.251 -1.0452 -0.2653  1.2050
 4432TIP3   OH234786   0.561   3.870   1.899 -0.1068  0.7044  0.3302
 4432TIP3    H134787   0.525   3.957   1.888 -0.6617  0.7604  2.1318
 4432TIP3    H234788   0.577   3.863   1.994 -0.4782 -1.2853  0.2894
 4433TIP3   OH234789   5.743   5.262   2.331 -0.1948  0.4533 -1.0960
 4433TIP3    H134790   5.766   5.233   2.419  0.1833  2.6434 -0.4155
 4433TIP3    H234791   5.714   5.182   2.287  1.2348 -1.0246  0.4563
 4434TIP3   OH234792   1.578   1.094   3.207  0.7537 -0.0551  0.5201
 4434TIP3    H134793   1.528   1.020   3.242  1.0266 -1.1180 -1.2313
 4434TIP3    H234794   1.511   1.160   3.186  0.5156  0.2635  2.1707
 4435TIP3   OH234795   3.519   1.943  13.764  0.1697  0.2580  0.0151
 4435TIP3    H134796   3.438   1.984  13.793 -0.8596 -1.0601 -0.8489
 4435TIP3    H234797   3.588   1.986  13.814 -1.1257  0.9555  1.2536
 4436TIP3   OH234798   5.052   6.166  11.206  0.4820 -0.3768  0.0981
 4436TIP3    H134799   4.957   6.163  11.194 -0.2073 -0.1065  4.1480
 4436TIP3    H234800   5.080   6.243  11.155 -1.4417 -0.3929 -1.0854
 4437TIP3   OH234801   1.280   0.212  11.517 -0.5373 -0.0976 -0.0701
 4437TIP3    H134802   1.356   0.269  11.510  1.5094 -2.8064 -3.1856
 4437TIP3    H234803   1.214   0.252  11.460 -0.4813  0.8960  0.5424
 4438TIP3   OH234804   0.342   4.411   2.058 -0.4599  0.2242 -0.2430
 4438TIP3    H134805   0.299   4.476   2.113 -0.9945  0.8435 -1.3478
 4438TIP3    H234806   0.394   4.359   2.118 -0.9815  0.9053  0.8318
 4439TIP3   OH234807   5.489   5.141   2.571 -0.7816  0.1056  0.0813
 4439TIP3    H134808   5.463   5.212   2.513  0.2406 -0.9794 -1.8252
 4439TIP3    H234809   5.576   5.166   2.602 -1.1469  0.4785  0.8419
 4440TIP3   OH234810   3.416   2.808   5.331 -0.1853 -0.5682  0.0875
 4440TIP3    H134811   3.348   2.762   5.282  2.4970 -2.5731 -2.0946
 4440TIP3    H234812   3.392   2.901   5.325 -1.7146 -1.0425 -2.2273
 4441TIP3   OH234813   3.031   5.048   2.420 -0.2405  0.4358  0.2472
 4441TIP3    H134814   3.070   4.994   2.351 -3.4496  1.2871 -2.5292
 4441TIP3    H234815   2.981   4.986   2.474 -0.0431  0.0835  0.0291
 4442TIP3   OH234816   6.141   2.280  11.299 -0.4749 -0.3874  0.0702
 4442TIP3    H134817   6.161   2.242  11.213 -0.6412 -1.5865  0.5413
 4442TIP3    H234818   6.175   2.216  11.362 -1.1267  0.0588  0.8960
 4443TIP3   OH234819   2.923   6.581   2.501 -0.1667  0.0547  0.2125
 4443TIP3    H134820   2.917   6.652   2.564 -0.6038 -0.2258  0.4910
 4443TIP3    H234821   2.845   6.528   2.517  0.8531 -1.2666  0.9464
 4444TIP3   OH234822   1.491   0.860  12.366 -0.1092  0.2042  0.6877
 4444TIP3    H134823   1.470   0.952  12.348  1.5557  0.5498  0.3537
 4444TIP3    H234824   1.520   0.825  12.282  1.4686  0.0239  1.2803
 4445TIP3   OH234825   5.657   5.769   5.404 -0.8434 -0.3336 -0.1806
 4445TIP3    H134826   5.642   5.803   5.492 -0.7718 -0.4088 -0.1392
 4445TIP3    H234827   5.707   5.838   5.360 -0.3006 -0.5820  0.0461
 4446TIP3   OH234828   5.856   5.273   5.215  0.2582 -0.0954  0.2761
 4446TIP3    H134829   5.878   5.349   5.161 -1.8352  1.4444  1.4269
 4446TIP3    H234830   5.764   5.288   5.240  1.0308 -0.7558  4.0573
 4447TIP3   OH234831   6.452   0.465   1.092 -0.1100 -0.2420 -0.0613
 4447TIP3    H134832   6.463   0.560   1.086  0.9888 -0.2100  1.6926
 4447TIP3    H234833   6.362   0.449   1.064 -0.0163  1.1934 -1.3056
 4448TIP3   OH234834   1.202   1.720   3.757 -0.3638  0.4523 -0.8106
 4448TIP3    H134835   1.136   1.760   3.700  0.8804  0.6258 -2.2015
 4448TIP3    H234836   1.286   1.752   3.723  0.4381  0.8968  1.3994
 4449TIP3   OH234837   3.605   2.872  14.355  0.0937 -0.2022  0.2534
 4449TIP3    H134838   3.617   2.778  14.369 -0.0471 -0.1324  0.8530
 4449TIP3    H234839   3.537   2.897  14.416 -0.7355  0.0681 -0.7597
 4450TIP3   OH234840   4.415   6.322  10.729  0.1785 -0.0897 -0.3340
 4450TIP3    H134841   4.429   6.240  10.682  0.7669 -1.7356  2.4865
 4450TIP3    H234842   4.332   6.310  10.775  1.0753  0.1752  1.4360
 4451TIP3   OH234843   3.869   1.197  15.076 -0.1566  0.3096 -0.5785
 4451TIP3    H134844   3.832   1.257  15.011  0.4755 -0.0036 -1.2462
 4451TIP3    H234845   3.814   1.208  15.154 -2.5572 -1.1931 -1.9383
 4452TIP3   OH234846   2.297   2.398   6.311  0.4395 -0.2436  0.6144
 4452TIP3    H134847   2.217   2.349   6.292  0.4340 -1.2368  2.8277
 4452TIP3    H234848   2.278   2.487   6.283 -0.6774 -0.8791 -0.7397
 4453TIP3   OH234849   0.791   6.191   4.733  0.1882 -0.0499 -0.1328
 4453TIP3    H134850   0.745   6.179   4.816  0.3030 -0.5448 -0.1379
 4453TIP3    H234851   0.865   6.131   4.738  0.6404  0.4947 -0.2671
 4454TIP3   OH234852   6.043   1.707   4.222 -0.7359  0.4880  0.4456
 4454TIP3    H134853   6.080   1.772   4.282  0.6420  0.2904 -0.1558
 4454TIP3    H234854   6.115   1.647   4.204 -1.6218 -0.4603 -0.0456
 4455TIP3   OH234855   6.359   1.828  17.001 -0.3720 -0.0417  0.6227
 4455TIP3    H134856   6.447   1.796  17.020  0.1736  0.5284 -0.7800
 4455TIP3    H234857   6.359   1.842  16.906 -2.3502 -1.1134  0.4125
 4456TIP3   OH234858   6.049   1.505   1.906 -0.0718 -0.2294 -0.7881
 4456TIP3    H134859   6.062   1.500   2.000 -1.9097  0.8528 -0.4291
 4456TIP3    H234860   6.135   1.487   1.869  1.3326  1.9594  1.1553
 4457TIP3   OH234861   2.014   4.160   4.488 -0.4440  0.4524 -0.3067
 4457TIP3    H134862   1.921   4.179   4.498 -1.0012 -0.2919 -3.0617
 4457TIP3    H234863   2.023   4.069   4.515 -0.6177  0.3884 -0.4599
 4458TIP3   OH234864   3.450   3.291  11.379 -0.9855 -0.0060  0.1486
 4458TIP3    H134865   3.449   3.206  11.335 -1.2229  0.5185 -0.8927
 4458TIP3    H234866   3.524   3.337  11.339 -0.4317  0.0427  1.1914
 4459TIP3   OH234867   3.196   6.678   1.853  0.1095  0.0934  0.0215
 4459TIP3    H134868   3.174   6.766   1.822  1.4103 -0.2303 -2.0135
 4459TIP3    H234869   3.131   6.621   1.812  2.4475 -0.4650 -3.2731
 4460TIP3   OH234870   6.562   4.305  15.133  0.1318 -0.8887 -0.5012
 4460TIP3    H134871   6.646   4.344  15.158  0.7518 -1.6318 -1.3575
 4460TIP3    H234872   6.517   4.290  15.216  0.8503 -0.4965 -0.0275
 4461TIP3   OH234873   0.674   1.655   3.564  0.0906  0.2679 -0.3488
 4461TIP3    H134874   0.650   1.563   3.551 -0.1944  0.5100 -1.8101
 4461TIP3    H234875   0.592   1.703   3.548  0.1516  0.7673  0.7533
 4462TIP3   OH234876   5.001   2.263  13.236 -0.4053 -0.0553 -0.2909
 4462TIP3    H134877   5.086   2.306  13.251 -0.8453  0.8314 -0.3174
 4462TIP3    H234878   4.952   2.324  13.182 -0.7899 -0.9135 -0.9399
 4463TIP3   OH234879   0.199   0.476  13.045 -0.3379  0.5525 -0.8401
 4463TIP3    H134880   0.166   0.477  13.135 -1.6369 -2.7452 -1.1539
 4463TIP3    H234881   0.291   0.502  13.053 -0.3439  0.0975  1.4773
 4464TIP3   OH234882   0.275   1.289   5.625 -0.3583  0.2751 -0.2398
 4464TIP3    H134883   0.253   1.280   5.532  0.3601 -0.2006 -0.3772
 4464TIP3    H234884   0.274   1.200   5.659 -1.3513  0.5173  0.3986
 4465TIP3   OH234885   4.561   3.691   6.456 -0.2188  0.0710  0.3845
 4465TIP3    H134886   4.617   3.769   6.457 -0.3980  0.2458 -0.9076
 4465TIP3    H234887   4.479   3.722   6.417 -1.1997 -0.2114  2.1262
 4466TIP3   OH234888   0.756   5.459  13.208  0.7897 -0.2712  0.1553
 4466TIP3    H134889   0.784   5.528  13.269  1.5226  0.9812 -1.5069
 4466TIP3    H234890   0.838   5.420  13.177  0.4108 -1.1668  0.2540
 4467TIP3   OH234891   2.087   0.895  13.544 -0.3297  0.2823 -0.1755
 4467TIP3    H134892   2.091   0.987  13.518 -2.6190  0.5816  0.3717
 4467TIP3    H234893   2.007   0.861  13.504 -0.8640 -0.7835  1.6460
 4468TIP3   OH234894   5.863   3.701   5.253  0.1012  0.1745 -0.1322
 4468TIP3    H134895   5.888   3.613   5.225  1.2970 -0.4066  2.5333
 4468TIP3    H234896   5.946   3.748   5.260 -0.4595  1.2837 -0.6433
 4469TIP3   OH234897   1.144   4.882  13.038 -0.1824 -0.2031  0.0531
 4469TIP3    H134898   1.101   4.907  13.120 -1.2332 -1.2349 -0.1528
 4469TIP3    H234899   1.163   4.965  12.995 -2.4056  0.3357 -0.0343
 4470TIP3   OH234900   3.586   5.648   0.646 -0.5216 -0.4109  0.2253
 4470TIP3    H134901   3.569   5.715   0.712 -0.3776 -0.1317 -0.0193
 4470TIP3    H234902   3.669   5.674   0.606  0.3255 -1.5538  1.1552
 4471TIP3   OH234903   6.130   3.328   6.061 -0.5052 -0.3116  0.1604
 4471TIP3    H134904   6.118   3.345   5.968 -3.4874  1.9217  0.8015
 4471TIP3    H234905   6.210   3.374   6.084 -0.9928  1.1307 -0.9059
 4472TIP3   OH234906   3.635   2.477  14.663  0.3221  0.0801 -0.3517
 4472TIP3    H134907   3.702   2.479  14.731 -0.0831 -2.2492  0.1772
 4472TIP3    H234908   3.553   2.493  14.710  0.3184  1.3446 -0.7609
 4473TIP3   OH234909   3.392   2.354   6.081 -0.2994 -0.2329  0.0834
 4473TIP3    H134910   3.339   2.275   6.079  0.2677 -0.6215  0.1386
 4473TIP3    H234911   3.477   2.326   6.114  0.5200  0.0034 -1.6724
 4474TIP3   OH234912   2.303   5.720  14.026  0.5034 -0.0342  0.1375
 4474TIP3    H134913   2.294   5.759  13.939  2.3145 -0.0094 -0.0783
 4474TIP3    H234914   2.378   5.764  14.065  0.1637 -0.5541  1.4431
 4475TIP3   OH234915   0.058   3.114   3.100  0.5097 -0.0478  0.8070
 4475TIP3    H134916   0.072   3.036   3.153  1.4273 -0.9091 -0.6488
 4475TIP3    H234917   0.136   3.121   3.045  0.2493  1.6550  0.5876
 4476TIP3   OH234918   0.055   3.603   3.789  0.9111 -0.0421  0.4299
 4476TIP3    H134919   0.051   3.680   3.845  1.3294  0.0346  0.3594
 4476TIP3    H234920   0.043   3.529   3.848  0.6278  0.0708  0.5149
 4477TIP3   OH234921   1.553   2.457  16.173  0.6174  0.0577 -0.2830
 4477TIP3    H134922   1.480   2.479  16.231  2.2269  1.3913  1.3331
 4477TIP3    H234923   1.562   2.532  16.116  1.4081  0.3815  0.2608
 4478TIP3   OH234924   6.109   6.251   3.576  0.9418 -0.0186 -0.2318
 4478TIP3    H134925   6.041   6.209   3.628  1.8660  0.3326  1.3060
 4478TIP3    H234926   6.085   6.344   3.576  1.3945  0.1000  0.2801
 4479TIP3   OH234927   2.944   5.234  16.899 -0.5638  0.3998  0.1306
 4479TIP3    H134928   3.007   5.249  16.970 -0.5631 -0.8859  0.4318
 4479TIP3    H234929   2.926   5.321  16.864  1.2815  0.8132  0.1213
 4480TIP3   OH234930   3.613   0.632  15.227 -0.3571 -0.1249  0.0788
 4480TIP3    H134931   3.635   0.630  15.320  1.0050 -1.0987 -0.2261
 4480TIP3    H234932   3.520   0.611  15.224 -0.3844 -0.2527  1.2122
 4481TIP3   OH234933   0.727   0.814   1.129  0.6493  0.2045  0.1229
 4481TIP3    H134934   0.758   0.886   1.074  0.1545  0.6361  0.3979
 4481TIP3    H234935   0.649   0.849   1.173  0.6965 -0.3279  0.6485
 4482TIP3   OH234936   6.582   5.474   0.182 -0.2728  0.5633  0.3027
 4482TIP3    H134937   6.635   5.450   0.258 -0.2947  0.4698  0.2880
 4482TIP3    H234938   6.625   5.553   0.147  0.0377  0.3136  0.1103
 4483TIP3   OH234939   0.671   3.949  12.291 -0.0625  1.2359 -0.1394
 4483TIP3    H134940   0.757   3.989  12.296 -0.4659  2.0045  0.9986
 4483TIP3    H234941   0.679   3.883  12.222  1.5657  0.9547  0.2873
 4484TIP3   OH234942   4.605   4.120   2.855 -0.2502  0.0101 -0.2371
 4484TIP3    H134943   4.522   4.090   2.893 -0.0445 -1.4876 -0.9084
 4484TIP3    H234944   4.600   4.095   2.763 -0.4765  3.0325 -1.1665
 4485TIP3   OH234945   0.770   3.736  11.573  0.6515 -0.6885  0.4888
 4485TIP3    H134946   0.727   3.773  11.496  0.5576  1.6658  1.6063
 4485TIP3    H234947   0.706   3.672  11.607 -0.2908 -0.0675 -0.0628
 4486TIP3   OH234948   2.839   6.812  11.786 -0.4491 -0.4158 -0.0515
 4486TIP3    H134949   2.788   6.852  11.715 -1.1160 -0.3997  0.4352
 4486TIP3    H234950   2.845   6.720  11.762 -0.7687 -0.4311 -0.0736
 4487TIP3   OH234951   5.840   5.316  15.480 -0.1372 -0.3702 -0.4082
 4487TIP3    H134952   5.922   5.282  15.444  0.6997  1.2482 -0.0779
 4487TIP3    H234953   5.864   5.396  15.525 -1.8786  0.0247 -0.1057
 4488TIP3   OH234954   6.219   0.294   3.382  0.4320 -0.4010  0.6506
 4488TIP3    H134955   6.132   0.275   3.346  0.2653 -0.6537  1.1794
 4488TIP3    H234956   6.227   0.389   3.374  0.5529 -0.4948 -0.3988
 4489TIP3   OH234957   2.174   0.227  16.899  0.6929  0.3240 -0.2011
 4489TIP3    H134958   2.166   0.241  16.805 -0.0658 -0.8129 -0.3299
 4489TIP3    H234959   2.215   0.141  16.907 -0.3405 -0.1276  0.4848
 4490TIP3   OH234960   0.092   0.573  16.828  0.0375 -0.0261 -0.0664
 4490TIP3    H134961   0.097   0.567  16.923  0.9853 -0.2868 -0.1224
 4490TIP3    H234962   0.167   0.522  16.796 -0.1832  0.1724 -0.9472
 4491TIP3   OH234963   4.858   4.497   5.688  0.2810 -0.3683 -0.3777
 4491TIP3    H134964   4.936   4.454   5.653  1.2864  1.5330 -0.6286
 4491TIP3    H234965   4.786   4.465   5.634  0.8483 -2.2058 -0.1094
 4492TIP3   OH234966   2.108   5.179   4.388  0.3856 -0.3927 -0.1345
 4492TIP3    H134967   2.072   5.210   4.304  1.8420  0.0973 -0.6070
 4492TIP3    H234968   2.171   5.112   4.363  1.5035  0.3888  0.4845
 4493TIP3   OH234969   3.989   1.757  12.553 -0.4238 -0.6251  0.1493
 4493TIP3    H134970   3.970   1.787  12.464  0.3727 -0.3024  0.0763
 4493TIP3    H234971   4.054   1.820  12.586 -1.1308 -0.4013  1.1711
 4494TIP3   OH234972   1.037   5.328  11.143  0.1565  0.2308 -0.2138
 4494TIP3    H134973   1.041   5.257  11.080 -0.2108 -1.0204  1.1077
 4494TIP3    H234974   1.060   5.287  11.227 -0.8618  1.4800  0.7221
 4495TIP3   OH234975   6.101   1.825   3.825  0.2765  0.2550 -0.0750
 4495TIP3    H134976   6.152   1.879   3.765  1.2477  0.9653  1.3144
 4495TIP3    H234977   6.165   1.763   3.860 -0.6178 -1.1899 -0.9235
 4496TIP3   OH234978   4.674   6.284  12.734 -0.0658 -0.3001  0.0227
 4496TIP3    H134979   4.762   6.251  12.717 -0.0515  0.2758 -1.1256
 4496TIP3    H234980   4.684   6.343  12.809  0.5552 -0.1469 -0.1750
 4497TIP3   OH234981   4.496   3.952   0.635 -0.3364  0.4544 -0.5868
 4497TIP3    H134982   4.460   3.907   0.558  0.3450  1.9429 -1.8140
 4497TIP3    H234983   4.568   3.895   0.663  0.6797  0.8534 -2.2706
 4498TIP3   OH234984   1.827   5.076   3.352 -0.2197  0.0666 -0.2841
 4498TIP3    H134985   1.870   4.990   3.354  0.3634  0.3557  0.8830
 4498TIP3    H234986   1.887   5.131   3.301 -0.9053 -0.3474 -1.5864
 4499TIP3   OH234987   6.000   0.912   5.053  0.6019  0.2007  0.0485
 4499TIP3    H134988   6.056   0.847   5.095  1.9696  1.3717  0.0939
 4499TIP3    H234989   6.011   0.896   4.960  0.7601  0.2429  0.0611
 4500TIP3   OH234990   1.690   1.089   6.044 -0.0371 -0.4901 -0.3234
 4500TIP3    H134991   1.640   1.123   5.970 -1.3407  0.0352  0.7667
 4500TIP3    H234992   1.729   1.007   6.012 -0.8897 -0.4606 -1.4643
 4501TIP3   OH234993   5.901   2.120   1.459  0.0551  0.2697  0.0305
 4501TIP3    H134994   5.983   2.169   1.470 -0.9426  2.4213 -1.2952
 4501TIP3    H234995   5.833   2.184   1.480 -1.3151 -1.5374  1.3434
 4502TIP3   OH234996   1.056   0.642  14.558 -0.1695 -0.3830  0.2922
 4502TIP3    H134997   1.061   0.737  14.567 -1.1194 -0.2288 -0.6281
 4502TIP3    H234998   1.131   0.610  14.608  0.9882  0.9215 -0.5294
 4503TIP3   OH234999   6.716   5.589   3.697  0.9164 -0.0230 -0.1260
 4503TIP3    H135000   6.744   5.502   3.728 -0.9554 -0.8628 -0.6631
 4503TIP3    H235001   6.647   5.615   3.757 -0.5850 -0.2738 -1.6564
 4504TIP3   OH235002   6.089   5.372  13.761  0.2344 -0.3337  1.0716
 4504TIP3    H135003   6.116   5.412  13.678  0.2086  0.2795  1.3580
 4504TIP3    H235004   6.139   5.291  13.765 -0.1443 -0.6300  0.2080
 4505TIP3   OH235005   1.203   5.971   2.515 -0.3833  0.3175 -0.5865
 4505TIP3    H135006   1.269   6.039   2.531  0.5225 -0.6873  0.1253
 4505TIP3    H235007   1.240   5.892   2.555 -2.6021 -0.0015  1.0077
 4506TIP3   OH235008   3.796   2.600   1.058  0.1347 -0.0792 -0.1582
 4506TIP3    H135009   3.777   2.633   1.145  1.2965 -1.7653  0.7857
 4506TIP3    H235010   3.879   2.554   1.067 -0.1642 -1.0638 -1.9496
 4507TIP3   OH235011   3.399   3.349  14.761  0.2561  0.5732  0.4303
 4507TIP3    H135012   3.321   3.304  14.728  1.2304 -1.5084  0.7467
 4507TIP3    H235013   3.431   3.400  14.687 -0.2227 -0.2832 -0.3948
 4508TIP3   OH235014   0.023   5.651   2.719  0.4210  0.0643  0.2671
 4508TIP3    H135015  -0.032   5.729   2.715  0.7050  0.3639  1.6840
 4508TIP3    H235016  -0.039   5.579   2.735  0.2196  0.0692 -0.4602
 4509TIP3   OH235017   3.792   6.723   1.705  0.3170  0.2159 -0.1078
 4509TIP3    H135018   3.697   6.725   1.693  0.2407  2.0151  0.5338
 4509TIP3    H235019   3.820   6.814   1.689  1.8895 -0.2209  0.0078
 4510TIP3   OH235020   6.026   5.270   1.633  0.4804 -0.7285 -0.2775
 4510TIP3    H135021   5.931   5.266   1.621  0.0316 -1.8534  2.7473
 4510TIP3    H235022   6.042   5.360   1.663 -0.1427 -1.3587  2.1298
 4511TIP3   OH235023   4.103   1.651   2.320  0.6266  0.0690  0.0870
 4511TIP3    H135024   4.076   1.739   2.347 -1.7694 -0.4772 -0.2865
 4511TIP3    H235025   4.095   1.599   2.400  1.3230  0.0311  0.1346
 4512TIP3   OH235026   1.817   3.420  16.875 -0.5053  0.2079 -0.0065
 4512TIP3    H135027   1.729   3.401  16.841 -1.0193  0.7082  0.9876
 4512TIP3    H235028   1.844   3.338  16.916  0.2893 -0.5253 -1.9145
 4513TIP3   OH235029   0.225   1.504   3.174 -0.6136  0.3829 -0.1094
 4513TIP3    H135030   0.280   1.551   3.112 -0.9419 -0.0251 -0.7194
 4513TIP3    H235031   0.199   1.570   3.238  2.2370  0.2060  1.3965
 4514TIP3   OH235032   1.921   1.101   0.738  0.5457 -0.3584  0.1929
 4514TIP3    H135033   1.968   1.140   0.810  1.8317  0.6725 -1.1530
 4514TIP3    H235034   1.919   1.007   0.759  0.0425  0.0191  1.9915
 4515TIP3   OH235035   0.963   2.658  12.153 -0.5945  0.0199  0.2149
 4515TIP3    H135036   0.924   2.622  12.232 -2.0136  1.0990  0.0599
 4515TIP3    H235037   0.989   2.582  12.101  2.0854 -0.7376  2.4641
 4516TIP3   OH235038   3.999   0.789  15.725  0.0374  0.1785 -0.0773
 4516TIP3    H135039   3.935   0.857  15.745  0.4253  0.4353  0.2920
 4516TIP3    H235040   3.998   0.732  15.801 -0.5409 -0.4414 -0.5282
 4517TIP3   OH235041   0.458   2.518  13.986 -0.1288 -0.1047  0.1764
 4517TIP3    H135042   0.533   2.540  13.931  0.4256  2.0358  1.6452
 4517TIP3    H235043   0.406   2.599  13.989 -1.0806 -0.7160  1.3369
 4518TIP3   OH235044   4.018   4.019   2.913  0.6643 -0.4959  0.6283
 4518TIP3    H135045   4.040   3.987   3.000 -1.1085 -2.4758  0.4268
 4518TIP3    H235046   3.953   4.087   2.928  1.8213  0.5938  0.8934
 4519TIP3   OH235047   5.984   6.596   3.224  0.4829 -0.7596  0.5039
 4519TIP3    H135048   5.944   6.652   3.158  1.4714  1.4952  1.7374
 4519TIP3    H235049   5.918   6.528   3.241 -0.3070 -0.6545 -1.7995
 4520TIP3   OH235050   0.998   4.557  13.882  0.4812  0.4693  0.1931
 4520TIP3    H135051   0.982   4.489  13.816  0.4387  1.1821 -0.5490
 4520TIP3    H235052   0.938   4.535  13.953  0.1227 -0.0023 -0.2420
 4521TIP3   OH235053   4.076   2.462  12.521  0.2737 -0.1220 -0.0486
 4521TIP3    H135054   4.014   2.442  12.591 -0.2929  0.5844 -0.3346
 4521TIP3    H235055   4.035   2.425  12.442 -1.8911  3.7374 -1.0155
 4522TIP3   OH235056   6.353   2.373   5.505  1.1025 -0.0045  0.1900
 4522TIP3    H135057   6.358   2.412   5.418 -1.6200 -0.0356 -0.0661
 4522TIP3    H235058   6.347   2.448   5.565 -1.7388  0.1228 -0.1139
 4523TIP3   OH235059   3.653   0.664   5.651 -0.0217  0.2710 -0.7361
 4523TIP3    H135060   3.735   0.709   5.670  0.3566  0.3343 -2.3648
 4523TIP3    H235061   3.658   0.583   5.703 -0.9891  2.2329  2.7272
 4524TIP3   OH235062   1.819   5.168  12.008 -0.5201  0.1344  0.4540
 4524TIP3    H135063   1.827   5.160  11.913 -0.3684  0.3782  0.4460
 4524TIP3    H235064   1.866   5.092  12.042 -3.3160 -1.8615  0.2786
 4525TIP3   OH235065   3.542   3.986   3.550  0.9248 -0.0865 -0.6233
 4525TIP3    H135066   3.461   3.935   3.551  0.6958  0.0582 -3.7698
 4525TIP3    H235067   3.602   3.935   3.495  2.6042  0.3952  0.6751
 4526TIP3   OH235068   4.355   3.910   5.737  0.2233  0.5821  0.2795
 4526TIP3    H135069   4.278   3.855   5.725  0.1015  0.9369 -0.6103
 4526TIP3    H235070   4.321   3.994   5.767  0.0328  1.4723 -2.2590
 4527TIP3   OH235071   2.114   3.488   1.102  0.1264 -0.3743  0.3533
 4527TIP3    H135072   2.165   3.567   1.120 -1.0022  1.3408 -3.1743
 4527TIP3    H235073   2.044   3.490   1.166  0.7065  0.9035  0.9913
 4528TIP3   OH235074   4.793   3.192   0.451  0.4452 -0.0597  0.0476
 4528TIP3    H135075   4.706   3.206   0.413 -0.5481  0.2890  2.3176
 4528TIP3    H235076   4.853   3.213   0.379 -1.3081  0.5844 -1.3270
 4529TIP3   OH235077   1.704   5.241  16.884  0.7430 -0.2305  0.0320
 4529TIP3    H135078   1.655   5.184  16.944  0.8812  0.2785  0.6375
 4529TIP3    H235079   1.793   5.206  16.886  0.7691 -0.1567  0.2024
 4530TIP3   OH235080   4.943   3.264   3.519 -0.5514 -0.7349  0.2787
 4530TIP3    H135081   5.013   3.224   3.467 -0.8829 -0.2701 -0.5486
 4530TIP3    H235082   4.865   3.215   3.497 -1.1790  0.9426 -1.5674
 4531TIP3   OH235083   5.788   0.321   1.434 -0.1313 -0.3177  0.4172
 4531TIP3    H135084   5.850   0.282   1.372 -1.3162  0.7063 -1.4662
 4531TIP3    H235085   5.798   0.415   1.424  0.7156 -0.0476  2.9367
 4532TIP3   OH235086   5.996   1.828  12.511  0.0112 -0.4237 -0.5096
 4532TIP3    H135087   5.914   1.825  12.560  0.4949  0.3737  0.3888
 4532TIP3    H235088   6.024   1.737  12.506 -0.7856 -0.6691 -0.5840
 4533TIP3   OH235089   5.555   5.738  17.054  0.0667 -0.4774 -0.1764
 4533TIP3    H135090   5.617   5.679  17.011  0.0695  0.9423 -2.2677
 4533TIP3    H235091   5.593   5.754  17.141  1.8402 -0.8282 -0.8486
 4534TIP3   OH235092   5.480   5.987   3.191 -0.4361 -0.2279 -0.0793
 4534TIP3    H135093   5.553   5.982   3.128 -0.5807  2.7423 -0.6460
 4534TIP3    H235094   5.523   5.993   3.276  0.0071  0.8595 -0.3575
 4535TIP3   OH235095   2.929   4.471   0.410  0.0941 -0.2364 -0.1458
 4535TIP3    H135096   2.856   4.476   0.471 -0.5419  0.7041 -0.9653
 4535TIP3    H235097   3.007   4.476   0.466 -0.4331 -1.4011  0.7460
 4536TIP3   OH235098   0.684   1.259  12.250  0.5591  0.2323 -0.2435
 4536TIP3    H135099   0.607   1.204  12.252  0.7314 -0.0048  1.2562
 4536TIP3    H235100   0.664   1.332  12.310  0.8205  1.1224 -1.2042
 4537TIP3   OH235101   6.801   6.291  11.780  0.1242  0.3509 -0.1151
 4537TIP3    H135102   6.712   6.278  11.813 -0.3247  3.8064  0.3836
 4537TIP3    H235103   6.789   6.312  11.688  0.6627 -1.1107 -0.5480
 4538TIP3   OH235104   1.482   6.693  10.836 -0.0828  0.4044 -0.4028
 4538TIP3    H135105   1.486   6.789  10.831 -1.7337  0.5775  0.6873
 4538TIP3    H235106   1.391   6.672  10.813  0.3184 -0.9200 -0.8330
 4539TIP3   OH235107   6.802   5.059   0.384 -0.0685  0.3896 -0.6044
 4539TIP3    H135108   6.727   4.999   0.381  0.4096 -0.4205  1.8815
 4539TIP3    H235109   6.819   5.072   0.477  3.2985  0.0311 -1.0566
 4540TIP3   OH235110   3.975   3.328   4.219  0.0765  0.3886  0.0194
 4540TIP3    H135111   3.907   3.340   4.153  0.4295 -0.0559 -0.4303
 4540TIP3    H235112   4.001   3.236   4.211  0.2622  0.3851  0.6386
 4541TIP3   OH235113   2.863   2.788  13.907  0.6562 -0.3721 -0.1340
 4541TIP3    H135114   2.950   2.823  13.924  0.1134  1.5146 -0.9767
 4541TIP3    H235115   2.874   2.733  13.830  1.2552 -0.9666  0.3548
 4542TIP3   OH235116   2.945   2.873   2.891 -0.3664 -0.1782  0.6652
 4542TIP3    H135117   2.887   2.899   2.962 -0.8863 -0.9449  0.5414
 4542TIP3    H235118   2.953   2.778   2.901  0.0345 -0.2135  0.0510
 4543TIP3   OH235119   2.184   0.999   4.953 -0.4605  0.6457  1.1284
 4543TIP3    H135120   2.274   1.001   4.985  0.1085  0.5465 -0.3802
 4543TIP3    H235121   2.142   0.929   5.002  0.4223  0.3796  1.5249
 4544TIP3   OH235122   5.495   6.077  15.576 -0.4096  0.1737  0.1383
 4544TIP3    H135123   5.542   6.120  15.647  0.4781 -1.7214  0.7653
 4544TIP3    H235124   5.487   6.145  15.509  2.4389  0.8823  0.3687
 4545TIP3   OH235125   5.055   1.319   2.956  0.1475  0.1321  0.2503
 4545TIP3    H135126   5.087   1.409   2.966  0.4457  0.0381  0.1366
 4545TIP3    H235127   4.973   1.317   3.006 -0.6654  0.9041 -1.0095
 4546TIP3   OH235128   3.297   5.604   1.286 -0.1642  0.1404 -0.3908
 4546TIP3    H135129   3.310   5.691   1.324 -1.0020  0.6417 -1.1921
 4546TIP3    H235130   3.216   5.572   1.326 -1.2207  0.8028 -1.9201
 4547TIP3   OH235131   6.753   1.066   0.592 -0.5992 -0.3766 -0.0457
 4547TIP3    H135132   6.842   1.031   0.597 -0.9761 -1.4422 -0.6891
 4547TIP3    H235133   6.755   1.124   0.515 -0.2548  0.2661  0.4289
 4548TIP3   OH235134   3.548   4.510  14.736  0.3772  0.0571  0.3221
 4548TIP3    H135135   3.583   4.497  14.824  1.0882 -1.0299 -0.0991
 4548TIP3    H235136   3.462   4.469  14.737  0.4825 -0.1582  0.4422
 4549TIP3   OH235137   0.759   2.292   2.633  0.7479  0.3195 -0.1645
 4549TIP3    H135138   0.722   2.287   2.545  1.1241  1.9119 -0.4310
 4549TIP3    H235139   0.745   2.204   2.670 -2.5094  0.5791 -0.5282
 4550TIP3   OH235140   4.899   5.376   3.466 -0.4236  0.2475  0.0006
 4550TIP3    H135141   4.933   5.376   3.376  1.5407 -0.8263  0.6778
 4550TIP3    H235142   4.967   5.330   3.517 -3.0662 -2.4132  1.4432
 4551TIP3   OH235143   6.653   0.859  17.177  0.5744  0.3749 -0.3246
 4551TIP3    H135144   6.636   0.952  17.197 -0.1244 -0.0352  1.1241
 4551TIP3    H235145   6.717   0.832  17.243 -1.0760 -0.7802  0.8921
 4552TIP3   OH235146   1.886   4.877   3.868  0.0534 -0.6087  0.2418
 4552TIP3    H135147   1.922   4.815   3.805  1.4233  0.9014 -0.5238
 4552TIP3    H235148   1.840   4.942   3.814  1.1661  0.6498  0.7652
 4553TIP3   OH235149   2.795   2.404   5.870  0.1182 -0.0799 -0.5657
 4553TIP3    H135150   2.865   2.428   5.810 -0.0888  1.8971 -0.0996
 4553TIP3    H235151   2.732   2.476   5.863 -0.7393 -0.6596  0.7319
 4554TIP3   OH235152   1.877   6.796  12.509  0.4879 -1.1319 -0.0205
 4554TIP3    H135153   1.795   6.844  12.495  2.0645  1.3052 -1.8205
 4554TIP3    H235154   1.892   6.751  12.426  1.4652 -0.6762 -0.1074
 4555TIP3   OH235155   0.400   0.494  16.307  0.5624 -0.2007 -0.3742
 4555TIP3    H135156   0.394   0.581  16.267  0.6756  0.3621  0.7837
 4555TIP3    H235157   0.439   0.510  16.393  0.9871 -1.4560 -0.3088
 4556TIP3   OH235158   5.894   0.919   4.763  0.0130  0.0481 -0.3287
 4556TIP3    H135159   5.872   0.843   4.817  2.1280  0.8176  1.8428
 4556TIP3    H235160   5.813   0.970   4.758 -0.8824 -1.2992 -0.0376
 4557TIP3   OH235161   3.527   2.477  13.318 -0.0224 -0.4693 -0.5256
 4557TIP3    H135162   3.619   2.454  13.308 -0.6334 -2.1430 -3.2716
 4557TIP3    H235163   3.505   2.525  13.237 -1.3689  0.7663  0.5124
 4558TIP3   OH235164   1.837   2.169  10.764  0.5954 -0.6285  0.3824
 4558TIP3    H135165   1.835   2.217  10.681  0.0406  1.1748  1.3717
 4558TIP3    H235166   1.755   2.120  10.766  0.5973 -0.6533 -0.1210
 4559TIP3   OH235167   0.820   4.899   1.074  0.0830 -0.4701  0.0452
 4559TIP3    H135168   0.838   4.825   1.132  2.0095  0.4112  0.6555
 4559TIP3    H235169   0.871   4.971   1.111 -0.6525  0.7884 -1.3212
 4560TIP3   OH235170   6.779   6.382   3.492  0.0395 -0.0281 -0.5300
 4560TIP3    H135171   6.849   6.384   3.558  1.0227 -0.8227 -1.5091
 4560TIP3    H235172   6.699   6.395   3.542  0.4871 -3.0252  1.2526
 4561TIP3   OH235173   1.399   3.867   0.966  0.1963 -0.1150  0.1213
 4561TIP3    H135174   1.326   3.837   0.912 -0.2782 -2.4915  1.9370
 4561TIP3    H235175   1.359   3.899   1.046  0.9775  2.1152 -0.3054
 4562TIP3   OH235176   3.872   3.511   3.672 -0.3001  0.1207 -0.5783
 4562TIP3    H135177   3.907   3.542   3.588 -1.7877  2.1402 -0.5361
 4562TIP3    H235178   3.797   3.457   3.647  0.4935 -1.0171 -0.5680
 4563TIP3   OH235179   2.693   1.132   5.091  0.2630  0.0592  0.3668
 4563TIP3    H135180   2.629   1.156   5.158  0.2851 -2.0579  1.2149
 4563TIP3    H235181   2.696   1.209   5.033 -2.9892  0.3172  0.3065
 4564TIP3   OH235182   0.198   0.294   2.676  0.3542 -0.4391  0.4185
 4564TIP3    H135183   0.215   0.308   2.769  0.7876  0.4513  0.2232
 4564TIP3    H235184   0.228   0.205   2.658  0.3935 -0.5661  1.0998
 4565TIP3   OH235185   0.467   3.722   3.880 -0.4661  0.0269  0.3234
 4565TIP3    H135186   0.520   3.802   3.882  1.0034 -0.8762 -0.6047
 4565TIP3    H235187   0.438   3.710   3.970  0.9558  0.5474  0.8764
 4566TIP3   OH235188   4.789   0.165   4.752 -0.4892 -0.3438 -0.4644
 4566TIP3    H135189   4.837   0.160   4.669  0.2534  1.8764 -0.2295
 4566TIP3    H235190   4.857   0.177   4.818 -1.1537 -0.9393  0.3350
 4567TIP3   OH235191   1.383   5.367  14.114  0.1639 -0.0916  0.9314
 4567TIP3    H135192   1.405   5.458  14.096  1.7268 -0.5016  0.5737
 4567TIP3    H235193   1.455   5.335  14.169  0.0653 -1.3120  0.3966
 4568TIP3   OH235194   5.689   3.799   3.610 -0.4499  0.8376 -0.0185
 4568TIP3    H135195   5.597   3.793   3.587 -0.3762  0.2779 -0.1943
 4568TIP3    H235196   5.691   3.853   3.689 -1.0409 -0.0233  0.6153
 4569TIP3   OH235197   1.017   2.091  13.756  0.4048  0.5830  0.2400
 4569TIP3    H135198   0.929   2.112  13.724 -0.7228  0.4829  3.0297
 4569TIP3    H235199   1.066   2.173  13.748  0.0120  0.7064 -1.0795
 4570TIP3   OH235200   3.739   3.501  11.050  0.0702  0.2014  1.0185
 4570TIP3    H135201   3.770   3.424  11.001 -0.3886  1.3391 -1.1598
 4570TIP3    H235202   3.654   3.474  11.086  0.6818 -0.8494  1.7193
 4571TIP3   OH235203   5.104   0.299   4.054  0.3002 -0.3694  0.1112
 4571TIP3    H135204   5.182   0.341   4.091 -0.2749  0.8115  0.0160
 4571TIP3    H235205   5.087   0.347   3.973  0.3059 -1.5598 -0.6180
 4572TIP3   OH235206   3.709   1.079   4.157 -0.3349 -0.0201  1.0426
 4572TIP3    H135207   3.709   1.124   4.242 -2.0498 -1.0647  1.6418
 4572TIP3    H235208   3.688   0.988   4.179  2.1513 -1.0024 -0.2281
 4573TIP3   OH235209   4.020   2.532  16.206  0.4220  0.7673 -0.8793
 4573TIP3    H135210   4.008   2.438  16.223 -1.1159  1.3892  2.1359
 4573TIP3    H235211   3.944   2.556  16.153 -1.4207  0.9206  1.6171
 4574TIP3   OH235212   3.306   2.447  17.300  0.0129  0.0114  0.3574
 4574TIP3    H135213   3.229   2.416  17.252 -1.8802  1.7387  2.1108
 4574TIP3    H235214   3.342   2.368  17.340 -1.4550 -0.7088  0.3354
 4575TIP3   OH235215   2.838   3.832   2.876  0.1282 -0.3404 -0.0762
 4575TIP3    H135216   2.905   3.767   2.895  0.7453  0.0128 -0.9517
 4575TIP3    H235217   2.836   3.837   2.780 -0.6492  0.1709 -0.0454
 4576TIP3   OH235218   1.210   3.839   5.660  0.0836 -0.1343  0.4396
 4576TIP3    H135219   1.134   3.785   5.638 -0.9821  0.9378  1.3997
 4576TIP3    H235220   1.263   3.783   5.717  0.2409 -1.0320 -0.5642
 4577TIP3   OH235221   6.411   2.266  17.274  0.2926  0.3116 -0.4771
 4577TIP3    H135222   6.341   2.281  17.210  0.2540 -0.2246 -0.5693
 4577TIP3    H235223   6.482   2.227  17.223  0.3755  0.1628 -0.2478
 4578TIP3   OH235224   3.210   6.224  11.849  0.6136 -0.2222  0.2742
 4578TIP3    H135225   3.148   6.249  11.781  1.2679 -0.3787 -0.3931
 4578TIP3    H235226   3.157   6.215  11.928 -0.5837 -2.3918 -0.6951
 4579TIP3   OH235227   3.863   3.003   0.392  0.2520 -0.2039 -0.0409
 4579TIP3    H135228   3.802   3.009   0.465  0.0648  1.3754 -0.2967
 4579TIP3    H235229   3.948   3.026   0.429  0.5430 -1.4292  0.0990
 4580TIP3   OH235230   1.199   0.884   4.492 -0.2290  0.3372 -0.4762
 4580TIP3    H135231   1.218   0.906   4.400  0.3715  0.5167 -0.3108
 4580TIP3    H235232   1.160   0.796   4.487 -2.7770  1.4004 -1.1475
 4581TIP3   OH235233   4.080   5.096   2.934  0.2455  0.5959 -0.2128
 4581TIP3    H135234   3.994   5.056   2.927 -0.4901  2.2260 -0.9405
 4581TIP3    H235235   4.077   5.146   3.015  0.5525  0.5876 -0.1950
 4582TIP3   OH235236   2.435   1.973  11.404 -0.1010  0.0922  0.0407
 4582TIP3    H135237   2.504   1.912  11.431 -1.6137 -2.3529 -1.2186
 4582TIP3    H235238   2.355   1.920  11.405 -1.6014  2.1898 -0.8120
 4583TIP3   OH235239   5.875   0.874  10.651 -0.1479 -0.1076  0.2381
 4583TIP3    H135240   5.931   0.871  10.574  0.6155  1.7416  0.6553
 4583TIP3    H235241   5.914   0.811  10.711  1.4051  0.9427  0.4174
 4584TIP3   OH235242   6.370   1.526  16.672  0.0669  0.0730  0.0337
 4584TIP3    H135243   6.289   1.523  16.621 -0.2398 -0.8346  0.5497
 4584TIP3    H235244   6.341   1.537  16.762  0.5521  0.4921  0.1397
 4585TIP3   OH235245   6.772   5.626  15.170  0.3250  0.9389  1.4051
 4585TIP3    H135246   6.859   5.602  15.203  0.6993  1.2323  0.6621
 4585TIP3    H235247   6.789   5.700  15.112 -0.5670  1.7453  2.1411
 4586TIP3   OH235248   3.471   5.098   2.903  0.3812  0.0015 -0.1104
 4586TIP3    H135249   3.451   5.033   2.836  2.8220 -0.6588 -0.2981
 4586TIP3    H235250   3.552   5.140   2.872  0.2419  1.3692  1.2518
 4587TIP3   OH235251   1.964   2.848   4.585 -0.3945  0.5266 -0.2338
 4587TIP3    H135252   2.026   2.890   4.645  0.3370 -0.1201 -0.5218
 4587TIP3    H235253   1.961   2.906   4.509  0.9582 -0.1323 -0.8221
 4588TIP3   OH235254   0.119   0.827  11.315  0.0589 -0.7364 -0.1299
 4588TIP3    H135255   0.031   0.851  11.285 -1.5457 -2.6779  2.6222
 4588TIP3    H235256   0.137   0.744  11.272  0.2287 -0.7234 -0.0855
 4589TIP3   OH235257   6.548   0.723   0.952 -0.1523 -0.4529  0.4366
 4589TIP3    H135258   6.515   0.642   0.914 -0.9730 -0.1231  0.4370
 4589TIP3    H235259   6.568   0.779   0.877  0.4006 -0.6354  0.4369
 4590TIP3   OH235260   5.451   4.492   2.409 -0.0997  0.3735  0.1323
 4590TIP3    H135261   5.481   4.471   2.498  0.2434  0.9117  0.1529
 4590TIP3    H235262   5.425   4.408   2.372  0.3666  0.0510  0.5210
 4591TIP3   OH235263   0.460   0.248  10.649  0.0112  0.3277  0.2086
 4591TIP3    H135264   0.410   0.329  10.639 -0.0620  0.2935  0.3038
 4591TIP3    H235265   0.490   0.249  10.740  2.4536  1.6772 -0.5009
 4592TIP3   OH235266   4.165   2.116  11.188 -0.4394  0.7869 -0.3511
 4592TIP3    H135267   4.255   2.138  11.214  0.6797 -1.6577 -1.8069
 4592TIP3    H235268   4.111   2.144  11.262  1.5788  1.7384  0.8471
 4593TIP3   OH235269   0.739   5.575  16.398  0.0503 -0.4381  0.2001
 4593TIP3    H135270   0.789   5.648  16.362  1.3542 -0.5994  1.5981
 4593TIP3    H235271   0.798   5.500  16.395 -1.5887 -1.7591 -2.1170
 4594TIP3   OH235272   4.150   5.730   3.595 -0.4930  0.3522 -0.4064
 4594TIP3    H135273   4.152   5.824   3.580  0.4448  0.8038  2.1068
 4594TIP3    H235274   4.167   5.692   3.509  0.3386  2.4961 -1.2623
 4595TIP3   OH235275   6.783   1.365   3.748  0.1093 -0.4577 -0.1127
 4595TIP3    H135276   6.864   1.337   3.705 -0.4399 -3.4079  0.5552
 4595TIP3    H235277   6.782   1.317   3.831 -1.7618  0.4516  0.4512
 4596TIP3   OH235278   4.293   6.037   0.313  0.3868 -0.4039  0.2260
 4596TIP3    H135279   4.248   5.997   0.387 -0.0590  0.5261  0.4811
 4596TIP3    H235280   4.322   5.964   0.260 -3.8023 -1.1746 -1.3996
 4597TIP3   OH235281   1.350   0.358  16.908  0.5505 -0.5363 -0.2730
 4597TIP3    H135282   1.389   0.427  16.964 -1.4207  0.6021 -0.2079
 4597TIP3    H235283   1.425   0.318  16.864  1.8692  0.9179  0.5326
 4598TIP3   OH235284   0.227   4.089  14.367 -0.4121 -0.4068 -0.3055
 4598TIP3    H135285   0.260   4.037  14.440 -1.5023 -0.5939  0.0702
 4598TIP3    H235286   0.219   4.027  14.295 -3.4053 -1.2556  0.6252
 4599TIP3   OH235287   3.890   4.274   4.470  0.1450 -0.0817  0.3152
 4599TIP3    H135288   3.927   4.187   4.460  1.3929  0.1781  2.1679
 4599TIP3    H235289   3.965   4.333   4.461 -0.6433  0.8063 -0.6902
 4600TIP3   OH235290   2.744   4.345  12.253 -0.4532 -0.5005 -0.3318
 4600TIP3    H135291   2.786   4.428  12.228  0.0484 -0.6112  0.1386
 4600TIP3    H235292   2.673   4.372  12.312  0.1575 -0.4432  0.4003
 4601TIP3   OH235293   5.715   4.616  11.745 -0.0298  0.1742  0.2423
 4601TIP3    H135294   5.678   4.643  11.829 -0.1397  0.2912  0.1582
 4601TIP3    H235295   5.726   4.699  11.697  1.6392  0.3163  0.7777
 4602TIP3   OH235296   6.014   0.039   4.517 -0.1843 -0.1088  0.4371
 4602TIP3    H135297   6.031  -0.036   4.574  1.0276  0.0373  0.2907
 4602TIP3    H235298   6.074   0.027   4.443  0.1210  1.0664  0.4771
 4603TIP3   OH235299   4.748   2.842  13.834  0.2907 -0.4573 -0.0525
 4603TIP3    H135300   4.738   2.839  13.739 -1.8412 -1.3587  0.1593
 4603TIP3    H235301   4.707   2.925  13.860 -2.5071 -1.8342  0.3388
 4604TIP3   OH235302   1.759   0.952  17.043  0.4082 -0.1701  0.1738
 4604TIP3    H135303   1.832   0.914  16.994  0.1493 -0.1513 -0.2377
 4604TIP3    H235304   1.685   0.945  16.983 -0.2099 -1.3269  1.0384
 4605TIP3   OH235305   5.154   0.384   4.695  0.0775 -0.1141 -0.1222
 4605TIP3    H135306   5.132   0.450   4.761  1.8186 -1.9385  2.4682
 4605TIP3    H235307   5.076   0.328   4.691  0.6823 -1.2460  2.1460
 4606TIP3   OH235308   3.227   0.905  12.364  0.5065 -0.5053  0.4952
 4606TIP3    H135309   3.239   0.938  12.453  3.2718 -1.1198  0.4460
 4606TIP3    H235310   3.286   0.958  12.311 -0.9009 -0.3280 -0.9630
 4607TIP3   OH235311   1.694   0.120  16.970 -0.2157  0.2357  0.6664
 4607TIP3    H135312   1.698   0.064  17.047  1.8484 -0.9066 -0.2076
 4607TIP3    H235313   1.769   0.179  16.979 -0.6903  0.9399  0.1379
 4608TIP3   OH235314   2.178   2.788   1.294  0.1259  0.6188 -0.3717
 4608TIP3    H135315   2.186   2.884   1.302  0.5830  0.5936 -0.4961
 4608TIP3    H235316   2.084   2.773   1.290  0.0613  1.2132 -2.0468
 4609TIP3   OH235317   5.346   4.596   3.541 -0.1200 -0.5588 -0.0063
 4609TIP3    H135318   5.320   4.562   3.627 -1.6564 -2.2319 -1.0422
 4609TIP3    H235319   5.392   4.523   3.500  0.5952  0.2198 -0.6190
 4610TIP3   OH235320   4.948   1.606   3.583 -0.2338 -0.1900 -0.2428
 4610TIP3    H135321   4.889   1.579   3.654 -0.4506  0.0485 -0.3315
 4610TIP3    H235322   5.021   1.545   3.589  0.2476  0.4648  0.8488
 4611TIP3   OH235323   5.005   0.592   3.626  0.9808 -0.6917 -0.3278
 4611TIP3    H135324   4.944   0.645   3.677 -0.9379 -2.4995 -0.6111
 4611TIP3    H235325   5.022   0.644   3.547  0.0476 -0.0130 -0.0985
 4612TIP3   OH235326   1.573   1.164   3.473  0.1886 -0.4162  0.5790
 4612TIP3    H135327   1.565   1.146   3.379 -1.7971 -0.0917  0.6452
 4612TIP3    H235328   1.630   1.094   3.506 -0.5187 -1.5777 -0.5735
 4613TIP3   OH235329   3.774   5.057   3.835 -0.5864 -0.3742 -0.1550
 4613TIP3    H135330   3.754   5.096   3.750 -0.6107  0.1872  0.1037
 4613TIP3    H235331   3.733   5.116   3.899 -1.8758 -1.5901  0.1952
 4614TIP3   OH235332   0.445   2.627   1.832 -0.9407 -0.2014  0.1078
 4614TIP3    H135333   0.419   2.652   1.920 -0.0043  0.2814  0.2501
 4614TIP3    H235334   0.477   2.707   1.791  0.6279 -0.8243  0.0527
 4615TIP3   OH235335   0.700   3.799   3.460 -0.2828  0.1737 -0.0114
 4615TIP3    H135336   0.724   3.878   3.507 -0.4671  1.2958 -1.7048
 4615TIP3    H235337   0.607   3.808   3.442  0.0585  0.5350 -1.8419
 4616TIP3   OH235338   0.130   6.667  12.647 -0.3654  0.6341 -0.0262
 4616TIP3    H135339   0.108   6.760  12.653 -1.6348  0.3268  0.3631
 4616TIP3    H235340   0.185   6.660  12.569  0.4566  1.8349  0.4142
 4617TIP3   OH235341   3.816   4.245  10.647  0.6183 -0.0509  0.0727
 4617TIP3    H135342   3.852   4.163  10.679  0.8461  0.5814  1.5364
 4617TIP3    H235343   3.747   4.219  10.586 -0.6391 -1.3960  1.9362
 4618TIP3   OH235344   2.363   5.068   3.518  0.2520 -0.8045 -0.3416
 4618TIP3    H135345   2.442   5.120   3.506  0.0121  0.0988  1.6016
 4618TIP3    H235346   2.394   4.988   3.560  0.1900 -0.5444  0.2168
 4619TIP3   OH235347   4.920   4.023  17.039 -0.0207 -0.3165  0.1489
 4619TIP3    H135348   4.840   4.019  16.987 -0.3641  0.0366  0.6404
 4619TIP3    H235349   4.898   4.081  17.113  0.9453  0.5056 -0.1773
 4620TIP3   OH235350   2.423   3.565   2.255 -0.1162  0.1203 -0.4831
 4620TIP3    H135351   2.367   3.489   2.237  2.3060 -2.2510  1.1729
 4620TIP3    H235352   2.476   3.575   2.175 -0.8706  0.5098 -0.9438
 4621TIP3   OH235353   6.568   2.558   3.106 -0.2110  0.1365  0.1737
 4621TIP3    H135354   6.472   2.559   3.098 -0.3939  2.0669  1.8603
 4621TIP3    H235355   6.598   2.614   3.034 -0.4588  0.7404  0.5323
 4622TIP3   OH235356   2.754   0.814  12.713 -0.4063  0.2670  0.0755
 4622TIP3    H135357   2.775   0.726  12.683  0.4880  0.8947 -1.2410
 4622TIP3    H235358   2.812   0.830  12.787 -1.7701 -0.8466  1.4521
 4623TIP3   OH235359   4.130   5.339  16.999 -0.1449  0.7115  0.4684
 4623TIP3    H135360   4.126   5.243  16.999  3.5786  0.3938  1.4494
 4623TIP3    H235361   4.137   5.363  16.907 -2.3398  0.2458  0.1150
 4624TIP3   OH235362   2.444   1.924  15.824  0.4540 -0.4343 -0.1877
 4624TIP3    H135363   2.431   1.872  15.903  1.4134  1.5673  1.3693
 4624TIP3    H235364   2.539   1.930  15.815  0.3908  1.5730  0.0930
 4625TIP3   OH235365   5.038   3.385  14.902 -0.6529  0.8090 -0.3949
 4625TIP3    H135366   4.980   3.319  14.939 -0.9477  0.3351 -1.6449
 4625TIP3    H235367   5.078   3.341  14.827  2.1647  0.7307  1.0198
 4626TIP3   OH235368   6.033   5.719  11.494  0.1454 -0.3498 -0.8562
 4626TIP3    H135369   6.038   5.788  11.561 -0.2528  0.5571 -1.7446
 4626TIP3    H235370   6.120   5.716  11.456  0.5951 -1.4058  0.2133
 4627TIP3   OH235371   4.000   4.832   1.812  0.5774 -0.2343  0.3465
 4627TIP3    H135372   3.968   4.921   1.829  0.8631 -0.2279  0.8664
 4627TIP3    H235373   4.079   4.845   1.760 -1.2029 -0.3057 -2.5778
 4628TIP3   OH235374   4.337   4.754  15.673  0.2980 -0.4257  0.3803
 4628TIP3    H135375   4.352   4.662  15.651  1.1657  0.2838 -2.3792
 4628TIP3    H235376   4.422   4.785  15.704  1.2375  0.3765 -2.6884
 4629TIP3   OH235377   1.689   2.712  14.610 -0.8266  0.3528  0.0969
 4629TIP3    H135378   1.630   2.647  14.572 -0.8674  0.5863 -0.2466
 4629TIP3    H235379   1.751   2.661  14.661 -1.0098  0.0620  0.0324
 4630TIP3   OH235380   3.743   4.060  13.642  0.1765  0.2789  0.1767
 4630TIP3    H135381   3.814   4.017  13.690  1.0578  1.6066  0.1163
 4630TIP3    H235382   3.663   4.024  13.680  0.8685 -0.2635  1.1718
 4631TIP3   OH235383   5.976   4.777   3.724 -0.4776 -0.1453 -0.2522
 4631TIP3    H135384   5.937   4.833   3.657  0.7089  0.4282 -0.4798
 4631TIP3    H235385   6.038   4.834   3.770  2.3205 -1.6942 -1.8193
 4632TIP3   OH235386   5.982   1.656   4.538 -0.5153  0.0565 -0.4536
 4632TIP3    H135387   5.898   1.661   4.584 -0.4126  1.0929 -0.3614
 4632TIP3    H235388   5.988   1.738   4.490  1.3938  0.9674  1.1829
 4633TIP3   OH235389   5.770   3.714   0.563  0.1108  0.2402 -0.4561
 4633TIP3    H135390   5.690   3.714   0.510  0.4587  0.8781 -1.0091
 4633TIP3    H235391   5.837   3.676   0.506  0.3896  0.4991 -0.3064
 4634TIP3   OH235392   1.563   5.743   2.233  0.4495  0.2374 -0.2362
 4634TIP3    H135393   1.528   5.829   2.211  0.2518  0.3757  0.6009
 4634TIP3    H235394   1.486   5.688   2.248  0.5596 -0.2676 -1.3944
 4635TIP3   OH235395   3.906   2.329   2.483 -0.3377  0.1679  0.2476
 4635TIP3    H135396   3.868   2.317   2.570  1.6387 -0.2596  1.1083
 4635TIP3    H235397   3.923   2.240   2.452 -1.4185  0.2998 -0.7926
 4636TIP3   OH235398   5.135   1.514   6.100  0.8750  1.2009  0.5698
 4636TIP3    H135399   5.060   1.466   6.066 -0.0814  2.5666  0.6435
 4636TIP3    H235400   5.138   1.490   6.193 -0.1107  1.8647  0.7991
 4637TIP3   OH235401   1.684   5.223  14.811  0.1275 -0.5790 -0.4356
 4637TIP3    H135402   1.736   5.302  14.824 -0.5843  0.2293 -2.1355
 4637TIP3    H235403   1.675   5.185  14.898  0.3569  1.3041  0.4581
 4638TIP3   OH235404   2.098   1.074   4.640 -0.2256  0.0248  0.1312
 4638TIP3    H135405   2.190   1.087   4.616  0.1179 -0.0664  1.2976
 4638TIP3    H235406   2.072   1.156   4.682 -0.2833 -0.3796  0.9130
 4639TIP3   OH235407   0.783   4.125  15.556 -0.2732  0.4473  0.5777
 4639TIP3    H135408   0.700   4.156  15.594 -0.0490  0.2137  1.2728
 4639TIP3    H235409   0.824   4.075  15.626 -0.2259 -0.7070 -0.2588
 4640TIP3   OH235410   1.956   6.622  14.085 -0.1925 -0.0961  0.1702
 4640TIP3    H135411   1.895   6.567  14.037 -1.2231 -0.9397  2.3381
 4640TIP3    H235412   1.976   6.573  14.165 -0.0062  2.0223  1.5052
 4641TIP3   OH235413   3.215   3.927  15.710 -0.3675  0.0508 -0.1575
 4641TIP3    H135414   3.214   3.834  15.686 -0.0689  0.0219 -0.0531
 4641TIP3    H235415   3.284   3.934  15.775 -1.7856 -0.0528  1.4293
 4642TIP3   OH235416   0.960   1.473  13.342 -0.5391  0.2918 -0.6940
 4642TIP3    H135417   1.002   1.431  13.267  0.8186 -0.9131  0.6702
 4642TIP3    H235418   1.029   1.528  13.380 -1.7616  2.4243 -1.3663
 4643TIP3   OH235419   6.483   3.921  13.540  0.0883 -0.9289  0.0277
 4643TIP3    H135420   6.513   3.910  13.450  1.7749 -0.2998  0.4720
 4643TIP3    H235421   6.397   3.962  13.532 -0.4890 -2.3172 -1.3081
 4644TIP3   OH235422   2.064   4.888  16.034 -0.2880 -0.1687 -0.0707
 4644TIP3    H135423   2.104   4.893  16.120  0.6148 -1.0668 -0.4284
 4644TIP3    H235424   2.003   4.962  16.032 -0.7907 -0.4992  1.5609
 4645TIP3   OH235425   3.628   0.507  14.477 -0.4634  0.3897 -0.2976
 4645TIP3    H135426   3.631   0.459  14.394  1.7826  0.1986 -0.1736
 4645TIP3    H235427   3.629   0.599  14.452  2.6189  0.3764 -0.5663
 4646TIP3   OH235428   1.776   2.699   0.935  0.3689  0.1202  0.6346
 4646TIP3    H135429   1.801   2.784   0.971  2.0070 -0.7251  1.6763
 4646TIP3    H235430   1.820   2.636   0.993 -2.5201 -1.5187  1.2184
 4647TIP3   OH235431   5.326   3.628  12.150  0.1377  0.3910  0.5139
 4647TIP3    H135432   5.338   3.704  12.093  0.0273  1.0763  1.3847
 4647TIP3    H235433   5.386   3.643  12.223 -1.4359  0.7341  1.7766
 4648TIP3   OH235434   3.208   3.676   3.791  0.1206  0.1453  0.1758
 4648TIP3    H135435   3.234   3.756   3.746  0.1905 -1.2868 -2.5238
 4648TIP3    H235436   3.113   3.670   3.777  0.1574 -0.3548  0.0974
 4649TIP3   OH235437   4.773   5.993   4.293 -0.7747 -0.1602  0.2087
 4649TIP3    H135438   4.716   5.915   4.287 -0.2630 -0.4997 -0.3437
 4649TIP3    H235439   4.785   6.006   4.387 -1.7839 -0.0701  0.3420
 4650TIP3   OH235440   0.016   3.246   0.584 -0.3959  0.0094 -0.1574
 4650TIP3    H135441  -0.010   3.338   0.589 -0.1964  0.0498  0.1102
 4650TIP3    H235442  -0.011   3.208   0.668  1.4834  0.3243  0.6322
 4651TIP3   OH235443   6.504   5.420   1.228  0.0079 -0.0981  0.1804
 4651TIP3    H135444   6.514   5.325   1.236 -1.0116 -0.2416 -0.1570
 4651TIP3    H235445   6.556   5.455   1.301 -1.4233 -1.0078  1.7039
 4652TIP3   OH235446   0.960   1.299   5.522 -0.0401 -0.0234  0.0101
 4652TIP3    H135447   0.883   1.344   5.488 -0.2655 -1.0415 -0.8655
 4652TIP3    H235448   1.020   1.293   5.448  0.3199 -0.4429  0.3301
 4653TIP3   OH235449   3.877   5.738  12.715 -0.4780 -0.2815 -0.5917
 4653TIP3    H135450   3.908   5.758  12.803  0.0026 -1.2286 -0.5312
 4653TIP3    H235451   3.887   5.820  12.667 -2.2237  0.6898  0.6197
 4654TIP3   OH235452   1.158   2.927  13.051  0.2947  0.0019 -0.4586
 4654TIP3    H135453   1.070   2.902  13.025 -0.4245  0.1292  1.6513
 4654TIP3    H235454   1.195   2.968  12.973 -1.2089 -0.7815 -1.6363
 4655TIP3   OH235455   1.768   3.890  13.762  0.2423 -0.6125  0.5125
 4655TIP3    H135456   1.723   3.809  13.785 -1.0903 -0.1166 -0.2051
 4655TIP3    H235457   1.836   3.864  13.701 -1.3823 -1.0167 -1.2090
 4656TIP3   OH235458   3.318   6.783   4.163  0.0897 -0.1372 -0.2249
 4656TIP3    H135459   3.283   6.854   4.217 -0.7566 -1.2635  0.7652
 4656TIP3    H235460   3.246   6.759   4.105 -0.0085 -0.8870  0.1894
 4657TIP3   OH235461   2.608   0.913  16.137 -0.0406  0.1263 -0.1821
 4657TIP3    H135462   2.573   1.002  16.132  0.6568  0.3599 -1.2447
 4657TIP3    H235463   2.691   0.917  16.090 -1.0862 -1.6002 -2.4002
 4658TIP3   OH235464   2.149   2.534  11.703  0.0995  0.3972 -0.1753
 4658TIP3    H135465   2.095   2.514  11.626  0.9854  0.0180 -0.7130
 4658TIP3    H235466   2.217   2.592  11.670  1.2635 -0.7988  0.0086
 4659TIP3   OH235467   6.068   4.961   1.353  0.3371  0.5751 -0.4555
 4659TIP3    H135468   6.029   4.948   1.439  0.0059  1.6703 -0.4196
 4659TIP3    H235469   6.087   5.055   1.349 -0.2123  0.6546 -1.7972
 4660TIP3   OH235470   5.552   3.870   0.455  0.1932 -0.1442  0.2228
 4660TIP3    H135471   5.595   3.913   0.382 -1.3197  0.5878 -0.2812
 4660TIP3    H235472   5.528   3.783   0.421  2.0849 -0.9531  0.8259
 4661TIP3   OH235473   3.583   5.153   0.821  0.4230 -0.0525  0.2434
 4661TIP3    H135474   3.592   5.166   0.726  0.9970  0.3739  0.3485
 4661TIP3    H235475   3.518   5.218   0.848 -0.1189 -0.5198  0.0642
 4662TIP3   OH235476   6.458   4.273   5.313  0.5816  0.3042  0.1035
 4662TIP3    H135477   6.402   4.196   5.300  1.1634 -0.2400  0.7472
 4662TIP3    H235478   6.521   4.269   5.242  1.2347 -0.3950  0.6974
 4663TIP3   OH235479   0.320   0.485  12.456 -0.4979  0.2672 -0.3841
 4663TIP3    H135480   0.247   0.528  12.412  0.9366  0.0044 -3.2583
 4663TIP3    H235481   0.382   0.556  12.474 -0.7143  0.2446  0.4760
 4664TIP3   OH235482   1.954   2.213   1.628 -0.0744 -0.2221 -0.1850
 4664TIP3    H135483   1.871   2.191   1.672  0.2471  0.2332  0.6783
 4664TIP3    H235484   1.933   2.210   1.535 -1.3424  0.9149  0.0364
 4665TIP3   OH235485   2.474   0.115   0.951 -0.3726 -0.0034  0.1190
 4665TIP3    H135486   2.442   0.178   1.015 -2.5842 -1.2752  0.3866
 4665TIP3    H235487   2.566   0.100   0.975 -0.5284  1.1903  1.5938
 4666TIP3   OH235488   5.905   2.368   5.387  0.1767  0.2236  0.3992
 4666TIP3    H135489   5.913   2.275   5.410  0.0619  0.5096  1.6242
 4666TIP3    H235490   5.928   2.371   5.294 -0.7457 -1.1775  0.0864
 4667TIP3   OH235491   4.327   4.990  14.787  0.0870 -0.1061 -0.6154
 4667TIP3    H135492   4.325   5.053  14.859 -1.9059 -0.0179 -0.7047
 4667TIP3    H235493   4.355   5.041  14.711  0.3515  0.2216 -0.3017
 4668TIP3   OH235494   5.913   3.667   5.648  0.2452  0.3484  0.2100
 4668TIP3    H135495   5.965   3.714   5.582 -0.8603  1.4677  0.1118
 4668TIP3    H235496   5.873   3.736   5.701 -0.9931 -0.4967  0.3977
 4669TIP3   OH235497   3.093   6.400   4.265 -0.1334  0.0648 -0.1832
 4669TIP3    H135498   3.147   6.458   4.212  0.5566 -1.3131 -1.0343
 4669TIP3    H235499   3.073   6.326   4.208 -0.6183 -0.7614  1.0042
 4670TIP3   OH235500   4.340   0.105   1.390  0.0183 -0.0730 -0.4793
 4670TIP3    H135501   4.408   0.164   1.358  0.4937  1.0699  2.3563
 4670TIP3    H235502   4.380   0.018   1.385  0.8747  0.3251 -0.8138
 4671TIP3   OH235503   4.340   2.001  16.065 -0.3499 -0.2465 -0.5685
 4671TIP3    H135504   4.298   2.083  16.040 -1.2486 -0.0664  1.3387
 4671TIP3    H235505   4.432   2.023  16.076 -0.6393  0.6226  0.2591
 4672TIP3   OH235506   5.949   1.516  10.485 -0.3899  0.2670 -1.0866
 4672TIP3    H135507   5.873   1.548  10.534 -0.0844 -2.1950  1.2077
 4672TIP3    H235508   6.024   1.546  10.536 -0.0014 -0.9630 -0.9194
 4673TIP3   OH235509   2.027   0.680   1.611  0.3184 -0.7869  0.1454
 4673TIP3    H135510   2.052   0.742   1.680  1.7807 -3.2013  1.9805
 4673TIP3    H235511   2.087   0.700   1.539  1.0255 -0.3004  0.8435
 4674TIP3   OH235512   1.200   6.603   5.594 -0.2818  0.0410  0.0606
 4674TIP3    H135513   1.142   6.668   5.555  0.0031  0.4666  0.3375
 4674TIP3    H235514   1.275   6.654   5.626  0.5098 -0.5613 -0.7845
 4675TIP3   OH235515   6.182   1.885  15.047 -0.1398  0.4792  0.0138
 4675TIP3    H135516   6.272   1.856  15.059  0.4773  1.1079 -2.5227
 4675TIP3    H235517   6.188   1.978  15.027 -1.1715  0.2823 -1.4500
 4676TIP3   OH235518   0.238   2.908   3.856 -0.0035  0.1134  0.2478
 4676TIP3    H135519   0.189   2.988   3.835  0.2980  0.2526  0.0587
 4676TIP3    H235520   0.245   2.863   3.772  0.7734  0.4238  0.1366
 4677TIP3   OH235521   3.439   5.283  15.789 -0.2111  0.3471 -0.3578
 4677TIP3    H135522   3.361   5.337  15.781  0.0073  0.7804  0.3152
 4677TIP3    H235523   3.464   5.261  15.699 -1.4452 -0.2960 -0.5555
 4678TIP3   OH235524   6.514   5.487   6.417 -0.3440 -0.5482  0.7546
 4678TIP3    H135525   6.461   5.423   6.464 -1.1418 -1.0924 -0.8167
 4678TIP3    H235526   6.493   5.571   6.457 -1.3365 -0.9365  1.0638
 4679TIP3   OH235527   3.606   3.269   6.160 -0.5016  0.3986  1.1357
 4679TIP3    H135528   3.677   3.251   6.223  0.6118  0.9419  0.0834
 4679TIP3    H235529   3.651   3.307   6.085 -1.8461  0.0260  0.1192
 4680TIP3   OH235530   3.116   5.921  15.042  0.0025 -0.5482  0.4020
 4680TIP3    H135531   3.141   5.830  15.025 -0.9357 -0.1916 -4.1676
 4680TIP3    H235532   3.199   5.969  15.044  0.4441 -0.8379 -3.5053
 4681TIP3   OH235533   4.953   3.593   0.180 -0.5719 -0.0282  0.7119
 4681TIP3    H135534   4.947   3.501   0.153 -0.5899 -0.5772  2.5031
 4681TIP3    H235535   5.045   3.606   0.202 -0.5744  0.3960  0.4913
 4682TIP3   OH235536   3.269   5.068  11.522  0.5667  0.5325  0.5356
 4682TIP3    H135537   3.284   5.158  11.549 -0.0935  1.7605 -2.8068
 4682TIP3    H235538   3.174   5.057  11.526  0.5496  0.3822 -0.1235
 4683TIP3   OH235539   3.305   5.534   2.759  0.3794  0.3643  0.1385
 4683TIP3    H135540   3.377   5.590   2.787  0.1101  0.7025  0.1516
 4683TIP3    H235541   3.291   5.475   2.834  1.3391 -0.4094 -0.2669
 4684TIP3   OH235542   2.803   6.015   6.052  0.3742  0.1592  0.3626
 4684TIP3    H135543   2.858   6.077   6.100  0.2799  0.3023  0.2851
 4684TIP3    H235544   2.738   5.986   6.116 -1.9773  2.9981 -0.5494
 4685TIP3   OH235545   5.892   5.222   6.152 -0.3454  0.0733  0.3551
 4685TIP3    H135546   5.938   5.158   6.206  1.3934 -0.5101 -1.6623
 4685TIP3    H235547   5.801   5.219   6.182 -0.0187 -2.2979  1.2943
 4686TIP3   OH235548   3.512   0.394   5.067  0.6585 -0.1478 -0.0246
 4686TIP3    H135549   3.442   0.453   5.097  0.3284 -0.4502 -0.1913
 4686TIP3    H235550   3.527   0.419   4.976  2.0010  1.0995  0.4991
 4687TIP3   OH235551   5.922   4.210   6.111 -0.2920  0.0596 -0.2613
 4687TIP3    H135552   5.895   4.133   6.161  0.1164  0.5405  0.7269
 4687TIP3    H235553   5.846   4.230   6.056 -1.2105  0.1883  0.9956
 4688TIP3   OH235554   6.216   4.961  14.716  0.6063  0.0748 -0.3924
 4688TIP3    H135555   6.255   4.925  14.795 -0.0256  1.2557  0.5083
 4688TIP3    H235556   6.281   5.023  14.683  0.2578  0.7280  0.1065
 4689TIP3   OH235557   3.965   4.161   0.066  0.3366  0.3558 -0.3122
 4689TIP3    H135558   3.981   4.130   0.156 -0.0136  1.3854  0.1188
 4689TIP3    H235559   4.048   4.203   0.041  0.1977  0.7073 -0.1913
 4690TIP3   OH235560   6.428   6.284  13.850 -0.1084  0.1173 -0.3936
 4690TIP3    H135561   6.508   6.244  13.884  0.5476  2.5601  1.1889
 4690TIP3    H235562   6.457   6.365  13.809 -1.7446  1.1258  0.3090
 4691TIP3   OH235563   6.517   5.134  13.228  0.6289  0.4976  0.3078
 4691TIP3    H135564   6.541   5.050  13.267 -0.7299 -0.3579 -0.6294
 4691TIP3    H235565   6.513   5.116  13.134 -1.5887  1.1021  0.2406
 4692TIP3   OH235566   6.759   0.790   4.330 -0.1900  0.6427  0.9266
 4692TIP3    H135567   6.731   0.784   4.239 -0.0673  3.9883  0.5278
 4692TIP3    H235568   6.724   0.711   4.371 -2.1834  0.0982 -1.5490
 4693TIP3   OH235569   2.076   1.601   4.626 -0.0407 -0.1192  0.1885
 4693TIP3    H135570   2.109   1.629   4.541  0.8698  0.5755  0.7505
 4693TIP3    H235571   2.074   1.681   4.678 -1.4550 -0.3780  0.5522
 4694TIP3   OH235572   0.847   4.813  12.626  0.1212 -0.0369 -0.4229
 4694TIP3    H135573   0.842   4.786  12.717  2.4127  1.1676  0.1310
 4694TIP3    H235574   0.800   4.897  12.623 -0.4645 -0.3634 -0.4958
 4695TIP3   OH235575   6.566   2.760  13.978  0.3108 -0.0729 -0.2727
 4695TIP3    H135576   6.610   2.713  14.049 -1.3640  0.0492  0.9080
 4695TIP3    H235577   6.571   2.852  14.004 -1.0360 -0.0988  0.1419
 4696TIP3   OH235578   6.005   5.283   5.459  0.2976 -0.8275 -0.1236
 4696TIP3    H135579   6.082   5.227   5.470 -0.0420 -1.2681  0.0688
 4696TIP3    H235580   5.968   5.255   5.375  0.9437  0.1321 -0.7539
 4697TIP3   OH235581   4.701   5.486  12.565  0.2409  0.0020 -0.1530
 4697TIP3    H135582   4.673   5.575  12.585  0.3605 -0.1645  0.7942
 4697TIP3    H235583   4.730   5.450  12.648  0.7821 -0.7196 -0.6376
 4698TIP3   OH235584   2.238   3.480   4.709  0.8674  0.4452 -0.0317
 4698TIP3    H135585   2.330   3.476   4.683  0.5824 -3.4011 -1.1336
 4698TIP3    H235586   2.239   3.481   4.805  2.0483  0.2037 -0.0335
 4699TIP3   OH235587   0.100   0.588  15.595  0.0827  0.4619 -0.7361
 4699TIP3    H135588   0.066   0.553  15.677 -0.9841  1.7476 -0.6058
 4699TIP3    H235589   0.035   0.652  15.567  0.5788  0.2691 -2.4417
 4700TIP3   OH235590   0.273   5.419  11.188 -0.4723 -0.3823 -0.3491
 4700TIP3    H135591   0.282   5.391  11.279 -2.1307  0.6483  0.1682
 4700TIP3    H235592   0.324   5.500  11.182 -1.1832  0.0967 -0.0505
 4701TIP3   OH235593   6.670   0.954   2.760  0.1794  0.3374  0.3034
 4701TIP3    H135594   6.640   1.043   2.742  0.5527  0.5771  0.8138
 4701TIP3    H235595   6.590   0.906   2.782 -0.0309  0.5351 -0.0309
 4702TIP3   OH235596   6.659   0.277  11.415  0.2217 -0.5627  0.5491
 4702TIP3    H135597   6.604   0.355  11.411 -1.2132 -1.5618  0.0001
 4702TIP3    H235598   6.736   0.299  11.363  0.3771  0.8794  1.3472
 4703TIP3   OH235599   0.948   6.131  11.104  0.4538 -0.1377 -0.1867
 4703TIP3    H135600   0.944   6.061  11.169 -0.4816  1.9997  2.2197
 4703TIP3    H235601   0.865   6.125  11.057 -1.2366  1.3086  2.3476
 4704TIP3   OH235602   5.140   3.124   4.594  0.2838 -0.2005 -0.8680
 4704TIP3    H135603   5.140   3.063   4.520  1.3258 -0.6834 -0.4970
 4704TIP3    H235604   5.232   3.127   4.623  0.1405  1.0274 -0.4480
 4705TIP3   OH235605   5.133   4.521  14.793 -0.0698  0.2097 -0.4586
 4705TIP3    H135606   5.074   4.577  14.742 -0.9101 -0.5110 -0.3103
 4705TIP3    H235607   5.130   4.557  14.881 -2.2870 -1.2413  0.1568
 4706TIP3   OH235608   5.580   5.494  15.205  0.2081  0.2764  0.1081
 4706TIP3    H135609   5.622   5.408  15.206 -2.0426 -0.9097 -0.5017
 4706TIP3    H235610   5.536   5.497  15.120 -1.0943  1.3336  0.7998
 4707TIP3   OH235611   6.383   5.982  12.746 -0.0143 -0.3335  0.5989
 4707TIP3    H135612   6.439   6.057  12.729 -0.1206  0.1004  1.9849
 4707TIP3    H235613   6.335   5.968  12.665  0.6151  0.5715  0.0540
 4708TIP3   OH235614   6.317   5.724  13.172 -0.0002  0.2169 -0.3563
 4708TIP3    H135615   6.366   5.651  13.210  0.9856  1.2867  0.4827
 4708TIP3    H235616   6.337   5.799  13.227  0.1374  1.4647 -2.0085
 4709TIP3   OH235617   2.736   1.470  15.284  0.5884 -0.0418  0.5917
 4709TIP3    H135618   2.757   1.563  15.293  0.4059  0.1786 -1.0000
 4709TIP3    H235619   2.642   1.464  15.302  0.0515  0.5146 -1.7611
 4710TIP3   OH235620   0.717   1.084  11.752 -0.0088 -0.4275 -0.0684
 4710TIP3    H135621   0.682   1.121  11.833  0.0393 -0.3643 -0.0775
 4710TIP3    H235622   0.659   1.118  11.683  0.2420 -0.1007 -0.1141
 4711TIP3   OH235623   4.743   4.633   3.595  0.4614  0.0147  0.5777
 4711TIP3    H135624   4.800   4.706   3.619  1.0082 -0.2454  0.0693
 4711TIP3    H235625   4.691   4.617   3.674 -0.7358  1.9155  0.2516
 4712TIP3   OH235626   0.765   3.959  16.831  0.0872 -0.1150 -0.2864
 4712TIP3    H135627   0.754   3.877  16.784  2.4191 -0.9961  0.5555
 4712TIP3    H235628   0.823   4.011  16.775  2.4981 -0.9861  1.2535
 4713TIP3   OH235629   0.343   2.198   6.587 -0.4241 -0.2914  0.2644
 4713TIP3    H135630   0.248   2.213   6.588 -0.1870  1.6009  2.3426
 4713TIP3    H235631   0.353   2.108   6.617 -1.5486 -0.4970  0.0783
 4714TIP3   OH235632   4.199   3.463  16.071 -0.1621  0.5343 -0.3308
 4714TIP3    H135633   4.132   3.420  16.123  0.1586  2.1322  1.5157
 4714TIP3    H235634   4.162   3.550  16.052  0.1933  0.3835 -1.8748
 4715TIP3   OH235635   3.217   0.130   1.984 -0.9390 -0.0983  0.4266
 4715TIP3    H135636   3.251   0.065   2.045 -0.5130 -0.6098 -0.3424
 4715TIP3    H235637   3.280   0.131   1.912 -0.2871  2.0456  0.9741
 4716TIP3   OH235638   0.446   4.889   0.650  0.0666  0.1152  0.2431
 4716TIP3    H135639   0.410   4.856   0.732 -0.2684 -0.7265 -0.2375
 4716TIP3    H235640   0.395   4.968   0.632 -1.5088 -1.0130 -0.3876
 4717TIP3   OH235641   2.019   4.085  12.365 -0.3710  0.2513 -0.3241
 4717TIP3    H135642   2.106   4.125  12.375 -0.9165  1.1482  1.1215
 4717TIP3    H235643   2.034   3.991  12.372  0.7249  0.2324 -2.1399
 4718TIP3   OH235644   1.604   4.529   2.457  0.1971  0.3203 -0.2682
 4718TIP3    H135645   1.590   4.435   2.443  0.9634  0.1576 -0.0378
 4718TIP3    H235646   1.583   4.569   2.373 -0.8657  0.0321 -0.1464
 4719TIP3   OH235647   5.422   1.081   2.928  0.6786  0.0913 -0.1099
 4719TIP3    H135648   5.435   1.148   2.861  1.3287  0.6326  0.5502
 4719TIP3    H235649   5.333   1.049   2.913  0.8996  0.0306 -1.3900
 4720TIP3   OH235650   6.706   1.262  15.512  0.2771  0.1111  0.0948
 4720TIP3    H135651   6.619   1.266  15.472 -0.0735 -1.5196  0.6006
 4720TIP3    H235652   6.762   1.225  15.444  0.8702  2.1337 -0.6015
 4721TIP3   OH235653   0.600   2.421   4.525  0.1335  0.2690 -0.3430
 4721TIP3    H135654   0.551   2.502   4.512 -1.3769 -0.7000 -0.8972
 4721TIP3    H235655   0.644   2.434   4.609 -1.8154  0.8258  0.6537
 4722TIP3   OH235656   1.480   0.488  14.387 -0.2319 -0.0121 -0.3637
 4722TIP3    H135657   1.482   0.538  14.468 -1.4056 -0.8139  0.1903
 4722TIP3    H235658   1.485   0.396  14.416 -1.2718 -0.3328 -1.1276
 4723TIP3   OH235659   5.786   1.631   4.884  0.2502 -0.2032  0.0744
 4723TIP3    H135660   5.761   1.542   4.860  1.2966 -1.0668  2.0066
 4723TIP3    H235661   5.879   1.625   4.907  0.3082  1.3628  0.3661
 4724TIP3   OH235662   3.351   4.396  14.888 -0.3290 -0.0846 -0.4590
 4724TIP3    H135663   3.277   4.344  14.855 -0.5977  0.2376 -0.3746
 4724TIP3    H235664   3.397   4.336  14.948 -1.3088  0.1275  0.5455
 4725TIP3   OH235665   6.792   1.038  12.081 -0.4281  0.3318  0.5343
 4725TIP3    H135666   6.873   1.046  12.132  0.0548 -2.7939  0.4550
 4725TIP3    H235667   6.723   1.033  12.147 -0.2991  0.5372  0.6889
 4726TIP3   OH235668   1.787   5.688   4.377  0.0343 -0.6931 -0.2463
 4726TIP3    H135669   1.794   5.600   4.415  0.7053 -0.1290  0.9815
 4726TIP3    H235670   1.707   5.724   4.415  0.1800 -0.4818 -0.1429
 4727TIP3   OH235671   4.551   0.623  14.655  0.1232 -0.7379 -0.5977
 4727TIP3    H135672   4.579   0.558  14.719 -2.2253 -0.6184  0.6699
 4727TIP3    H235673   4.521   0.697  14.707 -2.4100 -0.8681 -1.7332
 4728TIP3   OH235674   2.908   4.123   4.917  0.4454  0.1473  0.1796
 4728TIP3    H135675   2.933   4.203   4.872  1.3712 -0.5329 -0.5478
 4728TIP3    H235676   2.980   4.106   4.978 -0.9283  1.2281  2.2120
 4729TIP3   OH235677   2.837   5.743  15.848  0.8391 -0.8157  0.0052
 4729TIP3    H135678   2.877   5.771  15.930  2.6958 -2.1378 -0.4030
 4729TIP3    H235679   2.763   5.804  15.836  1.8690  0.8334  1.4901
 4730TIP3   OH235680   0.388   6.083  13.927  0.1222  0.4924  0.1237
 4730TIP3    H135681   0.416   6.097  14.017  1.7818 -0.9951 -0.1227
 4730TIP3    H235682   0.467   6.094  13.875 -0.5867  0.2452 -1.0505
 4731TIP3   OH235683   6.344   2.049  12.873  0.1099  0.3763 -0.0481
 4731TIP3    H135684   6.320   2.134  12.836 -0.6659 -0.5699 -1.8259
 4731TIP3    H235685   6.404   2.010  12.809 -0.4417 -0.8875  0.1730
 4732TIP3   OH235686   6.196   5.832  16.512 -0.6624  0.4424 -0.5037
 4732TIP3    H135687   6.241   5.905  16.470  0.8013  0.1667  0.5109
 4732TIP3    H235688   6.214   5.843  16.606  1.7769 -2.4925 -0.4371
 4733TIP3   OH235689   0.884   4.285  16.707  0.3990  0.3133 -0.2478
 4733TIP3    H135690   0.885   4.266  16.613  0.3087 -0.4139 -0.1101
 4733TIP3    H235691   0.795   4.317  16.724  0.7705  1.5867 -0.6136
 4734TIP3   OH235692   4.226   3.330  15.369  0.1065 -0.3950  0.6375
 4734TIP3    H135693   4.282   3.400  15.334 -0.0963 -0.6384 -0.1949
 4734TIP3    H235694   4.268   3.249  15.340 -0.2257 -0.5974  0.7146
 4735TIP3   OH235695   2.621   2.569   2.045 -0.0905 -0.4701 -0.3458
 4735TIP3    H135696   2.551   2.596   2.103 -0.7267 -1.7243 -0.4821
 4735TIP3    H235697   2.680   2.517   2.100  0.2718 -0.1532 -0.4268
 4736TIP3   OH235698   6.120   1.016  16.752  0.4442  0.2443  0.2474
 4736TIP3    H135699   6.163   0.948  16.802  0.3632  1.3613  1.9205
 4736TIP3    H235700   6.026   1.000  16.764  0.4240  0.7507  0.8272
 4737TIP3   OH235701   3.140   3.973  17.308  0.0339 -0.1125 -0.4854
 4737TIP3    H135702   3.139   4.064  17.281 -0.1490 -0.2457 -0.9256
 4737TIP3    H235703   3.078   3.969  17.382 -0.1494  0.0666 -0.6299
 4738TIP3   OH235704   4.765   6.587   2.319  0.0677  0.5373 -0.1158
 4738TIP3    H135705   4.779   6.607   2.411  0.3787 -1.8082  0.3944
 4738TIP3    H235706   4.696   6.521   2.319 -1.3692  1.9307 -1.7375
 4739TIP3   OH235707   5.385   5.598  10.973 -0.7481 -0.1071 -0.3503
 4739TIP3    H135708   5.442   5.567  10.903  0.2750  1.1846 -0.1279
 4739TIP3    H235709   5.398   5.693  10.975 -0.2842 -0.1611  1.9638
 4740TIP3   OH235710   1.008   0.811   2.361 -0.0866 -0.1096  0.5759
 4740TIP3    H135711   1.100   0.840   2.361 -0.4537  1.1046 -0.2448
 4740TIP3    H235712   0.983   0.811   2.269 -0.8778 -0.5903  0.7859
 4741TIP3   OH235713   1.275   5.533  16.617 -0.2964  0.2617  0.2308
 4741TIP3    H135714   1.290   5.577  16.701 -0.5672 -1.4652  1.2107
 4741TIP3    H235715   1.351   5.558  16.564 -0.2558  1.5943  0.8702
 4742TIP3   OH235716   2.790   3.444  14.949  0.2868 -0.0636 -0.1021
 4742TIP3    H135717   2.878   3.406  14.952  0.5544  0.4403 -0.9734
 4742TIP3    H235718   2.785   3.500  15.026  1.1219  0.6895 -0.5716
 4743TIP3   OH235719   3.093   3.167   3.252 -0.1892  0.4291 -0.5642
 4743TIP3    H135720   3.064   3.110   3.323  0.2199  1.5378  0.5180
 4743TIP3    H235721   3.014   3.217   3.229 -0.4478 -0.2695 -1.2492
 4744TIP3   OH235722   6.453   1.977   6.421  0.3940 -0.7102 -0.2473
 4744TIP3    H135723   6.534   1.986   6.471  0.6265 -0.6109 -0.6410
 4744TIP3    H235724   6.395   1.926   6.479  0.5784 -0.4034  0.2138
 4745TIP3   OH235725   1.941   4.597  14.325 -0.0918  0.3868 -0.3474
 4745TIP3    H135726   1.866   4.569  14.377  0.3056  1.4147  0.8460
 4745TIP3    H235727   1.994   4.649  14.386  2.2401 -1.3300 -0.7579
 4746TIP3   OH235728   5.918   3.339   0.892 -0.2421  0.3563  0.2033
 4746TIP3    H135729   6.000   3.305   0.928 -0.9238  0.5238  1.9903
 4746TIP3    H235730   5.894   3.411   0.950 -1.8062  0.1132 -0.0976
 4747TIP3   OH235731   6.795   1.188  16.211  0.1971 -0.8345 -0.0381
 4747TIP3    H135732   6.772   1.259  16.271  1.4645 -0.4403  0.0240
 4747TIP3    H235733   6.725   1.188  16.146  0.5119  0.9522 -0.4309
 4748TIP3   OH235734   4.000   4.087   6.345  0.1075  0.1518  0.0024
 4748TIP3    H135735   3.945   4.009   6.350 -0.7086  0.7607  0.7447
 4748TIP3    H235736   4.085   4.058   6.378 -0.2903 -0.3361  0.6319
 4749TIP3   OH235737   2.415   3.372   1.095 -0.3837  0.2004 -0.1035
 4749TIP3    H135738   2.399   3.400   1.005  1.8328 -0.4475 -0.7478
 4749TIP3    H235739   2.385   3.447   1.148  0.7466  1.7312 -1.5088
 4750TIP3   OH235740   1.400   1.788   3.578 -0.3802 -0.0145 -0.1232
 4750TIP3    H135741   1.442   1.874   3.590 -0.7239 -0.0177  1.3394
 4750TIP3    H235742   1.358   1.794   3.492  2.4768  0.0123 -1.6504
 4751TIP3   OH235743   1.522   4.467   6.054  1.3480 -0.0636  0.2142
 4751TIP3    H135744   1.429   4.486   6.046  0.6782 -2.8304  0.4188
 4751TIP3    H235745   1.564   4.522   5.988 -0.5806  0.1912 -0.8572
 4752TIP3   OH235746   1.410   4.299  10.937 -0.2925 -0.1747  0.3518
 4752TIP3    H135747   1.411   4.216  10.890 -0.0460  0.0706 -0.0873
 4752TIP3    H235748   1.400   4.365  10.869 -1.5297  0.1052  0.7832
 4753TIP3   OH235749   0.763   6.589  15.306 -0.1941 -0.3173  0.1342
 4753TIP3    H135750   0.733   6.506  15.344 -1.0419  0.0582  0.3013
 4753TIP3    H235751   0.855   6.596  15.333  0.1391 -1.5846 -0.5551
 4754TIP3   OH235752   1.198   4.095  16.642  0.0935  0.5236 -0.2291
 4754TIP3    H135753   1.293   4.094  16.654  0.1590  0.1666 -0.7288
 4754TIP3    H235754   1.167   4.165  16.699  0.6733  0.7507 -0.1873
 4755TIP3   OH235755   4.157   6.100   0.723  0.4287 -0.2474  0.0973
 4755TIP3    H135756   4.231   6.074   0.777  0.2531  1.7007  1.3892
 4755TIP3    H235757   4.152   6.195   0.734 -1.4586 -0.1711 -0.9949
 4756TIP3   OH235758   1.433   2.897  14.016 -0.2468  0.2450  0.1966
 4756TIP3    H135759   1.490   2.841  14.069 -1.6932  0.4675  2.1124
 4756TIP3    H235760   1.345   2.875  14.045 -1.2230 -0.2210 -2.7982
 4757TIP3   OH235761   6.331   5.063   4.545  0.5798  0.4721 -0.3416
 4757TIP3    H135762   6.255   5.121   4.548 -0.5255 -0.9896  1.7122
 4757TIP3    H235763   6.317   5.010   4.466  0.4262  1.4069 -0.9611
 4758TIP3   OH235764   6.599   0.676  16.345 -0.2586 -0.4062 -0.0917
 4758TIP3    H135765   6.550   0.637  16.272 -0.0420 -0.4399 -0.2188
 4758TIP3    H235766   6.620   0.764  16.316  1.2238 -0.9455 -0.7291
 4759TIP3   OH235767   2.678   4.101   4.169  0.1438 -0.0679  0.1963
 4759TIP3    H135768   2.687   4.112   4.264 -1.5285  0.5453  0.3112
 4759TIP3    H235769   2.659   4.009   4.157  2.0216 -0.5209  0.2706
 4760TIP3   OH235770   0.690   5.332  11.240 -0.2290 -0.3773  0.2321
 4760TIP3    H135771   0.602   5.311  11.272 -0.4027  0.1931  0.1522
 4760TIP3    H235772   0.746   5.326  11.317 -0.6280  0.9024  0.6481
 4761TIP3   OH235773   1.482   3.818  14.705 -0.0267  0.4050 -0.0903
 4761TIP3    H135774   1.386   3.824  14.709 -0.1141 -1.2384  1.8690
 4761TIP3    H235775   1.499   3.762  14.630 -0.6141  0.5032 -0.3023
 4762TIP3   OH235776   4.500   5.353   1.293 -0.6531  0.2737 -0.3925
 4762TIP3    H135777   4.484   5.258   1.296 -1.7974  0.4688  0.3594
 4762TIP3    H235778   4.568   5.363   1.227 -0.7445 -1.0463 -0.7316
 4763TIP3   OH235779   0.315   3.438   5.781 -0.0767 -0.2842  0.2533
 4763TIP3    H135780   0.321   3.430   5.876 -3.7624 -1.1833  0.5543
 4763TIP3    H235781   0.280   3.525   5.766 -1.0180 -0.7230 -0.1504
 4764TIP3   OH235782   6.205   2.065  12.539  0.3028  0.6345 -0.0072
 4764TIP3    H135783   6.294   2.043  12.567  0.7903  1.8320 -0.5659
 4764TIP3    H235784   6.153   1.987  12.562  1.6712 -0.4920 -0.5687
 4765TIP3   OH235785   6.102   2.694   4.492 -0.6081 -0.0959 -0.1962
 4765TIP3    H135786   6.183   2.654   4.461 -1.2547 -1.5858 -0.0648
 4765TIP3    H235787   6.101   2.781   4.454  1.4460  0.2542  0.4697
 4766TIP3   OH235788   6.782   6.048   1.605  0.5712 -0.1317  0.5525
 4766TIP3    H135789   6.798   5.983   1.536 -0.2425  2.6463 -2.5193
 4766TIP3    H235790   6.694   6.029   1.636  0.2352 -0.3801 -0.5013
 4767TIP3   OH235791   3.303   1.244  15.865  0.4275  0.2784  0.5332
 4767TIP3    H135792   3.308   1.220  15.957  0.5018 -1.8446  0.0423
 4767TIP3    H235793   3.392   1.234  15.833  0.1375 -0.4415 -0.0729
 4768TIP3   OH235794   1.801   1.845  16.997  0.1061  0.0393 -0.0313
 4768TIP3    H135795   1.853   1.919  17.028 -0.6657  0.1588  1.0450
 4768TIP3    H235796   1.816   1.777  17.063 -0.5421 -0.1544 -0.0737
 4769TIP3   OH235797   2.626   3.411   3.806 -0.3151  0.2657 -0.8274
 4769TIP3    H135798   2.687   3.342   3.780  1.8792  1.6552  0.4134
 4769TIP3    H235799   2.647   3.485   3.749 -0.5702  0.8798 -0.1405
 4770TIP3   OH235800   3.062   4.322   0.812 -0.5084  0.3026 -0.4842
 4770TIP3    H135801   3.040   4.238   0.852 -0.1800 -0.1615 -1.2388
 4770TIP3    H235802   3.107   4.298   0.730 -0.3865  1.2122 -0.6951
 4771TIP3   OH235803   2.974   2.553  14.894  0.1706  0.1888  0.3909
 4771TIP3    H135804   2.950   2.485  14.956  0.6023 -1.3613 -1.0727
 4771TIP3    H235805   3.059   2.585  14.925  2.5814 -3.5804 -1.5709
 4772TIP3   OH235806   2.400   1.309  13.055  0.4408  0.1590  1.1208
 4772TIP3    H135807   2.336   1.363  13.007  1.9984  1.8304  0.7752
 4772TIP3    H235808   2.383   1.220  13.025  0.0961  0.9069 -1.1359
 4773TIP3   OH235809   0.499   0.089  10.411 -0.4502 -0.8242  0.4204
 4773TIP3    H135810   0.499   0.161  10.474  0.7346  1.2624 -1.8069
 4773TIP3    H235811   0.457   0.017  10.458 -2.7645  1.6005  2.4369
 4774TIP3   OH235812   1.810   2.959   1.015 -1.1813  0.0559  0.1731
 4774TIP3    H135813   1.810   2.981   0.922  0.0557 -0.0408  0.1365
 4774TIP3    H235814   1.842   3.038   1.058 -1.1273 -0.1215  0.4609
 4775TIP3   OH235815   3.086   3.430   3.486  0.1713  0.3334 -0.5238
 4775TIP3    H135816   3.032   3.370   3.537  0.9833  0.5513  0.6468
 4775TIP3    H235817   3.110   3.380   3.408 -1.0348 -0.0422 -0.6692
 4776TIP3   OH235818   6.352   2.018   5.557 -0.3573  0.1501  0.4462
 4776TIP3    H135819   6.357   1.962   5.635 -1.7902 -0.0168  0.4535
 4776TIP3    H235820   6.435   2.005   5.512  0.7681  0.7201  2.2604
 4777TIP3   OH235821   1.407   0.676  17.270  0.0162  0.4352 -0.0684
 4777TIP3    H135822   1.442   0.602  17.320 -2.8909  0.6477  2.5547
 4777TIP3    H235823   1.477   0.741  17.272  1.7882 -1.3223 -0.5088
 4778TIP3   OH235824   4.155   2.582   4.016  0.0619  0.1219 -0.4487
 4778TIP3    H135825   4.123   2.572   4.105  0.6923 -0.0925 -0.2415
 4778TIP3    H235826   4.106   2.518   3.965 -0.2707  0.2160 -0.2483
 4779TIP3   OH235827   5.143   1.686   3.930  0.2622 -0.1600 -0.0960
 4779TIP3    H135828   5.159   1.684   4.024 -0.1193 -0.3538 -0.0363
 4779TIP3    H235829   5.052   1.714   3.921  1.0643  2.6670 -0.4926
 4780TIP3   OH235830   3.182   1.335   6.199  0.0864  0.3387 -0.3217
 4780TIP3    H135831   3.210   1.392   6.270 -1.0113 -0.0257  0.4202
 4780TIP3    H235832   3.092   1.311   6.220 -0.0872 -0.2085 -1.5600
 4781TIP3   OH235833   5.647   5.551  14.599  0.2391 -0.0415 -0.6684
 4781TIP3    H135834   5.673   5.460  14.611 -0.2625 -0.0846  0.1854
 4781TIP3    H235835   5.729   5.596  14.576  0.8263 -0.4276  0.5420
 4782TIP3   OH235836   4.031   6.491  12.506  0.6370  0.2482 -0.7176
 4782TIP3    H135837   4.011   6.510  12.597  0.5089  0.0231 -0.6977
 4782TIP3    H235838   3.950   6.454  12.471  1.2683 -1.6158 -0.3658
 4783TIP3   OH235839   5.371   0.970   0.094 -0.0309  0.5580 -0.5061
 4783TIP3    H135840   5.368   0.989   0.187 -0.0336  1.2807 -0.6463
 4783TIP3    H235841   5.338   0.881   0.086  2.0051 -0.3563  0.4086
 4784TIP3   OH235842   5.073   4.171  11.427  0.0483 -0.4103  0.7400
 4784TIP3    H135843   5.158   4.177  11.384 -0.2297 -1.0234  0.0771
 4784TIP3    H235844   5.014   4.138  11.359 -0.6660 -0.2193  1.2565
 4785TIP3   OH235845   6.702   1.541   0.841  0.3562  0.7067  0.2062
 4785TIP3    H135846   6.721   1.609   0.777  1.3526 -1.0115 -1.4317
 4785TIP3    H235847   6.763   1.470   0.820 -0.2230 -0.4716  2.2078
 4786TIP3   OH235848   2.599   4.927   4.780  0.2876 -0.2375  0.2978
 4786TIP3    H135849   2.568   4.966   4.862  0.4516 -1.2024  0.8240
 4786TIP3    H235850   2.523   4.878   4.747  0.5155 -0.6440  0.3720
 4787TIP3   OH235851   6.435   6.109   3.348  0.2302  0.2696  0.3559
 4787TIP3    H135852   6.420   6.049   3.275  0.0034  0.3480  0.3361
 4787TIP3    H235853   6.509   6.163   3.321 -1.4137  2.0176 -0.9338
 4788TIP3   OH235854   6.196   1.311  13.804 -0.0997 -0.0897 -1.4088
 4788TIP3    H135855   6.114   1.351  13.773 -0.1478 -0.9181 -2.3883
 4788TIP3    H235856   6.242   1.284  13.725  1.8288  1.6414 -0.9649
 4789TIP3   OH235857   4.524   4.814  14.763  0.2613 -0.4080  0.0214
 4789TIP3    H135858   4.437   4.852  14.765 -0.1079 -1.1663 -1.0337
 4789TIP3    H235859   4.511   4.723  14.737  1.4930 -0.1013 -1.8340
 4790TIP3   OH235860   2.705   6.431   4.739 -0.1744 -0.2750 -0.0303
 4790TIP3    H135861   2.715   6.500   4.675 -1.6107 -1.9962 -2.2814
 4790TIP3    H235862   2.764   6.361   4.709  2.4512  0.3875  3.0517
 4791TIP3   OH235863   3.623   4.587   3.952 -0.5585 -0.0734 -0.1838
 4791TIP3    H135864   3.586   4.628   4.030 -0.0437 -1.0356  0.5788
 4791TIP3    H235865   3.678   4.516   3.985 -1.0904 -1.1255 -1.4438
 4792TIP3   OH235866   4.906   4.466  11.350 -0.1762  0.1574  0.3189
 4792TIP3    H135867   4.838   4.425  11.402  2.3102 -1.0347  2.8860
 4792TIP3    H235868   4.932   4.399  11.287  1.1808 -0.9069  1.9170
 4793TIP3   OH235869   3.834   1.411   6.338 -0.0004 -0.1311  0.1479
 4793TIP3    H135870   3.881   1.328   6.334 -1.7201 -1.1672  0.6419
 4793TIP3    H235871   3.828   1.431   6.432  1.8322  1.4576  0.0029
 4794TIP3   OH235872   3.371   2.278  12.030 -0.0202 -0.2303  0.2246
 4794TIP3    H135873   3.360   2.353  11.973  2.4451 -1.0498 -1.4902
 4794TIP3    H235874   3.463   2.282  12.058  0.1033 -2.3887  0.3317
 4795TIP3   OH235875   3.835   2.907   2.659  0.3116  0.0241  0.3615
 4795TIP3    H135876   3.761   2.852   2.632  0.2334 -0.8608  2.2103
 4795TIP3    H235877   3.814   2.994   2.625  0.1407 -0.9159 -2.1042
 4796TIP3   OH235878   2.822   1.769  11.796  0.5141 -0.0212 -0.3352
 4796TIP3    H135879   2.743   1.716  11.813 -1.1359  2.2040 -0.6321
 4796TIP3    H235880   2.790   1.859  11.794  2.9730  0.9012 -1.2892
 4797TIP3   OH235881   4.548   5.033   2.005  0.4762  0.6726 -0.1441
 4797TIP3    H135882   4.513   4.960   2.055 -0.4304  1.1931 -0.0066
 4797TIP3    H235883   4.628   5.058   2.052  0.3564  0.2879  0.2701
 4798TIP3   OH235884   1.105   2.407  14.526 -0.3625  0.5924  0.1680
 4798TIP3    H135885   1.056   2.468  14.581  0.8857  2.0166 -0.2350
 4798TIP3    H235886   1.138   2.460  14.454 -0.4981 -0.8827 -1.0308
 4799TIP3   OH235887   1.918   4.505   5.731  0.4771 -0.2881 -0.3246
 4799TIP3    H135888   1.981   4.569   5.765 -0.9321  0.6806  0.5943
 4799TIP3    H235889   1.882   4.464   5.810 -1.8542  1.0036 -0.6391
 4800TIP3   OH235890   5.413   0.492   5.464  0.1201 -0.2614  0.3713
 4800TIP3    H135891   5.372   0.515   5.547 -0.7426 -1.4968  0.3238
 4800TIP3    H235892   5.400   0.397   5.456  1.9103 -0.4929 -0.2578
 4801TIP3   OH235893   3.007   0.206  12.186  0.0991 -0.5772 -0.5178
 4801TIP3    H135894   3.088   0.255  12.201 -1.0935  1.0181  1.2442
 4801TIP3    H235895   3.036   0.120  12.157  2.3719  0.3100 -1.0879
 4802TIP3   OH235896   0.602   1.645   0.955 -0.4692 -0.4300 -0.1795
 4802TIP3    H135897   0.633   1.676   1.040  2.2318 -2.8353 -0.1158
 4802TIP3    H235898   0.610   1.721   0.897  0.2969  0.5128  1.1066
 4803TIP3   OH235899   3.621   5.616  12.341 -0.2858  0.0490  0.2490
 4803TIP3    H135900   3.690   5.681  12.352  0.4077 -0.9415  2.2968
 4803TIP3    H235901   3.666   5.540  12.305 -0.7970  0.1967 -0.7143
 4804TIP3   OH235902   3.071   4.879   1.868  0.4137 -0.6395  0.1336
 4804TIP3    H135903   2.983   4.881   1.906  0.9272 -3.6780  1.7459
 4804TIP3    H235904   3.109   4.963   1.893 -1.3971 -0.0007  0.9730
 4805TIP3   OH235905   2.124   2.678   5.722 -0.3869 -0.3860 -0.2331
 4805TIP3    H135906   2.057   2.639   5.667 -1.2247 -1.2264  1.2996
 4805TIP3    H235907   2.206   2.638   5.692 -0.9593 -1.6566 -0.1994
 4806TIP3   OH235908   5.782   5.951   4.354  0.4380 -0.4905 -0.0448
 4806TIP3    H135909   5.800   6.044   4.339 -1.1267 -0.3240 -1.1981
 4806TIP3    H235910   5.690   5.940   4.330  0.3780 -2.2037  0.7826
 4807TIP3   OH235911   2.673   6.022   3.753 -0.0122 -0.4434 -0.4011
 4807TIP3    H135912   2.749   5.964   3.747  1.0235  0.9884 -1.7394
 4807TIP3    H235913   2.671   6.048   3.845  1.3823 -0.1836 -0.4175
 4808TIP3   OH235914   1.533   3.492   3.375  0.1676  0.2507  0.4556
 4808TIP3    H135915   1.622   3.513   3.405  0.5897 -0.3761 -0.3040
 4808TIP3    H235916   1.528   3.534   3.289 -0.7173  1.3197  1.0124
 4809TIP3   OH235917   0.720   1.604   4.702 -0.3195 -0.2604 -0.4203
 4809TIP3    H135918   0.655   1.613   4.772  0.0565  2.2039 -0.2962
 4809TIP3    H235919   0.710   1.514   4.671 -1.6329 -0.9103  1.6745
 4810TIP3   OH235920   6.354   4.077  14.302 -0.3709 -0.0534 -0.4710
 4810TIP3    H135921   6.283   4.076  14.366 -0.4294 -0.6712 -0.5381
 4810TIP3    H235922   6.397   4.162  14.314 -0.9204  0.1863 -0.2104
 4811TIP3   OH235923   5.196   5.233  12.406  0.0275 -0.0221 -0.0087
 4811TIP3    H135924   5.192   5.236  12.310 -1.2420  0.5925  0.0470
 4811TIP3    H235925   5.195   5.140  12.427  0.6947 -0.1689 -0.6016
 4812TIP3   OH235926   3.295   2.564  12.545  0.0855 -0.1789  0.8126
 4812TIP3    H135927   3.236   2.489  12.540 -0.1936  0.1055 -1.0273
 4812TIP3    H235928   3.315   2.574  12.638  0.6635 -2.9246  1.0442
 4813TIP3   OH235929   4.639   4.961   5.056  1.1347  0.3216  0.1287
 4813TIP3    H135930   4.701   4.969   4.984  1.3410 -0.5015  0.1938
 4813TIP3    H235931   4.670   5.023   5.122 -0.0599  2.3688 -1.1448
 4814TIP3   OH235932   2.719   1.604   0.665  0.2177  0.2438  0.4758
 4814TIP3    H135933   2.798   1.622   0.614 -1.2070  1.6413 -1.3951
 4814TIP3    H235934   2.649   1.650   0.618 -2.0593 -2.3954  1.0224
 4815TIP3   OH235935   5.105   4.336   6.347 -0.5417  0.0787  0.0211
 4815TIP3    H135936   5.050   4.413   6.335  0.1668  0.9122  1.7566
 4815TIP3    H235937   5.181   4.352   6.292 -0.6022  0.4172  0.0351
 4816TIP3   OH235938   2.592   1.958   0.276 -0.0498 -0.0272  0.6629
 4816TIP3    H135939   2.538   2.017   0.223  2.4257  0.6605 -1.2977
 4816TIP3    H235940   2.581   1.872   0.235  1.3622  0.3865 -0.6900
 4817TIP3   OH235941   1.410   1.450   1.021 -0.5032 -0.1027 -0.4687
 4817TIP3    H135942   1.332   1.424   1.070  0.3111 -2.1828 -0.1565
 4817TIP3    H235943   1.396   1.415   0.933  0.5019 -1.4903 -0.1173
 4818TIP3   OH235944   2.169   1.199   2.279 -0.6323  0.1022 -0.3566
 4818TIP3    H135945   2.145   1.249   2.357  1.8126 -0.2591  0.7224
 4818TIP3    H235946   2.258   1.229   2.258 -0.5583 -1.1005 -1.9384
 4819TIP3   OH235947   2.654   5.976  15.039  0.5602  0.0922  0.1032
 4819TIP3    H135948   2.634   6.017  15.123  1.7140 -1.2000  1.0573
 4819TIP3    H235949   2.665   5.883  15.059  0.3316 -0.3448 -1.5824
 4820TIP3   OH235950   5.118   1.036   2.884  0.3667  0.1399  0.5915
 4820TIP3    H135951   5.105   1.122   2.923  1.4034  1.2794 -1.4098
 4820TIP3    H235952   5.037   1.019   2.836  1.8766  2.4567 -3.2291
 4821TIP3   OH235953   0.412   1.420  13.601  0.0192  0.0110 -0.1014
 4821TIP3    H135954   0.352   1.348  13.582  0.2153 -0.2840  0.3711
 4821TIP3    H235955   0.438   1.406  13.692 -0.6440  1.1961  0.3030
 4822TIP3   OH235956   1.836   4.862  11.843 -0.2383  0.2722  0.1418
 4822TIP3    H135957   1.757   4.917  11.845 -0.4398  0.0134 -0.4770
 4822TIP3    H235958   1.856   4.853  11.750  0.0143 -0.3927  0.2592
 4823TIP3   OH235959   2.106   4.732   1.967 -0.0432  0.8859  0.3206
 4823TIP3    H135960   2.193   4.757   1.937 -0.0035 -0.3544 -0.6593
 4823TIP3    H235961   2.115   4.641   1.995 -0.9306  0.8847  0.6279
 4824TIP3   OH235962   1.470   6.153   3.583 -0.1974  0.0499  0.0105
 4824TIP3    H135963   1.511   6.231   3.546  0.8381  0.5398  2.0295
 4824TIP3    H235964   1.407   6.186   3.647 -0.1802 -0.7551  0.4631
 4825TIP3   OH235965   2.689   4.434   3.003 -0.2240 -0.8226  0.0997
 4825TIP3    H135966   2.745   4.369   2.960 -0.3927 -0.6384 -0.3975
 4825TIP3    H235967   2.692   4.410   3.096  0.7804 -0.7506  0.0992
 4826TIP3   OH235968   5.206   0.302  12.808  0.0179  0.0369 -0.2325
 4826TIP3    H135969   5.193   0.380  12.864 -1.2201  1.0213 -1.7862
 4826TIP3    H235970   5.300   0.286  12.811  0.0577  0.2798  1.7896
 4827TIP3   OH235971   4.087   5.862   1.740 -0.0926  0.0023  0.3812
 4827TIP3    H135972   4.087   5.768   1.727 -0.5233 -0.1109  1.1406
 4827TIP3    H235973   4.179   5.887   1.732  0.1024 -0.5725  0.7634
 4828TIP3   OH235974   1.746   0.610   4.182  0.5228  0.1128  0.3047
 4828TIP3    H135975   1.792   0.554   4.120  0.3063  1.3476 -1.0331
 4828TIP3    H235976   1.746   0.697   4.141  0.6468  1.0592  2.1947
 4829TIP3   OH235977   3.212   1.760  13.855 -0.1952  0.7308  0.3969
 4829TIP3    H135978   3.234   1.686  13.799 -0.7585  1.2800 -0.5637
 4829TIP3    H235979   3.228   1.728  13.944  0.1566 -0.3380 -0.0390
 4830TIP3   OH235980   1.755   1.841   3.447 -0.4447 -0.4941 -0.5990
 4830TIP3    H135981   1.686   1.908   3.442 -0.8936 -0.8682  0.3671
 4830TIP3    H235982   1.708   1.758   3.448 -0.4322 -0.7660  4.4974
 4831TIP3   OH235983   5.208   4.151  16.038 -0.3273 -0.4676  0.4239
 4831TIP3    H135984   5.240   4.061  16.047  1.8353  0.1445 -0.4545
 4831TIP3    H235985   5.279   4.205  16.073 -2.7181  0.9149  3.6831
 4832TIP3   OH235986   1.827   5.513  15.116  0.0651 -0.2604  0.3862
 4832TIP3    H135987   1.897   5.468  15.165  1.6341  1.4225 -0.1737
 4832TIP3    H235988   1.827   5.472  15.030  2.1971  1.3453 -0.4686
 4833TIP3   OH235989   2.948   0.929  14.069 -0.2594  0.3299  0.6662
 4833TIP3    H135990   2.962   0.984  14.146 -0.8418  1.5504 -0.0680
 4833TIP3    H235991   2.910   0.848  14.103 -0.2971  0.7621  1.6794
 4834TIP3   OH235992   2.721   2.508  13.874  0.2015 -0.2654  0.5202
 4834TIP3    H135993   2.799   2.492  13.926  1.3387 -0.2660 -1.1098
 4834TIP3    H235994   2.650   2.517  13.938  0.7585 -4.1121  1.9312
 4835TIP3   OH235995   6.024   6.657   5.133 -0.4199 -0.2100  0.3093
 4835TIP3    H135996   5.929   6.657   5.140 -0.6406  2.2135 -1.1912
 4835TIP3    H235997   6.045   6.573   5.092 -2.0709 -0.2444 -0.5712
 4836TIP3   OH235998   5.261   5.249   2.011  0.3605  0.7097  0.2321
 4836TIP3    H135999   5.248   5.168   1.962  0.5653  0.4692  0.5708
 4836TIP3    H236000   5.348   5.280   1.985  0.4157  0.6498  0.3418
 4837TIP3   OH236001   6.029   5.813  15.511  0.1534 -0.0486 -0.3940
 4837TIP3    H136002   6.099   5.810  15.446  0.0907 -0.0418 -0.4630
 4837TIP3    H236003   6.054   5.883  15.571 -1.2592  2.0700 -2.1187
 4838TIP3   OH236004   5.242   1.735  14.355 -0.2201 -0.8693 -0.1476
 4838TIP3    H136005   5.332   1.718  14.382  0.1857  0.1006 -0.8678
 4838TIP3    H236006   5.190   1.713  14.432  0.7351 -0.2312  0.7089
 4839TIP3   OH236007   1.904   1.153   1.664  0.2673 -0.7819 -0.8488
 4839TIP3    H136008   1.815   1.152   1.629  0.1030  0.0416 -0.4857
 4839TIP3    H236009   1.951   1.213   1.606  0.7729 -1.7274 -1.4456
 4840TIP3   OH236010   4.276   1.110   1.043 -0.5824 -0.7987  0.0825
 4840TIP3    H136011   4.330   1.049   0.993  0.8545  0.1277  0.4545
 4840TIP3    H236012   4.314   1.110   1.131 -1.2206 -0.1670  0.3681
 4841TIP3   OH236013   2.898   5.544   1.322 -0.1219  0.0728  0.3492
 4841TIP3    H136014   2.957   5.560   1.248  0.1336 -0.1541  0.5019
 4841TIP3    H236015   2.943   5.582   1.398 -1.3598  2.2796  0.0702
 4842TIP3   OH236016   5.468   6.390   0.086 -0.1807 -0.0087 -0.0782
 4842TIP3    H136017   5.522   6.452   0.038  0.1925  0.0203  0.3745
 4842TIP3    H236018   5.381   6.398   0.046 -0.3172  1.3066  0.4232
 4843TIP3   OH236019   3.044   3.902  11.604 -0.4305  0.3695  0.0259
 4843TIP3    H136020   3.031   3.996  11.587  1.7271  0.4968 -1.2560
 4843TIP3    H236021   3.139   3.890  11.604 -0.6571 -1.9794 -0.7414
 4844TIP3   OH236022   4.370   2.570  16.236 -0.1720  0.1267 -0.3255
 4844TIP3    H136023   4.430   2.604  16.302 -0.5224 -1.3921  0.8258
 4844TIP3    H236024   4.285   2.606  16.259 -0.6675 -1.8828  1.2783
 4845TIP3   OH236025   2.309   3.599  13.976 -0.4876  0.1267 -0.1323
 4845TIP3    H136026   2.299   3.513  13.935 -1.2057  0.1590 -0.0262
 4845TIP3    H236027   2.359   3.650  13.912  0.7141 -0.6177  0.1684
 4846TIP3   OH236028   2.817   2.073   0.393  0.2596 -0.1340 -0.9883
 4846TIP3    H136029   2.734   2.036   0.362  1.4220 -2.4885 -1.4920
 4846TIP3    H236030   2.809   2.075   0.488 -1.7088  3.1939 -1.0469
 4847TIP3   OH236031   4.650   3.191   3.036  0.3418 -0.4293 -0.4673
 4847TIP3    H136032   4.677   3.280   3.060  0.2088 -0.7405  0.9462
 4847TIP3    H236033   4.732   3.142   3.031  0.4471 -0.1535 -1.6336
 4848TIP3   OH236034   1.336   1.516   4.145 -0.0960 -0.2292 -0.5083
 4848TIP3    H136035   1.250   1.543   4.180 -0.7271  0.3454 -2.3861
 4848TIP3    H236036   1.391   1.593   4.159 -0.2736 -0.0889 -0.5641
 4849TIP3   OH236037   4.788   6.265  11.162 -0.1038 -0.2138  0.1384
 4849TIP3    H136038   4.832   6.342  11.197 -0.8571  0.4466 -0.3271
 4849TIP3    H236039   4.700   6.269  11.198 -0.2114 -0.7456 -0.0529
 4850TIP3   OH236040   6.493   4.182   1.980  0.3387  0.2808 -0.0290
 4850TIP3    H136041   6.568   4.214   2.031 -0.5471  4.1723 -0.8683
 4850TIP3    H236042   6.530   4.156   1.896  1.0417 -0.5659  0.5183
 4851TIP3   OH236043   4.411   3.399  16.503 -0.6141  0.2464 -0.5675
 4851TIP3    H136044   4.318   3.378  16.495 -0.8488  0.9513  0.2067
 4851TIP3    H236045   4.438   3.358  16.585  0.0728 -0.9814 -1.3623
 4852TIP3   OH236046   4.355   4.368  16.662 -0.2329 -0.1263  0.9830
 4852TIP3    H136047   4.426   4.340  16.604 -0.4377  2.1095 -0.4956
 4852TIP3    H236048   4.276   4.333  16.620 -0.3498  1.2116 -0.0040
 4853TIP3   OH236049   0.959   1.155   2.790  0.2486 -0.0869 -0.0008
 4853TIP3    H136050   0.963   1.242   2.830  1.3910 -0.3456  0.5035
 4853TIP3    H236051   1.015   1.161   2.713  1.9236 -0.8434  1.0763
 4854TIP3   OH236052   5.777   0.948  14.221  0.0018  0.8038  0.7566
 4854TIP3    H136053   5.698   0.897  14.204  0.6155 -0.9709  2.7591
 4854TIP3    H236054   5.844   0.910  14.164 -0.1342  1.0501  0.4315
 4855TIP3   OH236055   5.955   0.299   1.667 -0.5286 -0.3738  0.1078
 4855TIP3    H136056   5.979   0.207   1.673  0.1205 -0.1464  1.1274
 4855TIP3    H236057   5.883   0.301   1.603 -1.4090 -1.7503  0.9956
 4856TIP3   OH236058   2.791   5.208  14.489 -0.2590 -0.0430  0.5565
 4856TIP3    H136059   2.730   5.250  14.548 -1.0574 -0.0548 -0.2355
 4856TIP3    H236060   2.736   5.170  14.420  0.6450  0.0927 -0.2689
 4857TIP3   OH236061   5.962   5.782   4.495 -0.0143  0.2064  0.0605
 4857TIP3    H136062   5.911   5.823   4.425  1.6411  1.5675 -0.4281
 4857TIP3    H236063   6.049   5.821   4.487  0.7806 -1.1051  1.6310
 4858TIP3   OH236064   3.835   2.187   0.930  0.1816 -0.3290  1.0416
 4858TIP3    H136065   3.849   2.161   0.839 -0.6013  1.9162  0.2089
 4858TIP3    H236066   3.775   2.120   0.964 -0.3464 -0.6489 -0.4078
 4859TIP3   OH236067   4.902   0.081  14.928 -0.6352  0.1109 -0.0327
 4859TIP3    H136068   4.827   0.054  14.981 -0.9239 -0.1493 -0.5720
 4859TIP3    H236069   4.968   0.106  14.992 -0.7289 -0.8662  0.4632
 4860TIP3   OH236070   0.116   6.027   3.057 -0.1188 -0.2004 -0.7089
 4860TIP3    H136071   0.197   6.076   3.065 -0.6821  0.6860 -0.3213
 4860TIP3    H236072   0.141   5.947   3.010  1.7768 -1.8782  2.7291
 4861TIP3   OH236073   5.869   0.448  14.417 -0.3328  0.3210 -0.1866
 4861TIP3    H136074   5.828   0.467  14.332 -1.1527  0.4236  0.2298
 4861TIP3    H236075   5.825   0.368  14.447  1.1421 -0.7060 -0.6345
 4862TIP3   OH236076   0.065   3.856   4.529  0.1116 -0.6924  0.1585
 4862TIP3    H136077   0.120   3.806   4.590 -0.0396 -0.6275  0.3480
 4862TIP3    H236078   0.120   3.931   4.504  0.1733 -0.7175  0.2171
 4863TIP3   OH236079   4.581   5.497  15.570 -0.1834  0.3425 -0.4423
 4863TIP3    H136080   4.640   5.524  15.500  2.2629 -0.7573  1.0429
 4863TIP3    H236081   4.502   5.465  15.526  0.2844  1.8930 -2.5213
 4864TIP3   OH236082   2.589   5.972  17.042  0.5385 -0.0591  0.6153
 4864TIP3    H136083   2.583   5.996  16.950 -0.8477 -0.9786  0.4516
 4864TIP3    H236084   2.500   5.949  17.067  0.9974 -0.3829  2.0411
 4865TIP3   OH236085   4.126   6.277   1.023  0.1020 -0.5274 -0.4014
 4865TIP3    H136086   4.183   6.295   1.098  1.3767 -1.1869 -1.1782
 4865TIP3    H236087   4.071   6.204   1.051 -1.0506  0.6819  0.6728
 4866TIP3   OH236088   1.734   1.749  10.481  0.3909  0.2928  0.3056
 4866TIP3    H136089   1.779   1.815  10.534  1.4687  0.1187 -0.3622
 4866TIP3    H236090   1.800   1.681  10.467 -0.4935 -0.6114  0.4073
 4867TIP3   OH236091   0.582   0.118   0.214 -0.1412  0.0668 -0.4831
 4867TIP3    H136092   0.496   0.130   0.176  0.2007  1.0013 -0.9812
 4867TIP3    H236093   0.602   0.201   0.257  0.3980 -0.2301 -0.1390
 4868TIP3   OH236094   3.498   0.611   0.211  0.0443 -0.6710  0.1842
 4868TIP3    H136095   3.464   0.679   0.268 -1.4415 -0.1557 -1.2164
 4868TIP3    H236096   3.419   0.567   0.178  0.8539 -1.1238 -1.2218
 4869TIP3   OH236097   4.004   6.386  13.715 -0.4901 -0.2977 -0.2686
 4869TIP3    H136098   3.974   6.469  13.753 -0.7456 -0.7921  0.6334
 4869TIP3    H236099   4.096   6.380  13.743 -0.3588 -0.1326 -0.6636
 4870TIP3   OH236100   1.007   3.058   4.349  0.3380 -0.5343 -0.1887
 4870TIP3    H136101   1.043   2.990   4.406  1.2149 -1.5774 -1.9314
 4870TIP3    H236102   1.000   3.017   4.263  0.3120  1.3973 -1.1644
 4871TIP3   OH236103   4.555   0.692   1.561  0.2917  0.1176  0.0628
 4871TIP3    H136104   4.497   0.646   1.500 -1.5054  1.1038  0.9334
 4871TIP3    H236105   4.571   0.630   1.632 -0.5047  0.1508  0.2775
 4872TIP3   OH236106   5.610   0.588   5.274  0.4350 -0.1053 -0.2599
 4872TIP3    H136107   5.664   0.533   5.216  1.2637  0.4326 -0.0233
 4872TIP3    H236108   5.556   0.526   5.323  1.3444 -0.7174 -0.0070
 4873TIP3   OH236109   3.961   5.838  14.886  0.0076  0.6935  0.5469
 4873TIP3    H136110   3.971   5.912  14.825 -0.7294  1.3209  1.1577
 4873TIP3    H236111   3.959   5.879  14.972 -2.8546  0.2546  0.8012
 4874TIP3   OH236112   6.596   1.030   0.188  0.7460 -0.4322  0.2030
 4874TIP3    H136113   6.674   1.027   0.133 -0.1584 -0.0099 -1.1784
 4874TIP3    H236114   6.624   1.071   0.269  1.8349  0.2266 -0.4898
 4875TIP3   OH236115   5.369   4.047   1.783 -0.3897  0.5270  0.3941
 4875TIP3    H136116   5.461   4.070   1.777 -0.5558  1.8193  2.0570
 4875TIP3    H236117   5.367   3.951   1.772  1.3895  0.2024  2.3914
 4876TIP3   OH236118   4.642   3.449   1.922 -0.2642 -0.3505 -0.2433
 4876TIP3    H136119   4.593   3.425   2.001 -1.4331  1.1180 -0.4888
 4876TIP3    H236120   4.663   3.541   1.933 -0.7223 -0.0289 -1.7745
 4877TIP3   OH236121   0.305   0.778  13.948  0.0280 -0.6580 -0.1632
 4877TIP3    H136122   0.232   0.736  13.995 -1.0829 -0.0172 -1.2765
 4877TIP3    H236123   0.300   0.870  13.974 -1.0498 -0.1472 -2.0280
 4878TIP3   OH236124   3.582   4.780  12.393 -0.2877 -0.8773 -0.1598
 4878TIP3    H136125   3.514   4.844  12.414 -0.6938 -1.3137 -0.1357
 4878TIP3    H236126   3.586   4.779  12.298 -1.4502 -2.0242 -0.2113
 4879TIP3   OH236127   2.700   0.652  13.959  0.1552  0.1582  0.2941
 4879TIP3    H136128   2.665   0.664  13.871 -0.4910  2.1886  0.7794
 4879TIP3    H236129   2.623   0.648  14.016  0.5773 -0.7281  0.8257
 4880TIP3   OH236130   3.168   2.542   2.037 -0.0582  0.5331  0.1727
 4880TIP3    H136131   3.258   2.545   2.069  0.5908 -0.9616 -1.3420
 4880TIP3    H236132   3.162   2.616   1.977 -0.3817  1.5952  1.4590
 4881TIP3   OH236133   3.147   2.015   6.829 -0.5182  0.0087  0.1031
 4881TIP3    H136134   3.073   2.070   6.807  0.0362  1.0810  0.8171
 4881TIP3    H236135   3.108   1.933   6.861 -1.3382 -0.1899 -1.3319
 4882TIP3   OH236136   1.396   1.365   3.149  0.2713  0.0792 -0.4655
 4882TIP3    H136137   1.385   1.378   3.243  0.4643 -2.4845 -0.0161
 4882TIP3    H236138   1.308   1.372   3.113 -0.0947 -0.7428  0.2174
 4883TIP3   OH236139   4.317   0.620  11.839  0.4715 -0.2986  0.0302
 4883TIP3    H136140   4.338   0.527  11.838 -0.8066 -0.6200  0.9358
 4883TIP3    H236141   4.310   0.642  11.932  0.0441  0.5417 -0.1926
 4884TIP3   OH236142   1.123   3.200   1.562  0.1754  0.1098 -0.1188
 4884TIP3    H136143   1.033   3.220   1.586 -0.0651 -1.2515  0.1847
 4884TIP3    H236144   1.150   3.273   1.507 -1.1516  0.4695 -0.3255
 4885TIP3   OH236145   2.905   0.013  17.208  0.4574 -0.0930 -0.2231
 4885TIP3    H136146   2.857   0.084  17.250  0.8980  1.7403 -2.6756
 4885TIP3    H236147   2.862  -0.000  17.124  1.4490 -1.5626 -0.5476
 4886TIP3   OH236148   6.357   3.671  12.770 -0.4718 -0.0216  0.1786
 4886TIP3    H136149   6.333   3.588  12.812 -0.3252  0.0277  0.3630
 4886TIP3    H236150   6.279   3.725  12.777  0.1579  0.7233  2.2315
 4887TIP3   OH236151   5.104   0.234   6.542  0.4409  0.0542 -0.9124
 4887TIP3    H136152   5.146   0.316   6.517  0.6278  0.5712  0.9362
 4887TIP3    H236153   5.166   0.191   6.601 -0.9616  0.1401  0.7150
 4888TIP3   OH236154   5.716   5.808  12.906  0.0747  0.3397  0.1311
 4888TIP3    H136155   5.685   5.727  12.865 -1.7122  1.2866 -0.4683
 4888TIP3    H236156   5.679   5.805  12.994  0.5078  0.2438  0.3146
 4889TIP3   OH236157   4.050   4.803  11.547  0.4701  0.2091  0.0491
 4889TIP3    H136158   4.106   4.805  11.469  0.5594 -0.1930  0.1024
 4889TIP3    H236159   3.961   4.811  11.513  0.5006 -0.0943 -0.1051
 4890TIP3   OH236160   4.824   5.938  16.392  0.4378 -0.4041  0.1512
 4890TIP3    H136161   4.745   5.930  16.445  0.0615 -1.5661 -0.5489
 4890TIP3    H236162   4.831   6.032  16.373 -1.2006 -0.3565 -0.3872
 4891TIP3   OH236163   0.995   5.930  13.633  0.1631  0.4209 -0.5497
 4891TIP3    H136164   0.958   5.972  13.555 -1.8952 -1.9759 -1.0019
 4891TIP3    H236165   1.089   5.924  13.615  0.1243  2.3253 -1.6116
 4892TIP3   OH236166   2.740   0.174   0.253 -0.5761  0.7646 -0.1082
 4892TIP3    H136167   2.669   0.223   0.294  0.8328  1.5806  1.4491
 4892TIP3    H236168   2.818   0.229   0.266  1.0580 -1.7459  1.5637
 4893TIP3   OH236169   3.915   2.222   1.280  0.1598 -0.1548 -0.3001
 4893TIP3    H136170   3.964   2.140   1.282 -0.5617 -0.6197  2.2178
 4893TIP3    H236171   3.975   2.287   1.319  0.2454  0.2176 -1.0402
 4894TIP3   OH236172   1.781   1.803   4.522 -0.2049 -0.1877  0.0389
 4894TIP3    H136173   1.787   1.720   4.474 -0.3331 -0.1662 -0.0148
 4894TIP3    H236174   1.835   1.789   4.600 -1.1898 -0.7540  0.6513
 4895TIP3   OH236175   0.920   6.562  13.739 -0.1028 -0.3056 -0.0585
 4895TIP3    H136176   0.837   6.581  13.695 -0.5100  0.0031  0.8229
 4895TIP3    H236177   0.965   6.647  13.743 -1.0398  0.1354  2.0762
 4896TIP3   OH236178   0.587   6.563   3.844 -0.3299  0.0684 -0.2733
 4896TIP3    H136179   0.580   6.480   3.892  1.8058  0.7240  1.3207
 4896TIP3    H236180   0.634   6.621   3.903  1.4087  1.3166 -2.7204
 4897TIP3   OH236181   4.027   6.312   6.212  0.4720 -0.3989 -0.0538
 4897TIP3    H136182   3.951   6.369   6.215  1.1566  0.6994 -2.0562
 4897TIP3    H236183   4.068   6.322   6.298 -0.7052  0.2688  0.4508
 4898TIP3   OH236184   5.783   3.863   5.026 -0.2912  0.1987  0.3503
 4898TIP3    H136185   5.802   3.812   5.104  0.2946  1.6055  1.1557
 4898TIP3    H236186   5.734   3.940   5.057 -1.9706 -0.2681 -0.9411
 4899TIP3   OH236187   4.155   4.059  14.825 -0.8436  0.6234  0.1418
 4899TIP3    H136188   4.220   4.100  14.882  0.3814 -1.3773  0.2949
 4899TIP3    H236189   4.200   4.049  14.741 -1.3249  0.1945 -0.0685
 4900TIP3   OH236190   3.652   0.723   1.167 -0.1410  0.7270 -0.3844
 4900TIP3    H136191   3.606   0.710   1.084 -0.6406  2.4163 -0.4065
 4900TIP3    H236192   3.591   0.772   1.221  0.6331  0.6762  0.5726
 4901TIP3   OH236193   5.566   1.023  16.038 -0.1699  0.1643 -0.1682
 4901TIP3    H136194   5.491   1.040  16.094  0.1061 -1.6889  0.8658
 4901TIP3    H236195   5.530   1.015  15.950 -0.5378  3.6671 -0.4474
 4902TIP3   OH236196   2.672   2.812  11.825 -0.1517 -0.6150  0.2630
 4902TIP3    H136197   2.676   2.882  11.889  1.5345 -0.5250  0.0978
 4902TIP3    H236198   2.700   2.733  11.872  4.4579 -0.0089 -0.9478
 4903TIP3   OH236199   2.842   5.879  14.610 -0.2334 -0.3837 -0.7756
 4903TIP3    H136200   2.916   5.839  14.655 -0.6656  0.2908  0.5770
 4903TIP3    H236201   2.768   5.821  14.629 -0.6390  0.4584  0.3123
 4904TIP3   OH236202   0.934   5.600   5.828 -0.2966 -0.3138 -0.0521
 4904TIP3    H136203   0.934   5.591   5.924 -1.0628 -0.1572 -0.0320
 4904TIP3    H236204   0.906   5.515   5.796 -0.3464 -0.2707 -0.1242
 4905TIP3   OH236205   0.822   2.507  14.495 -0.5074  0.0497  0.0966
 4905TIP3    H136206   0.897   2.555  14.530 -0.3267  0.6797 -1.0947
 4905TIP3    H236207   0.793   2.452  14.567  0.5451  0.4595  0.8602
 4906TIP3   OH236208   3.430   2.341   3.713  0.4507 -0.1846 -0.2829
 4906TIP3    H136209   3.439   2.246   3.699 -1.0142 -0.1914 -1.5783
 4906TIP3    H236210   3.495   2.380   3.654 -0.1845 -0.3878 -1.1522
 4907TIP3   OH236211   3.772   2.596   6.316  0.2181 -0.4349 -0.1689
 4907TIP3    H136212   3.691   2.588   6.265  0.4455  0.4097 -0.6998
 4907TIP3    H236213   3.745   2.637   6.398  0.0571 -0.4825 -0.1979
 4908TIP3   OH236214   1.103   1.474  14.716  0.0823 -0.1717 -0.7030
 4908TIP3    H136215   1.088   1.410  14.785 -1.5012  0.5984 -0.2892
 4908TIP3    H236216   1.047   1.549  14.739  0.0098  0.3657 -2.4511
 4909TIP3   OH236217   2.917   1.788  15.533  0.5740 -0.1956 -0.1105
 4909TIP3    H136218   2.955   1.709  15.573 -2.1895 -1.4755  0.1958
 4909TIP3    H236219   2.843   1.810  15.589  0.9109  2.2993 -0.5649
 4910TIP3   OH236220   1.724   5.113   1.392 -0.2568  0.0604  0.2392
 4910TIP3    H136221   1.638   5.148   1.417 -1.8160 -2.1800 -1.5603
 4910TIP3    H236222   1.730   5.030   1.440 -0.8905 -1.6457 -2.4534
 4911TIP3   OH236223   0.015   0.786  12.601 -0.2535  0.0874 -0.2664
 4911TIP3    H136224  -0.055   0.807  12.663 -0.4840  1.1015 -0.8410
 4911TIP3    H236225   0.019   0.691  12.600 -0.7213  0.0503  0.7754
 4912TIP3   OH236226   5.587   0.765   2.632  0.3747 -0.5383 -0.0508
 4912TIP3    H136227   5.663   0.818   2.656 -0.3129 -0.1158  1.2489
 4912TIP3    H236228   5.624   0.691   2.584  1.6468 -0.4946  0.8135
 4913TIP3   OH236229   4.531   1.695  14.753  0.9015  0.3929 -0.1434
 4913TIP3    H136230   4.455   1.691  14.695 -0.3530  0.0643  1.4451
 4913TIP3    H236231   4.606   1.677  14.696 -0.2132  0.6578 -1.7413
 4914TIP3   OH236232   4.858   0.788   3.090 -0.4425 -0.2076 -0.2460
 4914TIP3    H136233   4.800   0.736   3.146 -1.6130  1.3930  0.0981
 4914TIP3    H236234   4.942   0.787   3.136 -0.4852 -1.6225 -0.1649
 4915TIP3   OH236235   1.213   4.955   3.013 -0.9250  0.0349 -0.2133
 4915TIP3    H136236   1.202   4.891   3.083 -1.3375  1.1689  0.8049
 4915TIP3    H236237   1.294   5.002   3.037 -1.3751  0.8070 -0.1630
 4916TIP3   OH236238   5.265   3.682   4.464 -0.7468 -0.0781 -0.0024
 4916TIP3    H136239   5.352   3.705   4.433 -0.6792  0.8363  0.8240
 4916TIP3    H236240   5.209   3.687   4.387 -0.1863 -0.0760 -0.4127
 4917TIP3   OH236241   2.069   4.332   1.616  0.1464 -0.2881  0.3895
 4917TIP3    H136242   2.150   4.297   1.652  0.4647  1.2964  1.3067
 4917TIP3    H236243   2.095   4.377   1.535  0.2551  0.4564  0.8253
 4918TIP3   OH236244   0.629   0.067  11.075 -0.1734 -0.4817  0.2721
 4918TIP3    H136245   0.649  -0.001  11.011 -0.0885  0.4024 -0.6568
 4918TIP3    H236246   0.686   0.047  11.150 -0.6743 -1.8428  0.3212
 4919TIP3   OH236247   4.107   6.130   5.675 -0.3299 -0.1436  0.2957
 4919TIP3    H136248   4.088   6.039   5.654 -1.7772  0.7240 -2.8726
 4919TIP3    H236249   4.198   6.142   5.648  0.1702 -0.8152  1.6050
 4920TIP3   OH236250   3.065   1.866   7.115 -0.5081 -0.5989  0.0627
 4920TIP3    H136251   3.161   1.866   7.118 -0.4655  2.0528  0.6071
 4920TIP3    H236252   3.039   1.837   7.203 -0.1679 -0.1762  0.3084
 4921TIP3   OH236253   4.888   5.160   5.141 -0.3670 -0.6244  0.2205
 4921TIP3    H136254   4.935   5.243   5.134 -1.3487  0.1122  1.5770
 4921TIP3    H236255   4.949   5.094   5.111  0.7576  0.5079 -0.0583
 4922TIP3   OH236256   6.154   3.404   1.180 -0.3511  0.4509  0.1366
 4922TIP3    H136257   6.214   3.403   1.254 -0.1696  0.4853 -0.0113
 4922TIP3    H236258   6.068   3.423   1.219 -0.5844 -1.3491  0.5750
 4923TIP3   OH236259   3.495   2.577   6.290 -0.1164  1.0931  0.3065
 4923TIP3    H136260   3.464   2.537   6.371  2.7225  0.9371  1.4334
 4923TIP3    H236261   3.466   2.518   6.220 -1.5832  0.6006  1.3053
 4924TIP3   OH236262   3.857   5.384  16.581 -0.1331 -0.5159 -0.2848
 4924TIP3    H136263   3.798   5.376  16.656 -0.7629  0.6391 -0.6382
 4924TIP3    H236264   3.898   5.470  16.590 -0.3478 -0.2851 -1.3410
 4925TIP3   OH236265   6.214   6.275   5.377 -0.7045  0.0056 -0.7001
 4925TIP3    H136266   6.242   6.195   5.334  0.7460 -0.8757  1.6590
 4925TIP3    H236267   6.192   6.248   5.466 -0.9508  2.0999 -0.0591
 4926TIP3   OH236268   0.469   4.261  15.468  0.0607  0.4173 -0.6412
 4926TIP3    H136269   0.406   4.259  15.397 -1.4032  1.3684  0.5709
 4926TIP3    H236270   0.427   4.314  15.536  1.7922  0.3234  0.5685
 4927TIP3   OH236271   4.001   1.597  14.008  0.1268 -0.2983 -0.1187
 4927TIP3    H136272   3.982   1.504  13.997 -0.1716 -0.2077 -0.3843
 4927TIP3    H236273   4.095   1.600  14.027 -0.1942 -0.7881  1.6784
 4928TIP3   OH236274   5.848   2.660   4.591  0.3833  0.0324 -0.0240
 4928TIP3    H136275   5.924   2.703   4.552  1.6227 -2.0254 -0.0275
 4928TIP3    H236276   5.781   2.664   4.523  1.0036  0.4801 -0.6223
 4929TIP3   OH236277   1.228   5.597  13.819  0.2136  0.7451  0.1495
 4929TIP3    H136278   1.307   5.593  13.873 -0.1190 -2.7218  0.6152
 4929TIP3    H236279   1.158   5.616  13.881  0.4555  2.3348 -0.0291
 4930TIP3   OH236280   4.177   0.101   0.418 -0.2788  0.3277  0.0077
 4930TIP3    H136281   4.166   0.085   0.511 -0.1600  0.2291  0.0035
 4930TIP3    H236282   4.090   0.131   0.389 -0.5916 -0.6039 -0.0538
 4931TIP3   OH236283   0.019   4.271  11.478  0.3318 -0.6080  0.0109
 4931TIP3    H136284  -0.050   4.274  11.544  0.6144 -0.6052  0.3099
 4931TIP3    H236285   0.086   4.215  11.516  2.1322  2.1967  1.3537
 4932TIP3   OH236286   3.196   6.215   1.518  0.1881 -0.4737  0.0855
 4932TIP3    H136287   3.227   6.142   1.571 -0.1693 -0.2770  0.5733
 4932TIP3    H236288   3.212   6.292   1.573  1.3337 -0.0802 -0.7421
 4933TIP3   OH236289   1.139   3.714   6.456 -0.5244 -0.1343 -0.1170
 4933TIP3    H136290   1.124   3.642   6.395 -0.0390  0.1809 -0.6256
 4933TIP3    H236291   1.148   3.672   6.541 -1.6844 -0.5409 -0.1809
 4934TIP3   OH236292   0.414   0.649   5.417 -0.3600  0.3951  0.0039
 4934TIP3    H136293   0.365   0.667   5.497 -1.4226  0.3980 -0.6293
 4934TIP3    H236294   0.462   0.568   5.436  2.3654  2.2708  1.9295
 4935TIP3   OH236295   0.236   4.505  16.664  0.0130  0.2922 -0.0151
 4935TIP3    H136296   0.304   4.557  16.622  0.2037  2.0588  2.2692
 4935TIP3    H236297   0.154   4.538  16.627  0.2665 -1.1163 -1.9993
 4936TIP3   OH236298   3.708   5.600  13.034 -0.2231  0.2565 -0.1250
 4936TIP3    H136299   3.758   5.672  12.997 -0.3155  0.1341 -0.4981
 4936TIP3    H236300   3.633   5.642  13.076  0.8036  0.5406  1.5119
 4937TIP3   OH236301   4.365   5.647   4.307  0.2421 -0.2288  0.1367
 4937TIP3    H136302   4.342   5.688   4.390 -0.7112  1.2998 -0.8310
 4937TIP3    H236303   4.309   5.569   4.302 -1.9508  1.2767 -0.3586
 4938TIP3   OH236304   2.605   6.369  17.077 -0.0179  0.4441  0.6315
 4938TIP3    H136305   2.591   6.463  17.092 -0.4046  0.2504  1.5758
 4938TIP3    H236306   2.664   6.342  17.147 -0.8011 -0.2382  1.0487
 4939TIP3   OH236307   3.803   6.511  16.377 -0.3273 -0.1289 -0.1628
 4939TIP3    H136308   3.774   6.422  16.397  1.4096 -0.9473 -1.0866
 4939TIP3    H236309   3.887   6.519  16.422 -0.4031  1.0044 -0.2084
 4940TIP3   OH236310   6.183   3.768   4.924  0.2799 -0.2314 -0.0738
 4940TIP3    H136311   6.271   3.790   4.955 -0.0535  1.0538  0.0464
 4940TIP3    H236312   6.143   3.721   4.997  0.4077  0.4257  0.4373
 4941TIP3   OH236313   3.025   4.717  17.223  0.2370 -0.2223 -0.2261
 4941TIP3    H136314   3.025   4.808  17.195  1.5957 -0.0462  0.2640
 4941TIP3    H236315   2.933   4.692  17.227 -0.1320  1.0462 -0.6022
 4942TIP3   OH236316   6.824   2.544  13.670  0.3105 -0.3975 -0.3442
 4942TIP3    H136317   6.793   2.456  13.690 -1.4667  0.1455 -0.4769
 4942TIP3    H236318   6.839   2.544  13.576 -0.9773 -0.2394 -0.5795
 4943TIP3   OH236319   6.360   1.017   2.271 -0.1880  0.0483  0.2449
 4943TIP3    H136320   6.349   0.984   2.182 -0.0311  0.0026  0.2413
 4943TIP3    H236321   6.380   0.938   2.323 -0.3608  0.0632  0.3344
 4944TIP3   OH236322   3.870   4.540  14.580  0.3951 -0.1656 -0.5598
 4944TIP3    H136323   3.839   4.591  14.655 -2.0890  1.6341 -2.6341
 4944TIP3    H236324   3.966   4.541  14.589  0.3052  2.2875  1.1499
 4945TIP3   OH236325   0.508   0.531   1.347  0.0506  0.4904  0.4020
 4945TIP3    H136326   0.470   0.480   1.274 -0.0641  2.8728 -1.3189
 4945TIP3    H236327   0.595   0.556   1.315 -0.4495  2.5586  0.5292
 4946TIP3   OH236328   4.613   5.678   2.518  0.3796 -0.0008  0.3463
 4946TIP3    H136329   4.593   5.643   2.605  0.4587  0.4058  0.5288
 4946TIP3    H236330   4.577   5.613   2.457  1.1199 -0.7353  0.6785
 4947TIP3   OH236331   5.475   1.960  14.338  0.2447 -0.0585  0.4287
 4947TIP3    H136332   5.396   1.998  14.299  0.5640  0.2158  0.0395
 4947TIP3    H236333   5.453   1.868  14.351 -0.2829  0.1034  0.7090
 4948TIP3   OH236334   0.500   1.473  10.887  0.3419  0.0550  0.1600
 4948TIP3    H136335   0.500   1.424  10.805 -2.1497 -0.8351  0.5978
 4948TIP3    H236336   0.495   1.406  10.955 -1.2092  0.8274  0.8618
 4949TIP3   OH236337   4.109   6.685   0.594  0.0765 -0.3522  0.6752
 4949TIP3    H136338   4.139   6.609   0.643 -1.8185 -1.6435 -0.0686
 4949TIP3    H236339   4.157   6.681   0.511  1.4664  0.4550  1.4020
 4950TIP3   OH236340   3.345   2.200   6.739 -0.2114 -0.0749 -0.6841
 4950TIP3    H136341   3.360   2.276   6.795 -1.0284  0.9882 -1.8502
 4950TIP3    H236342   3.288   2.143   6.791  0.8242 -0.1752  0.4048
 4951TIP3   OH236343   5.822   0.029   1.532 -0.1347 -0.5141  0.3921
 4951TIP3    H136344   5.823  -0.042   1.469 -0.3212  0.2644 -0.5075
 4951TIP3    H236345   5.904   0.019   1.582  0.1774 -0.9296 -0.2010
 4952TIP3   OH236346   5.267   3.231   6.074 -0.5151  0.1419  0.0016
 4952TIP3    H136347   5.245   3.158   6.017 -0.0683  0.3773 -0.4858
 4952TIP3    H236348   5.194   3.293   6.065  1.1237  1.8335 -3.1435
 4953TIP3   OH236349   0.032   6.461  12.381  0.5212  0.2301  0.0495
 4953TIP3    H136350  -0.012   6.539  12.415  1.6250  1.3882 -1.0497
 4953TIP3    H236351  -0.017   6.387  12.418  0.0014  1.4140  1.8687
 4954TIP3   OH236352   4.350   0.320  13.581 -0.1878  0.1207  0.0019
 4954TIP3    H136353   4.379   0.249  13.524  0.1406  0.2319  0.0244
 4954TIP3    H236354   4.314   0.386  13.521  0.8295  0.5599 -0.1622
 4955TIP3   OH236355   3.462   0.340  16.404 -0.3281  0.0276  0.3352
 4955TIP3    H136356   3.507   0.255  16.407 -0.8041 -0.3025 -1.1878
 4955TIP3    H236357   3.525   0.398  16.361 -1.1258 -0.2983 -1.3020
 4956TIP3   OH236358   4.783   5.371   3.065  0.1482 -0.2350 -0.6908
 4956TIP3    H136359   4.735   5.293   3.091 -1.7493  0.8939 -0.6030
 4956TIP3    H236360   4.797   5.419   3.147 -0.8999  0.6702 -1.0180
 4957TIP3   OH236361   0.055   5.141  11.236  0.9780  0.4661 -0.3654
 4957TIP3    H136362  -0.006   5.091  11.182  1.6166  0.2638 -0.9061
 4957TIP3    H236363   0.000   5.178  11.306  0.2369  0.3058 -0.8525
 4958TIP3   OH236364   1.861   3.619  17.050  0.7574 -0.0802 -0.1503
 4958TIP3    H136365   1.819   3.565  16.982 -1.4574  0.8489  0.4016
 4958TIP3    H236366   1.943   3.573  17.069  1.1489 -0.7356 -2.9464
 4959TIP3   OH236367   6.317   4.896   5.037 -0.0677 -0.2125 -0.5354
 4959TIP3    H136368   6.329   4.962   5.105  1.7454  0.7296 -1.6752
 4959TIP3    H236369   6.391   4.836   5.049 -1.4192 -1.8131  0.1746
 4960TIP3   OH236370   1.378   4.433  13.845 -0.4802  0.1269 -0.3490
 4960TIP3    H136371   1.399   4.469  13.931 -0.7319  1.6244 -0.8793
 4960TIP3    H236372   1.425   4.349  13.842  2.0882  1.4377  0.0781
 4961TIP3   OH236373   3.865   3.350   0.323 -0.2244  0.0687  0.3037
 4961TIP3    H136374   3.776   3.316   0.316 -0.0788 -0.5341  1.2284
 4961TIP3    H236375   3.875   3.374   0.415  0.6199 -0.0054  0.2415
 4962TIP3   OH236376   2.513   4.785  12.527 -0.2078  0.2669 -0.6516
 4962TIP3    H136377   2.475   4.700  12.545 -0.4716  0.4128 -0.5136
 4962TIP3    H236378   2.524   4.826  12.614 -2.1592  1.2660 -0.8117
 4963TIP3   OH236379   3.885   4.864   5.016  0.1010 -0.5999 -0.3382
 4963TIP3    H136380   3.837   4.927   5.069  1.5007  0.3815 -0.1816
 4963TIP3    H236381   3.857   4.778   5.048 -1.4684 -0.0681 -0.2287
 4964TIP3   OH236382   3.757   2.916   4.663  0.2076  0.4291  0.0135
 4964TIP3    H136383   3.810   2.884   4.590  0.5433 -0.3175  0.5659
 4964TIP3    H236384   3.767   2.849   4.730 -0.3021  0.9824  0.6517
 4965TIP3   OH236385   3.578   1.454  15.581  0.1277 -0.2747  0.3203
 4965TIP3    H136386   3.539   1.539  15.601  1.9037  0.5199  0.5323
 4965TIP3    H236387   3.667   1.474  15.554  0.8936 -2.1447  1.3218
 4966TIP3   OH236388   4.332   6.456   0.065 -0.4548 -0.0990 -0.2142
 4966TIP3    H136389   4.241   6.438   0.088 -0.0879 -3.5135 -0.8129
 4966TIP3    H236390   4.347   6.403  -0.014  1.9937  0.5393 -0.2493
 4967TIP3   OH236391   3.485   6.056  15.905  0.4128 -0.2070 -0.5230
 4967TIP3    H136392   3.537   6.071  15.826  2.4151 -1.4635  0.5036
 4967TIP3    H236393   3.436   6.138  15.916 -0.5646 -0.2608 -3.4698
 4968TIP3   OH236394   1.209   5.309   1.227  0.1820  0.0681 -0.3192
 4968TIP3    H136395   1.235   5.225   1.266 -0.3821  0.0559  0.0307
 4968TIP3    H236396   1.197   5.367   1.302  0.1675  0.3510 -0.5405
 4969TIP3   OH236397   3.059   2.128   5.291  0.1897  0.0773  0.3766
 4969TIP3    H136398   3.040   2.205   5.344 -0.8381 -0.6518  1.1141
 4969TIP3    H236399   3.154   2.130   5.279  0.1584  1.5552  0.2095
 4970TIP3   OH236400   5.936   0.132   4.145 -0.0038  0.2452  1.0848
 4970TIP3    H136401   5.927   0.205   4.084 -1.7525 -1.6881 -1.1981
 4970TIP3    H236402   6.025   0.100   4.132 -0.4199 -0.3150 -0.8425
 4971TIP3   OH236403   2.409   3.246   0.270 -0.0411 -0.6951 -0.0831
 4971TIP3    H136404   2.345   3.316   0.283  1.9002  1.6027 -2.0202
 4971TIP3    H236405   2.438   3.222   0.358 -1.0896  0.5862  0.6387
 4972TIP3   OH236406   5.776   5.435  13.416 -0.1625  0.1792 -0.1962
 4972TIP3    H136407   5.850   5.415  13.359 -0.7035  1.8034 -1.5171
 4972TIP3    H236408   5.796   5.520  13.455  0.1144 -0.7969  1.9814
 4973TIP3   OH236409   4.469   6.207  11.189  0.1559 -0.4662  0.1060
 4973TIP3    H136410   4.520   6.127  11.175 -0.0601 -0.3915 -1.2866
 4973TIP3    H236411   4.383   6.176  11.219  0.7475 -0.6234  1.7680
 4974TIP3   OH236412   6.441   4.149   1.250 -0.2657  0.4060  0.0081
 4974TIP3    H136413   6.404   4.234   1.273  0.2525  1.2099 -1.9044
 4974TIP3    H236414   6.391   4.122   1.172  0.8858 -0.0889 -0.5841
 4975TIP3   OH236415   3.486   1.873   0.057  0.2486 -0.1832  0.0788
 4975TIP3    H136416   3.416   1.886   0.122  1.1804 -1.0548  1.3007
 4975TIP3    H236417   3.440   1.868  -0.026 -1.2156 -1.1230  0.8885
 4976TIP3   OH236418   0.613   4.136   2.028  0.0730 -0.3227  0.3033
 4976TIP3    H136419   0.682   4.198   2.007 -0.6317  0.7968  1.1742
 4976TIP3    H236420   0.572   4.117   1.943 -0.9094  1.9021  0.2180
 4977TIP3   OH236421   1.842   6.047   3.091 -0.2244  0.3967  0.1933
 4977TIP3    H136422   1.913   6.110   3.082 -0.5002  0.8862  1.2400
 4977TIP3    H236423   1.781   6.088   3.152 -0.9005 -0.4591  0.1189
 4978TIP3   OH236424   1.470   4.380  12.655  0.0465  0.2814  0.2326
 4978TIP3    H136425   1.496   4.461  12.611 -0.7354  0.8903  0.8503
 4978TIP3    H236426   1.515   4.383  12.739  0.7680 -0.3969 -0.1287
 4979TIP3   OH236427   0.619   6.354   2.262 -0.0466  0.2484  0.0070
 4979TIP3    H136428   0.682   6.378   2.194  1.2395  1.0188  1.3968
 4979TIP3    H236429   0.644   6.265   2.287  0.8391  0.7278  0.8897
 4980TIP3   OH236430   0.910   0.426   0.783  0.0698 -0.5840 -0.0852
 4980TIP3    H136431   0.907   0.335   0.814 -1.4365 -0.3222  0.6351
 4980TIP3    H236432   0.850   0.426   0.708 -0.8145  0.0286  0.5988
 4981TIP3   OH236433   4.039   2.341   0.700  0.4794  0.0857  0.5007
 4981TIP3    H136434   3.974   2.363   0.633  0.6925 -1.4742 -0.2546
 4981TIP3    H236435   4.006   2.261   0.741 -0.8370  2.1558  3.9443
 4982TIP3   OH236436   3.696   5.433  14.662  0.4224 -0.2150 -0.0455
 4982TIP3    H136437   3.783   5.448  14.626  0.5100 -0.4768  0.0505
 4982TIP3    H236438   3.671   5.516  14.702  0.7315 -0.2133  0.1454
 4983TIP3   OH236439   6.476   5.760   6.451  0.3146  0.2032 -0.3401
 4983TIP3    H136440   6.566   5.764   6.419  0.0505  1.8849 -0.9927
 4983TIP3    H236441   6.474   5.821   6.525  0.2875 -1.7145  1.2951
 4984TIP3   OH236442   2.331   1.835  16.094  0.2582 -0.0558 -0.7428
 4984TIP3    H136443   2.319   1.781  16.172 -0.1822  1.6711  0.4522
 4984TIP3    H236444   2.255   1.814  16.039  0.6218 -1.3622 -0.7839
 4985TIP3   OH236445   1.420   5.757  17.151 -0.2210 -0.2046 -0.2233
 4985TIP3    H136446   1.451   5.786  17.237  1.1589 -1.7581 -0.1240
 4985TIP3    H236447   1.474   5.806  17.089 -0.2166 -0.1193 -0.1531
 4986TIP3   OH236448   0.728   1.251   5.217  0.0121  0.0098  0.4999
 4986TIP3    H136449   0.799   1.313   5.200 -1.1146  0.8086 -1.7247
 4986TIP3    H236450   0.731   1.236   5.311  1.2493  2.3401  0.9148
 4987TIP3   OH236451   0.594   3.372   0.018  0.4622  0.1033  0.6056
 4987TIP3    H136452   0.502   3.347   0.027  0.6452 -0.0526  2.6354
 4987TIP3    H236453   0.592   3.461  -0.016 -0.4371  0.0999  0.6428
 4988TIP3   OH236454   3.993   0.617  15.950  0.1950  0.4316  0.4222
 4988TIP3    H136455   4.041   0.623  16.032  1.2355  0.3817 -0.1647
 4988TIP3    H236456   3.935   0.541  15.962  0.8927 -0.0474  0.8264
 4989TIP3   OH236457   6.668   3.004  13.375  0.3110  0.0158 -0.3124
 4989TIP3    H136458   6.594   2.944  13.365  1.3989 -1.4965  0.3875
 4989TIP3    H236459   6.628   3.091  13.370 -1.3944 -0.7443 -0.7869
 4990TIP3   OH236460   5.307   2.440  11.996 -0.0415  0.1306  0.4043
 4990TIP3    H136461   5.330   2.509  12.059 -1.2073  0.9448 -0.0360
 4990TIP3    H236462   5.388   2.425  11.947  0.0601  1.7326  0.0139
 4991TIP3   OH236463   0.748   0.886  15.874 -0.4877 -0.4210  0.1715
 4991TIP3    H136464   0.697   0.896  15.954 -0.8411 -0.9219  0.0146
 4991TIP3    H236465   0.781   0.796  15.878  0.3459 -0.1197  0.2491
 4992TIP3   OH236466   1.907   5.278   1.294  0.1756 -0.0071 -0.0326
 4992TIP3    H136467   1.888   5.354   1.349  1.0155  0.7424 -0.7201
 4992TIP3    H236468   1.830   5.223   1.301  0.1295  0.2128  1.6193
 4993TIP3   OH236469   4.003   4.789  13.856 -0.7064 -0.2993 -0.1239
 4993TIP3    H136470   3.956   4.852  13.909  0.2872 -0.7094  1.3020
 4993TIP3    H236471   4.007   4.710  13.910  0.4089 -0.6996 -0.7500
 4994TIP3   OH236472   2.266   1.831   2.278 -0.2974 -0.2521  0.1328
 4994TIP3    H136473   2.341   1.889   2.284  0.0067 -0.7038  0.8290
 4994TIP3    H236474   2.204   1.865   2.343 -1.1899  0.8008 -1.2184
 4995TIP3   OH236475   0.753   1.673  12.096  0.1820  0.1894 -0.3890
 4995TIP3    H136476   0.784   1.645  12.182  2.4530 -0.7104 -1.4114
 4995TIP3    H236477   0.783   1.764  12.088 -0.7737  0.5547  0.0785
 4996TIP3   OH236478   3.311   6.594  13.862  0.7060 -0.0113  0.3696
 4996TIP3    H136479   3.279   6.508  13.834 -1.5189  0.2581  1.8496
 4996TIP3    H236480   3.324   6.642  13.781 -0.7241 -0.8680 -0.4100
 4997TIP3   OH236481   0.583   3.858   3.147  0.0364  0.2135 -0.1199
 4997TIP3    H136482   0.648   3.874   3.215 -0.0132  2.3188 -0.4922
 4997TIP3    H236483   0.632   3.862   3.065 -0.1452 -0.8608 -0.2933
 4998TIP3   OH236484   3.449   4.022  12.077  0.6635 -0.1150 -0.1263
 4998TIP3    H136485   3.437   3.927  12.079  1.0741 -0.1765 -0.4875
 4998TIP3    H236486   3.537   4.036  12.111  0.1474  0.2346  1.1532
 4999TIP3   OH236487   1.593   2.952  14.474 -0.5386  0.0267 -0.2890
 4999TIP3    H136488   1.625   2.865  14.497  0.2441  0.6083  0.9246
 4999TIP3    H236489   1.502   2.938  14.446  0.1718 -1.4213 -2.0579
 5000TIP3   OH236490   6.742   5.708   5.702 -0.7440 -0.9335  0.1369
 5000TIP3    H136491   6.650   5.702   5.677 -0.8996 -1.1239  0.7207
 5000TIP3    H236492   6.785   5.639   5.651 -0.5854  0.3273 -1.5142
 5001TIP3   OH236493   0.229   3.048   2.359  0.6038  0.1839  0.0082
 5001TIP3    H136494   0.191   2.996   2.288  1.4110  0.1502 -0.4147
 5001TIP3    H236495   0.237   3.136   2.322  1.5712  0.0361 -0.1569
 5002TIP3   OH236496   0.018   4.228   6.076  0.3084 -0.1041  0.3424
 5002TIP3    H136497   0.079   4.156   6.094  1.0778  0.4420 -0.0020
 5002TIP3    H236498  -0.013   4.256   6.162 -0.0813 -0.9115  0.4722
 5003TIP3   OH236499   1.593   3.356  16.678 -0.2548 -0.0321  0.6421
 5003TIP3    H136500   1.529   3.418  16.714 -1.0362 -0.4773  0.0627
 5003TIP3    H236501   1.548   3.272  16.681  0.3376 -0.3641  0.2927
 5004TIP3   OH236502   5.275   0.857   3.957  0.0607 -0.0082  0.1228
 5004TIP3    H136503   5.201   0.906   3.924 -0.8382 -1.0609  0.5105
 5004TIP3    H236504   5.250   0.832   4.046  0.3433 -1.4156 -0.1695
 5005TIP3   OH236505   2.105   6.292   2.379  0.5170  0.0323  0.8103
 5005TIP3    H136506   2.119   6.239   2.300  1.2047  0.9056  0.3290
 5005TIP3    H236507   2.051   6.236   2.435 -0.4414 -0.3987 -0.4814
 5006TIP3   OH236508   4.223   2.806  11.693  0.4908 -0.1077 -0.0268
 5006TIP3    H136509   4.228   2.734  11.631  0.4836  1.4196 -1.8827
 5006TIP3    H236510   4.129   2.822  11.704  0.4899  0.8766 -1.2163
 5007TIP3   OH236511   3.063   3.064   4.444 -0.6255  0.0653 -0.1503
 5007TIP3    H136512   2.973   3.040   4.463 -0.8495  0.1433 -1.0558
 5007TIP3    H236513   3.091   3.002   4.377  0.2709 -0.4752  0.7053
 5008TIP3   OH236514   5.357   5.204   0.471 -0.6971 -0.0147 -0.0565
 5008TIP3    H136515   5.294   5.164   0.410 -3.7898  2.7220  1.0172
 5008TIP3    H236516   5.339   5.298   0.465 -0.6089  0.4831  4.3536
 5009TIP3   OH236517   0.762   3.912   1.327 -0.1862  0.0141  0.2756
 5009TIP3    H136518   0.730   3.996   1.295 -1.0805 -0.6814 -0.7109
 5009TIP3    H236519   0.739   3.912   1.420 -1.1892  0.4048  0.0448
 5010TIP3   OH236520   3.078   6.438  15.653  0.1914  0.5350  0.1946
 5010TIP3    H136521   3.061   6.526  15.620 -0.1533  0.0679 -0.9238
 5010TIP3    H236522   3.098   6.386  15.575  0.6602 -0.3195  0.8641
 5011TIP3   OH236523   4.253   5.589   0.314  0.1113  0.1557 -0.4969
 5011TIP3    H136524   4.257   5.654   0.384 -0.8753 -0.4468  0.1476
 5011TIP3    H236525   4.270   5.506   0.357 -1.1473 -0.3039 -0.8369
 5012TIP3   OH236526   0.331   5.229   0.428  0.8426  0.1143  0.0675
 5012TIP3    H136527   0.422   5.215   0.453  0.5521  0.3529  1.3345
 5012TIP3    H236528   0.280   5.175   0.488  0.0609  1.4139  0.6237
 5013TIP3   OH236529   5.310   6.630  15.843 -0.1631 -0.5259  0.4701
 5013TIP3    H136530   5.342   6.589  15.763 -0.3459 -0.3345  0.2973
 5013TIP3    H236531   5.335   6.569  15.913 -2.1262 -1.9053  0.0398
 5014TIP3   OH236532   4.179   2.082  16.334 -0.8067  0.0967 -0.0077
 5014TIP3    H136533   4.227   2.165  16.337 -1.0055  0.3259 -1.8488
 5014TIP3    H236534   4.184   2.055  16.243 -3.6519 -0.1660 -0.1831
 5015TIP3   OH236535   1.041   0.911  12.795  0.1982  0.3337 -0.1745
 5015TIP3    H136536   0.998   0.837  12.751  1.6627 -0.3439 -0.5161
 5015TIP3    H236537   1.125   0.876  12.824  0.9857  1.9199 -0.4793
 5016TIP3   OH236538   4.036   2.517  14.630  0.2070 -0.2918 -0.5309
 5016TIP3    H136539   4.027   2.607  14.601  2.5872  0.6297  1.2988
 5016TIP3    H236540   3.979   2.509  14.706 -0.6172 -0.6120 -1.1643
 5017TIP3   OH236541   3.538   0.935   1.752  0.7058 -0.0518  0.2853
 5017TIP3    H136542   3.521   1.002   1.686 -0.7832 -1.0680 -0.4001
 5017TIP3    H236543   3.472   0.952   1.820 -0.4803 -1.5338 -0.4610
 5018TIP3   OH236544   2.100   4.191   6.059 -0.5565  0.3346  0.2593
 5018TIP3    H136545   2.161   4.144   6.116 -2.7482 -0.4977  2.0396
 5018TIP3    H236546   2.131   4.281   6.060  0.5310 -0.0306  1.2425
 5019TIP3   OH236547   4.146   3.548  13.364  0.2194  0.3277  0.2857
 5019TIP3    H136548   4.209   3.500  13.310 -0.7774 -0.5339 -0.1495
 5019TIP3    H236549   4.185   3.550  13.451 -0.2587 -2.4901  0.6689
 5020TIP3   OH236550   1.667   5.023  17.151 -0.0682 -0.3286 -0.0134
 5020TIP3    H136551   1.585   4.995  17.192 -0.2496 -0.7269 -0.6347
 5020TIP3    H236552   1.684   5.110  17.188 -0.6762 -0.3193  0.2547
 5021TIP3   OH236553   2.872   3.383  13.453  0.3748 -0.4696 -0.3857
 5021TIP3    H136554   2.798   3.403  13.396  0.6670 -1.5865 -1.1901
 5021TIP3    H236555   2.922   3.464  13.458 -1.2973  0.5524  0.8182
 5022TIP3   OH236556   2.586   3.944   0.020  0.8438  0.6758  0.1492
 5022TIP3    H136557   2.668   3.992   0.029  0.5371  1.4454 -0.9779
 5022TIP3    H236558   2.524   4.008  -0.015 -0.0146 -0.1143  0.1805
 5023TIP3   OH236559   6.104   2.433   1.404 -0.1885 -0.7769 -0.4265
 5023TIP3    H136560   6.142   2.470   1.324  1.5670  0.5566  0.9635
 5023TIP3    H236561   6.157   2.356   1.422 -1.2192 -1.6649 -1.0374
 5024TIP3   OH236562   4.105   3.858  13.970  0.8909 -0.0084  0.1580
 5024TIP3    H136563   4.072   3.850  14.059  0.7436 -1.3747  0.0065
 5024TIP3    H236564   4.200   3.853  13.979  0.9474  1.1427  0.3382
 5025TIP3   OH236565   1.866   5.020   6.142 -0.6230 -0.9710  0.4270
 5025TIP3    H136566   1.773   5.015   6.119 -0.0643 -2.1331 -1.9580
 5025TIP3    H236567   1.898   5.099   6.098 -0.2163 -1.3370  0.0544
 5026TIP3   OH236568   5.006   0.694  12.130 -0.0976  0.4717  0.2584
 5026TIP3    H136569   5.092   0.719  12.098 -0.1274  0.6847  0.3449
 5026TIP3    H236570   4.950   0.769  12.112 -0.5527 -0.1265 -0.9217
 5027TIP3   OH236571   4.648   6.138  17.012 -0.0865 -0.8653  0.1669
 5027TIP3    H136572   4.721   6.198  17.027  0.2393 -1.3890  0.7198
 5027TIP3    H236573   4.666   6.099  16.927  0.5325 -1.3361  0.5022
 5028TIP3   OH236574   2.348   0.521  15.237 -0.0488 -0.2498 -0.2572
 5028TIP3    H136575   2.277   0.477  15.190 -0.6425 -0.9919  1.2622
 5028TIP3    H236576   2.409   0.451  15.259 -0.3076 -0.1100  0.9731
 5029TIP3   OH236577   5.609   1.259   3.048  0.2562  0.1214 -0.0762
 5029TIP3    H136578   5.542   1.217   2.995 -0.0150  0.5053 -0.0423
 5029TIP3    H236579   5.672   1.190   3.067  1.0162  0.2536 -1.9587
 5030TIP3   OH236580   5.243   4.959  12.138 -0.1239  0.5359  0.0410
 5030TIP3    H136581   5.160   4.942  12.094  0.1345  0.5851 -0.4715
 5030TIP3    H236582   5.244   4.898  12.213 -1.2771  1.5635  0.9225
 5031TIP3   OH236583   3.173   5.036   5.985  0.1038 -0.2233 -0.3149
 5031TIP3    H136584   3.261   5.002   6.003  0.0522 -0.5406 -0.6266
 5031TIP3    H236585   3.165   5.115   6.038 -0.4279 -1.6504  1.8592
 5032TIP3   OH236586   6.655   6.012  14.682  0.1740  0.8624  0.4582
 5032TIP3    H136587   6.616   5.929  14.655  0.6743  0.3792  1.2007
 5032TIP3    H236588   6.602   6.039  14.757 -0.1976  1.3965  0.0181
 5033TIP3   OH236589   2.335   2.312  13.021 -0.6532 -0.1840  0.4784
 5033TIP3    H136590   2.390   2.233  13.022  0.7453  0.7204  2.8521
 5033TIP3    H236591   2.346   2.347  12.932  2.4059 -0.2496  0.7100
 5034TIP3   OH236592   4.747   2.979  16.762 -0.4915  0.2478  0.9892
 5034TIP3    H136593   4.694   2.992  16.683  1.0014  0.6723  0.0010
 5034TIP3    H236594   4.797   2.900  16.744 -1.9108 -1.0842  2.5904
 5035TIP3   OH236595   6.697   6.259   6.317 -0.5803  0.0637  0.0898
 5035TIP3    H136596   6.785   6.283   6.290 -1.0438  1.3154 -0.3683
 5035TIP3    H236597   6.675   6.320   6.387 -1.4642  0.4752 -0.5192
 5036TIP3   OH236598   5.608   3.102   0.561 -0.0136  0.3609 -0.1115
 5036TIP3    H136599   5.651   3.089   0.646  0.0219 -0.7778 -0.2917
 5036TIP3    H236600   5.523   3.060   0.571 -0.6794  1.6497 -0.1182
 5037TIP3   OH236601   6.126   1.441   6.106 -0.1241 -0.0772  0.0601
 5037TIP3    H136602   6.080   1.447   6.189 -1.5708 -1.1169 -0.6202
 5037TIP3    H236603   6.056   1.434   6.040  0.9421 -2.9193 -0.9172
 5038TIP3   OH236604   4.234   6.175  11.653  0.4716  0.0749  0.0878
 5038TIP3    H136605   4.190   6.184  11.568 -1.2016  1.1028  1.0159
 5038TIP3    H236606   4.314   6.228  11.644  0.5936 -0.2622 -0.9977
 5039TIP3   OH236607   4.114   4.628  11.771  0.5701  1.0589  0.5289
 5039TIP3    H136608   4.070   4.549  11.739 -0.1061  1.4665  0.4194
 5039TIP3    H236609   4.126   4.682  11.693  1.1691  0.9956  0.5786
 5040TIP3   OH236610   4.755   1.233   1.361 -0.4531 -0.4116 -0.2017
 5040TIP3    H136611   4.710   1.302   1.312  0.1774 -0.0979 -0.3507
 5040TIP3    H236612   4.834   1.275   1.396 -0.3373 -0.9150  0.1646
 5041TIP3   OH236613   1.392   0.274  13.091  0.1228 -0.1455 -0.6454
 5041TIP3    H136614   1.346   0.323  13.159  1.6915  1.0871 -0.4032
 5041TIP3    H236615   1.377   0.323  13.011  0.8494  0.1808 -0.5923
 5042TIP3   OH236616   6.119   6.755   1.055 -0.2588  0.5269 -0.4524
 5042TIP3    H136617   6.175   6.736   0.979  0.4954 -3.0632  0.8028
 5042TIP3    H236618   6.057   6.682   1.057 -2.0643  2.0193  0.8490
 5043TIP3   OH236619   1.878   5.975   0.431 -0.7341 -0.0894  0.4642
 5043TIP3    H136620   1.897   5.902   0.491 -1.0522 -1.6070 -1.1898
 5043TIP3    H236621   1.805   6.021   0.472 -0.5944 -0.7702  1.5074
 5044TIP3   OH236622   6.327   4.593   2.973  0.5481  0.0303 -0.0117
 5044TIP3    H136623   6.256   4.529   2.966 -0.6577  1.5038 -2.5259
 5044TIP3    H236624   6.309   4.642   3.053  0.7017 -1.7522  1.1867
 5045TIP3   OH236625   5.859   6.046   6.050  0.2676 -0.2155  0.2511
 5045TIP3    H136626   5.776   6.020   6.010 -0.2796  0.1175  1.1427
 5045TIP3    H236627   5.902   5.964   6.074  0.3923 -0.4012 -0.5927
 5046TIP3   OH236628   5.257   0.529  14.042  0.0885  0.6000  0.0886
 5046TIP3    H136629   5.334   0.475  14.023  0.1991  1.0533 -0.7802
 5046TIP3    H236630   5.243   0.581  13.963 -1.0687  0.5832  0.2577
 5047TIP3   OH236631   1.249   1.844   0.427  0.3219 -0.1138 -0.0885
 5047TIP3    H136632   1.321   1.806   0.377  0.3415 -0.0591 -0.1018
 5047TIP3    H236633   1.288   1.917   0.475 -0.0701  1.0275 -1.4481
 5048TIP3   OH236634   1.826   1.528   1.193  0.5269  0.5882 -0.2047
 5048TIP3    H136635   1.891   1.465   1.222 -1.2349 -1.3985 -0.3099
 5048TIP3    H236636   1.757   1.475   1.154 -1.4136  2.5170  0.3863
 5049TIP3   OH236637   6.462   4.739  13.693  0.1837 -0.0345 -0.6609
 5049TIP3    H136638   6.407   4.745  13.615  1.0251 -0.6045 -1.3105
 5049TIP3    H236639   6.435   4.657  13.735 -0.8702  0.6936  0.1347
 5050TIP3   OH236640   5.970   3.598   0.363 -0.1607 -0.0144  0.2644
 5050TIP3    H136641   6.065   3.609   0.356 -0.0855  0.0631  1.3016
 5050TIP3    H236642   5.951   3.525   0.304  0.3252  0.9061 -1.1021
 5051TIP3   OH236643   6.589   1.405   0.594 -0.0803  0.3218  0.1600
 5051TIP3    H136644   6.656   1.396   0.526  0.2232 -2.9992  0.7286
 5051TIP3    H236645   6.589   1.499   0.616  2.9060  0.7819 -1.3186
 5052TIP3   OH236646   5.885   3.692  15.722 -0.1675  0.1161 -0.5366
 5052TIP3    H136647   5.822   3.643  15.668 -2.0489 -1.0328  2.4187
 5052TIP3    H236648   5.852   3.782  15.722  0.1637  0.2579 -1.6404
 5053TIP3   OH236649   0.400   4.554   0.245 -0.3949  0.1615 -0.3270
 5053TIP3    H136650   0.391   4.649   0.245 -1.6169  0.0714  0.7631
 5053TIP3    H236651   0.488   4.539   0.282 -1.2703  0.8580  2.2783
 5054TIP3   OH236652   5.354   3.949   5.053  0.2123 -0.4547 -0.2345
 5054TIP3    H136653   5.297   3.872   5.057 -0.1041 -0.2862 -1.1402
 5054TIP3    H236654   5.293   4.023   5.049  0.5055 -0.2114 -0.1715
 5055TIP3   OH236655   3.478   3.035  15.405 -0.0717 -0.3634 -0.0050
 5055TIP3    H136656   3.500   2.944  15.387  0.0922 -0.3865  0.3141
 5055TIP3    H236657   3.382   3.036  15.407 -0.0767 -0.8352  1.5012
 5056TIP3   OH236658   4.435   3.391   0.438  0.5172 -0.6805  0.2739
 5056TIP3    H136659   4.446   3.317   0.498 -0.4134 -1.1039 -0.0630
 5056TIP3    H236660   4.348   3.379   0.400  0.3111  0.6327  0.2746
 5057TIP3   OH236661   1.601   0.289  10.959  0.0422 -0.1483  0.0905
 5057TIP3    H136662   1.551   0.332  11.029  1.3470  0.3103  0.7737
 5057TIP3    H236663   1.631   0.207  10.998  0.2441 -0.1865 -0.1454
 5058TIP3   OH236664   5.659   4.175   2.160 -0.2244  0.5868  0.1852
 5058TIP3    H136665   5.748   4.183   2.123 -0.8010 -0.4016 -1.5558
 5058TIP3    H236666   5.606   4.233   2.106 -1.3217 -1.8286 -1.5397
 5059TIP3   OH236667   0.688   5.390   2.529 -0.5844 -0.7844 -0.0582
 5059TIP3    H136668   0.626   5.382   2.456 -0.6792 -0.4947 -0.0131
 5059TIP3    H236669   0.766   5.430   2.489 -1.0915  0.5588  0.2333
 5060TIP3   OH236670   0.425   2.063  12.008 -0.2251  0.0055 -0.2024
 5060TIP3    H136671   0.340   2.027  11.984 -0.9270  0.3930  1.5587
 5060TIP3    H236672   0.418   2.157  11.987 -0.0103 -0.0611 -0.5894
 5061TIP3   OH236673   3.589   0.161   1.373  0.0409 -0.0241 -0.1328
 5061TIP3    H136674   3.646   0.237   1.384  1.5018 -1.1547  0.4655
 5061TIP3    H236675   3.638   0.102   1.316 -0.5103 -1.0321  0.3992
 5062TIP3   OH236676   0.750   3.024  10.367  0.0060 -0.3572  0.3285
 5062TIP3    H136677   0.684   2.968  10.408 -2.2343  1.7471 -0.1888
 5062TIP3    H236678   0.743   3.108  10.412  1.2353  0.4159 -0.8125
 5063TIP3   OH236679   5.167   5.311   4.414  0.3956 -0.1852 -0.1712
 5063TIP3    H136680   5.232   5.364   4.460 -0.8732  1.5527 -0.2932
 5063TIP3    H236681   5.083   5.338   4.450 -0.3920 -1.1796 -1.1793
 5064TIP3   OH236682   0.843   5.784  11.407 -0.6599  0.5631 -1.2112
 5064TIP3    H136683   0.841   5.780  11.311  1.5349  0.7055 -1.3133
 5064TIP3    H236684   0.934   5.807  11.428 -0.9282 -0.1500  0.9353
 5065TIP3   OH236685   0.820   4.880   6.483  0.1843 -0.1050 -0.2578
 5065TIP3    H136686   0.906   4.839   6.489  0.6072  0.5295 -1.6898
 5065TIP3    H236687   0.761   4.820   6.529  1.2971 -0.7857  0.3101
 5066TIP3   OH236688   6.212   3.482   3.426  0.0112  0.4658 -0.4897
 5066TIP3    H136689   6.287   3.538   3.401  0.2050  0.1710 -0.5717
 5066TIP3    H236690   6.230   3.398   3.385 -0.6995  0.5858 -1.0576
 5067TIP3   OH236691   1.776   0.102   0.974  0.3394  0.0938  0.4558
 5067TIP3    H136692   1.776   0.140   1.061 -1.0134  0.7328  0.2036
 5067TIP3    H236693   1.864   0.121   0.939 -0.0285  2.3335  0.6266
 5068TIP3   OH236694   6.215   0.250  14.248 -0.1468 -0.1826 -0.7673
 5068TIP3    H136695   6.258   0.303  14.181  0.5172  1.4531  0.8321
 5068TIP3    H236696   6.285   0.231  14.311 -0.3760 -3.0012 -1.2435
 5069TIP3   OH236697   5.643   3.923   0.160 -0.1980  0.7611  0.0047
 5069TIP3    H136698   5.733   3.914   0.193 -0.7468  0.4081  1.4325
 5069TIP3    H236699   5.651   3.989   0.091  0.7422  2.7358  1.8735
 5070TIP3   OH236700   3.359   3.786   2.027  0.2547  0.3553 -0.3511
 5070TIP3    H136701   3.398   3.787   2.115 -1.9340  1.2718  0.6818
 5070TIP3    H236702   3.309   3.705   2.024  0.7043  0.0951 -0.9543
 5071TIP3   OH236703   5.782   1.200   0.700 -0.1907 -0.3409 -0.4616
 5071TIP3    H136704   5.784   1.105   0.717 -0.7670 -0.3990 -0.7031
 5071TIP3    H236705   5.846   1.236   0.762  0.2962 -0.9212 -0.6058
 5072TIP3   OH236706   0.896   5.163  13.246 -0.5655 -0.3060 -0.2568
 5072TIP3    H136707   0.943   5.237  13.207 -0.2163 -0.4694 -0.1492
 5072TIP3    H236708   0.965   5.099  13.266 -0.5144  0.3764  1.9986
 5073TIP3   OH236709   2.280   4.703   0.687  0.0162  0.6487  0.4165
 5073TIP3    H136710   2.256   4.636   0.750  1.3111 -0.5839 -0.3328
 5073TIP3    H236711   2.288   4.783   0.739 -0.0477 -0.1006  1.6170
 5074TIP3   OH236712   6.247   6.103   2.778  0.0087 -0.2995 -0.4092
 5074TIP3    H136713   6.262   6.155   2.699  0.9521  0.5719  0.3195
 5074TIP3    H236714   6.300   6.146   2.846 -1.4346 -0.5203  0.9072
 5075TIP3   OH236715   3.093   0.955  17.300 -0.3246  0.1917  0.3425
 5075TIP3    H136716   3.001   0.974  17.284  0.0382  0.7700 -1.2371
 5075TIP3    H236717   3.135   0.961  17.214  0.6671 -3.3338  0.4282
 5076TIP3   OH236718   2.043   5.393  14.660  0.0635 -0.0778  0.1402
 5076TIP3    H136719   2.112   5.392  14.594  0.6390  0.1406  0.7301
 5076TIP3    H236720   2.075   5.453  14.727 -1.7203  1.8857 -0.6412
 5077TIP3   OH236721   4.849   2.386   4.195 -0.4263 -0.1431 -0.0878
 5077TIP3    H136722   4.766   2.358   4.232  0.3670 -2.7491 -0.0808
 5077TIP3    H236723   4.916   2.344   4.249  0.8183 -0.6501 -1.8952
 5078TIP3   OH236724   4.932   0.707  17.154 -0.2277  0.2833 -0.0608
 5078TIP3    H136725   4.887   0.639  17.104 -1.3722  0.4245  0.7221
 5078TIP3    H236726   4.979   0.659  17.223  2.2456 -0.0073 -1.8203
 5079TIP3   OH236727   4.509   3.707  15.726  0.3250 -0.3161 -0.0342
 5079TIP3    H136728   4.464   3.728  15.808 -2.1996 -0.1729 -1.3571
 5079TIP3    H236729   4.497   3.612  15.716 -1.5117 -0.0186 -1.3077
 5080TIP3   OH236730   6.034   4.863  11.156  0.1530  0.6622 -0.5122
 5080TIP3    H136731   6.016   4.777  11.118  0.3427  0.5276 -0.3067
 5080TIP3    H236732   5.975   4.922  11.112  0.6165  0.5714 -1.2705
 5081TIP3   OH236733   2.896   1.060   0.442  0.1283 -0.2049  0.2971
 5081TIP3    H136734   2.845   1.058   0.361  0.5487  0.8574 -0.0122
 5081TIP3    H236735   2.895   1.152   0.469 -0.3242 -0.6006  1.7176
 5082TIP3   OH236736   1.188   0.068   0.931  0.2266  0.0364 -0.2576
 5082TIP3    H136737   1.198   0.163   0.925  0.3886 -0.0706 -2.4477
 5082TIP3    H236738   1.124   0.056   1.002 -1.9485  1.9597 -1.7161
 5083TIP3   OH236739   3.504   5.897   4.541  0.3486 -0.2893 -0.1254
 5083TIP3    H136740   3.438   5.859   4.484 -0.0205 -0.2150  0.2426
 5083TIP3    H236741   3.517   5.986   4.507  0.3191 -0.3324 -0.2494
 5084TIP3   OH236742   5.324   4.963  16.560 -0.1417  0.1276  0.3439
 5084TIP3    H136743   5.332   4.879  16.606  0.6942 -1.5157 -2.5392
 5084TIP3    H236744   5.401   4.966  16.502 -1.3659  1.7541 -1.3074
 5085TIP3   OH236745   3.385   0.160  12.750 -0.0588 -0.0673 -0.0002
 5085TIP3    H136746   3.352   0.236  12.703  0.1595  0.2967  0.4331
 5085TIP3    H236747   3.421   0.195  12.831 -0.1216 -0.6518  0.2868
 5086TIP3   OH236748   2.895   6.622   0.037  0.1204 -0.8088  0.3383
 5086TIP3    H136749   2.809   6.596   0.004  0.1024 -0.1130 -0.1718
 5086TIP3    H236750   2.909   6.710   0.002  1.0694 -0.9383  0.3631
 5087TIP3   OH236751   6.496   5.671  12.527  0.5081  0.0972  0.4195
 5087TIP3    H136752   6.467   5.683  12.437 -2.5007 -2.1390  0.9331
 5087TIP3    H236753   6.541   5.587  12.527 -0.6096 -0.5213  1.1918
 5088TIP3   OH236754   6.483   6.131  16.041  0.2745  0.4838  0.3153
 5088TIP3    H136755   6.523   6.047  16.015 -0.8121  0.5247 -1.7396
 5088TIP3    H236756   6.452   6.116  16.130 -0.5855 -1.6031 -0.2596
 5089TIP3   OH236757   6.643   0.113  16.278 -0.4655 -0.6847  0.3852
 5089TIP3    H136758   6.560   0.160  16.266 -1.4712 -2.7560 -1.3924
 5089TIP3    H236759   6.620   0.021  16.273  1.8424 -1.3602  0.8572
 5090TIP3   OH236760   3.888   2.813  14.698 -0.8451  0.2219  0.6519
 5090TIP3    H136761   3.798   2.847  14.704 -1.3793 -1.2735  1.5419
 5090TIP3    H236762   3.887   2.757  14.620 -0.8240 -0.1554  0.9195
 5091TIP3   OH236763   6.367   3.526   2.992 -0.6779 -0.5103 -0.2526
 5091TIP3    H136764   6.420   3.460   2.948 -0.7987 -0.5601 -0.3249
 5091TIP3    H236765   6.414   3.545   3.073 -0.4978 -0.4785 -0.3653
 5092TIP3   OH236766   5.813   3.860   3.375  0.4551  0.2529 -0.7923
 5092TIP3    H136767   5.828   3.781   3.323 -1.2252 -1.3542  0.9890
 5092TIP3    H236768   5.771   3.828   3.455  0.9165  2.8441  0.5845
 5093TIP3   OH236769   0.374   0.759  16.128  0.2589  0.3877 -0.1769
 5093TIP3    H136770   0.372   0.797  16.040 -2.1378  2.2711  0.5807
 5093TIP3    H236771   0.284   0.767  16.160  1.3159  1.0742  2.9707
 5094TIP3   OH236772   5.201   5.467   5.859  0.0716 -0.0648  0.0888
 5094TIP3    H136773   5.245   5.544   5.894 -0.4493  1.3673 -2.1698
 5094TIP3    H236774   5.267   5.398   5.858  0.7868  0.5912  1.3667
 5095TIP3   OH236775   6.078   0.724  11.071  0.3888 -0.4372 -0.1550
 5095TIP3    H136776   6.045   0.634  11.064  1.3454 -0.7680 -0.7269
 5095TIP3    H236777   6.100   0.734  11.164 -2.2105  0.1678  0.4744
 5096TIP3   OH236778   1.611   2.138  14.155 -0.4829 -0.1874 -0.5200
 5096TIP3    H136779   1.685   2.119  14.097 -0.0714  0.9244 -0.3992
 5096TIP3    H236780   1.586   2.054  14.192  0.9006 -0.5520 -0.3610
 5097TIP3   OH236781   0.738   2.740  14.889  0.2873  0.6921  0.0491
 5097TIP3    H136782   0.745   2.816  14.832  0.4442 -0.2807 -1.2885
 5097TIP3    H236783   0.694   2.772  14.968 -1.3677  1.7801 -1.2421
 5098TIP3   OH236784   2.121   3.234  14.731 -0.0590 -0.2708  0.2537
 5098TIP3    H136785   2.069   3.217  14.653 -1.7152  0.4262  1.1449
 5098TIP3    H236786   2.068   3.199  14.803  1.1722 -0.4155  1.1082
 5099TIP3   OH236787   0.039   2.490   3.777 -0.3500 -0.1573 -0.1980
 5099TIP3    H136788   0.011   2.521   3.863  0.9321 -1.2402  0.6580
 5099TIP3    H236789  -0.022   2.419   3.756 -0.6380  0.0778 -0.1609
 5100TIP3   OH236790   5.985   2.993   2.884  0.3732 -0.2424  0.3018
 5100TIP3    H136791   6.013   3.074   2.927  0.8336  0.5202 -1.3525
 5100TIP3    H236792   5.904   3.016   2.839  0.5617 -0.6726 -0.2719
 5101TIP3   OH236793   4.160   4.367  15.218 -0.2934 -0.1789  0.1191
 5101TIP3    H136794   4.163   4.297  15.282  0.1197 -0.6273 -0.3845
 5101TIP3    H236795   4.156   4.447  15.270 -1.2676 -0.5857  0.6993
 5102TIP3   OH236796   0.234   0.261   0.518  0.0496 -0.7219  0.2127
 5102TIP3    H136797   0.209   0.219   0.600 -0.8195  0.5329  0.6129
 5102TIP3    H236798   0.274   0.343   0.544 -1.9972  0.6198 -0.6227
 5103TIP3   OH236799   4.846   6.765  12.198 -0.4731  0.4819  0.0433
 5103TIP3    H136800   4.762   6.788  12.238 -0.0556  0.0251  1.2086
 5103TIP3    H236801   4.878   6.691  12.250 -0.2003 -0.5456 -1.5289
 5104TIP3   OH236802   4.042   5.181  16.588  0.0288  0.1490  0.4322
 5104TIP3    H136803   3.986   5.256  16.570  0.4569  0.4693  0.4279
 5104TIP3    H236804   4.018   5.117  16.521 -0.7300  0.0659  0.7762
 5105TIP3   OH236805   6.737   0.669  11.689 -0.1576  0.5966 -0.3830
 5105TIP3    H136806   6.723   0.752  11.734 -0.7529 -0.5370  1.6575
 5105TIP3    H236807   6.673   0.669  11.617  0.4256  2.2227 -0.9305
 5106TIP3   OH236808   2.341   5.883  13.665 -0.3481  0.2438 -0.0704
 5106TIP3    H136809   2.375   5.843  13.585 -1.5922  1.3059 -1.1891
 5106TIP3    H236810   2.407   5.947  13.691  1.3380 -1.8949  1.3518
 5107TIP3   OH236811   2.545   2.800  15.290  0.1584 -0.0627  0.0237
 5107TIP3    H136812   2.620   2.794  15.349  0.4377  1.3332 -0.1431
 5107TIP3    H236813   2.582   2.780  15.203  0.5535  1.3902 -0.1794
 5108TIP3   OH236814   4.460   2.745   0.002 -0.3888  0.3473  0.3739
 5108TIP3    H136815   4.446   2.804  -0.072  0.3163  0.4033  0.2758
 5108TIP3    H236816   4.447   2.800   0.080 -0.3742  0.4763  0.2854
 5109TIP3   OH236817   3.666   1.065   2.039  0.0206 -0.2032  0.4225
 5109TIP3    H136818   3.593   1.021   1.995 -0.2056 -1.2063  1.7356
 5109TIP3    H236819   3.632   1.086   2.126  0.7736  0.8338  0.4796
 5110TIP3   OH236820   5.972   3.104  11.130 -0.0738 -0.2318  0.2809
 5110TIP3    H136821   5.920   3.028  11.157 -0.5030 -0.2266 -0.5069
 5110TIP3    H236822   6.008   3.079  11.044  0.0700  0.3176  0.1786
 5111TIP3   OH236823   2.941   2.036  13.237 -0.0665 -0.4873 -0.5405
 5111TIP3    H136824   2.991   1.961  13.270 -0.3217 -0.2731  0.3505
 5111TIP3    H236825   2.850   2.013  13.254 -0.1871 -0.2575 -0.8707
 5112TIP3   OH236826   0.495   2.714   3.993  0.5691 -0.0535 -0.4051
 5112TIP3    H136827   0.472   2.644   3.932 -1.2256 -0.5886  0.7973
 5112TIP3    H236828   0.458   2.686   4.077 -3.5719  3.8681 -0.5197
 5113TIP3   OH236829   5.216   3.326  14.264 -0.0314 -0.2170 -0.4023
 5113TIP3    H136830   5.257   3.388  14.325  0.6716 -0.8566 -0.2051
 5113TIP3    H236831   5.169   3.264  14.320  1.0026 -1.0833 -0.4542
 5114TIP3   OH236832   2.760   0.666   2.016 -0.3338 -0.7465 -0.2348
 5114TIP3    H136833   2.849   0.690   1.992 -0.6005  0.4942 -0.0547
 5114TIP3    H236834   2.757   0.677   2.111 -1.1310  0.9294 -0.4095
 5115TIP3   OH236835   6.634   2.316   1.419  0.8383 -0.2383  0.2439
 5115TIP3    H136836   6.564   2.303   1.355 -0.5994 -1.2277  1.9367
 5115TIP3    H236837   6.628   2.408   1.443  0.7304 -0.1035 -0.2768
 5116TIP3   OH236838   6.146   4.825   2.461 -0.4055 -0.2057  0.0536
 5116TIP3    H136839   6.134   4.895   2.397  0.3684 -0.6429 -0.5794
 5116TIP3    H236840   6.094   4.752   2.427 -3.3220  0.7950  1.9937
 5117TIP3   OH236841   3.904   2.281  12.366  0.0891 -0.4683 -0.5335
 5117TIP3    H136842   3.846   2.344  12.323  0.4611 -0.4899 -1.0781
 5117TIP3    H236843   3.903   2.205  12.308  1.6217 -0.0110 -1.2196
 5118TIP3   OH236844   2.953   0.575   0.884  0.2952  0.0597 -0.4559
 5118TIP3    H136845   2.869   0.532   0.868 -1.2840  3.0834 -1.1330
 5118TIP3    H236846   3.012   0.538   0.818 -1.1986 -0.4236 -1.5901
 5119TIP3   OH236847   5.249   2.173   0.032 -0.1771  0.7780 -0.2984
 5119TIP3    H136848   5.263   2.267   0.020 -0.1756  0.8373  0.1546
 5119TIP3    H236849   5.154   2.164   0.039 -0.1415  0.8263  0.2945
 5120TIP3   OH236850   3.566   2.961   1.299  0.5527  0.2372 -0.0283
 5120TIP3    H136851   3.497   2.993   1.241 -0.1136 -0.3897  0.3913
 5120TIP3    H236852   3.526   2.962   1.386  0.4468 -1.7966 -0.0084
 5121TIP3   OH236853   2.895   3.194  17.182  0.6058  0.2526 -0.2864
 5121TIP3    H136854   2.868   3.148  17.261 -0.6113 -1.2123 -1.4870
 5121TIP3    H236855   2.825   3.256  17.164  0.9806  0.7316 -0.1199
 5122TIP3   OH236856   6.126   0.195  12.972 -0.5221 -0.5316  0.3894
 5122TIP3    H136857   6.096   0.272  12.923 -0.6226 -0.6867  0.2067
 5122TIP3    H236858   6.175   0.232  13.046  0.6595 -0.3130 -0.4771
 5123TIP3   OH236859   3.238   1.809   5.796  0.2637 -0.2231 -0.4192
 5123TIP3    H136860   3.319   1.858   5.781  0.6543 -0.8112 -0.2523
 5123TIP3    H236861   3.211   1.782   5.708  0.6958 -0.7294 -0.4010
 5124TIP3   OH236862   4.310   1.250  16.409 -0.1682 -0.0476  0.2574
 5124TIP3    H136863   4.296   1.212  16.322  0.6521 -0.0394  0.1102
 5124TIP3    H236864   4.313   1.175  16.468 -1.1329 -0.0288  0.3514
 5125TIP3   OH236865   5.885   3.128  15.166 -0.0789 -0.7492 -0.2684
 5125TIP3    H136866   5.840   3.198  15.119  0.2982  0.2966  0.8574
 5125TIP3    H236867   5.966   3.169  15.197  0.0014 -1.5938  0.6806
 5126TIP3   OH236868   1.411   5.061   4.854  0.2755  0.3045  0.0269
 5126TIP3    H136869   1.484   5.089   4.800 -0.5597 -0.2142 -1.4179
 5126TIP3    H236870   1.374   4.986   4.808  1.1284 -1.8837  2.6847
 5127TIP3   OH236871   6.452   1.252   3.669 -0.6192  0.9901 -0.1252
 5127TIP3    H136872   6.473   1.321   3.732 -2.4589  0.4152  1.1945
 5127TIP3    H236873   6.454   1.171   3.719 -0.0866  0.2423 -1.2955
 5128TIP3   OH236874   1.082   1.638  14.391 -0.0563  0.1743  0.1147
 5128TIP3    H136875   1.030   1.698  14.337  1.0837  0.5636 -0.5790
 5128TIP3    H236876   1.022   1.612  14.461 -1.0826  0.8633 -0.4692
 5129TIP3   OH236877   0.298   6.260   4.678  0.3914  0.2582  1.2000
 5129TIP3    H136878   0.321   6.324   4.610 -0.6149 -0.4882  0.1206
 5129TIP3    H236879   0.213   6.225   4.651  1.0412 -1.7682  1.5973
 5130TIP3   OH236880   2.258   2.083   0.318  0.0266 -0.4496  0.6393
 5130TIP3    H136881   2.253   1.988   0.301 -2.0582 -0.5229  1.3504
 5130TIP3    H236882   2.257   2.091   0.413  1.0973  0.2856  0.6040
 5131TIP3   OH236883   2.870   3.707  14.090 -0.1941  0.0207 -0.3234
 5131TIP3    H136884   2.845   3.619  14.117  0.0992 -0.0555 -0.2927
 5131TIP3    H236885   2.964   3.711  14.107  0.4459 -0.7020 -3.1227
 5132TIP3   OH236886   3.588   2.058   1.867 -0.1176 -0.4465 -0.4952
 5132TIP3    H136887   3.492   2.064   1.869 -0.1086 -0.4208  0.7077
 5132TIP3    H236888   3.612   2.038   1.957  0.9566 -1.5409 -1.0065
 5133TIP3   OH236889   4.471   3.675  13.203  0.0433 -0.0700 -0.3918
 5133TIP3    H136890   4.541   3.619  13.171 -0.2922 -0.0594 -1.1608
 5133TIP3    H236891   4.445   3.636  13.287  0.0563 -0.8566 -0.7467
 5134TIP3   OH236892   3.208   5.945  13.959  0.5293 -1.1393 -0.1661
 5134TIP3    H136893   3.285   5.983  14.002  0.6377 -0.9484 -0.5231
 5134TIP3    H236894   3.136   5.965  14.018  0.7693 -1.4056  0.2174
 5135TIP3   OH236895   3.208   0.693   2.119  0.1556  0.4524  0.2686
 5135TIP3    H136896   3.298   0.664   2.110 -0.0990 -0.8376  1.5265
 5135TIP3    H236897   3.164   0.660   2.041  1.0443  2.5047 -1.2142
 5136TIP3   OH236898   5.465   0.986  10.474  0.4491 -0.2643  0.4027
 5136TIP3    H136899   5.559   0.984  10.455  0.6392 -0.2210  1.2954
 5136TIP3    H236900   5.450   1.072  10.514  0.0674 -0.3597  0.4735
 5137TIP3   OH236901   1.027   6.742   5.439 -0.4934  0.2127  0.0127
 5137TIP3    H136902   1.030   6.737   5.343 -0.0702  0.5527  0.0078
 5137TIP3    H236903   0.952   6.687   5.463 -1.0403  0.6971 -0.5542
 5138TIP3   OH236904   5.552   3.688  15.791 -0.8966 -0.0323  0.3706
 5138TIP3    H136905   5.531   3.597  15.768 -0.2402 -0.1016  0.0241
 5138TIP3    H236906   5.492   3.741  15.740 -1.1731 -0.2689  0.4505
 5139TIP3   OH236907   6.428   1.599   5.561  0.0053 -0.1169 -0.4350
 5139TIP3    H136908   6.438   1.530   5.495  2.2875 -0.2121 -0.0682
 5139TIP3    H236909   6.365   1.660   5.523 -0.8816 -1.6017 -1.4409
 5140TIP3   OH236910   4.851   4.543  13.667  0.3071 -0.4945  0.0797
 5140TIP3    H136911   4.770   4.516  13.711  0.4726 -0.0367  0.6816
 5140TIP3    H236912   4.908   4.570  13.739  1.5289 -2.1585 -0.2027
 5141TIP3   OH236913   0.687   4.854  11.880 -0.7604  0.0270  0.0835
 5141TIP3    H136914   0.619   4.897  11.828 -0.0137  0.2574 -0.7340
 5141TIP3    H236915   0.740   4.926  11.914  0.1108 -0.2099 -0.7500
 5142TIP3   OH236916   5.779   5.410  15.824  0.1509  0.0793  0.1359
 5142TIP3    H136917   5.761   5.501  15.849  1.3810  0.7724 -1.3693
 5142TIP3    H236918   5.870   5.396  15.847 -0.3049 -1.1513  1.3286
 5143TIP3   OH236919   6.793   1.108  16.760  0.5620 -0.2584 -0.2578
 5143TIP3    H136920   6.887   1.126  16.758  0.2946  1.5799  1.3825
 5143TIP3    H236921   6.780   1.058  16.840  0.0092  0.4611  0.1103
 5144TIP3   OH236922   5.990   6.742  12.497 -0.1122 -0.1659 -0.4064
 5144TIP3    H136923   5.958   6.785  12.577 -1.6105 -0.2043 -0.9552
 5144TIP3    H236924   6.038   6.665  12.529 -1.1667 -0.4906  0.4598
 5145TIP3   OH236925   2.519   2.545  16.966  0.6882  0.5212 -0.1794
 5145TIP3    H136926   2.438   2.498  16.985  0.8381  1.0717  2.0304
 5145TIP3    H236927   2.502   2.589  16.883 -0.9716 -0.0331 -0.1644
 5146TIP3   OH236928   6.231   6.656   3.363 -0.0715 -0.1684  0.4792
 5146TIP3    H136929   6.244   6.564   3.384  1.6314 -0.2504 -0.6733
 5146TIP3    H236930   6.172   6.655   3.288  1.3384 -0.5066 -0.6966
 5147TIP3   OH236931   0.088   0.493   2.310 -0.2891 -0.1279 -0.2631
 5147TIP3    H136932   0.118   0.429   2.246  0.0485  0.8763 -1.1307
 5147TIP3    H236933  -0.005   0.476   2.320  0.0450 -1.6722  0.6034
 5148TIP3   OH236934   1.412   1.885   2.196  0.3766 -0.1395 -0.3037
 5148TIP3    H136935   1.491   1.937   2.181 -0.0617  1.2007  1.6471
 5148TIP3    H236936   1.399   1.888   2.290 -1.1541 -1.6446 -0.4209
 5149TIP3   OH236937   1.382   1.923  11.916 -0.4397  0.5736  0.1560
 5149TIP3    H136938   1.362   1.910  11.823  0.2712  1.3381 -0.1162
 5149TIP3    H236939   1.469   1.963  11.917  0.2857 -0.9191  1.2301
 5150TIP3   OH236940   1.957   4.343  14.119  0.3405 -0.3282  0.1150
 5150TIP3    H136941   1.928   4.433  14.137  2.1192  0.1311  0.9402
 5150TIP3    H236942   1.988   4.346  14.029  1.1184  0.0981  0.3912
 5151TIP3   OH236943   1.696   0.202  13.922  0.5205 -0.4233  0.2968
 5151TIP3    H136944   1.684   0.235  13.833 -0.5477  1.0469  0.9341
 5151TIP3    H236945   1.621   0.144  13.936  1.3097 -1.5761 -0.1309
 5152TIP3   OH236946   6.728   4.096  11.954  0.6280 -0.1372  0.5722
 5152TIP3    H136947   6.782   4.092  12.033 -0.6874 -1.5817  1.4623
 5152TIP3    H236948   6.769   4.164  11.900  2.3870 -0.0994  1.8634
 5153TIP3   OH236949   2.322   5.494   3.211  0.1277 -0.2828 -0.0601
 5153TIP3    H136950   2.250   5.556   3.218  0.5114  0.3079 -1.1474
 5153TIP3    H236951   2.284   5.409   3.234 -0.6509  0.1860  0.4020
 5154TIP3   OH236952   0.121   3.630  11.796  0.2864  0.1227  0.0994
 5154TIP3    H136953   0.105   3.724  11.788  1.1454  0.2674  0.0322
 5154TIP3    H236954   0.070   3.604  11.873  0.4776  0.7507  0.4465
 5155TIP3   OH236955   0.773   4.566  11.879  0.8432  0.1496  0.2237
 5155TIP3    H136956   0.761   4.661  11.880  0.8199  0.1448  1.0440
 5155TIP3    H236957   0.712   4.534  11.945  0.1521 -0.5303 -0.7326
 5156TIP3   OH236958   5.130   1.787  16.287  0.6016 -0.6805 -0.2755
 5156TIP3    H136959   5.149   1.869  16.242  0.3566  0.1078  0.9770
 5156TIP3    H236960   5.066   1.743  16.232 -0.8064  0.9230 -0.0327
 5157TIP3   OH236961   1.613   4.600  11.127 -0.0121 -0.0110 -0.7774
 5157TIP3    H136962   1.625   4.636  11.215  0.0612 -0.4717 -0.5984
 5157TIP3    H236963   1.524   4.565  11.127 -0.5844  1.3323 -1.3728
 5158TIP3   OH236964   5.228   0.287  11.897  0.3597 -0.6028 -0.1844
 5158TIP3    H136965   5.208   0.330  11.814  1.4058 -0.2561 -0.2747
 5158TIP3    H236966   5.160   0.221  11.907 -0.5990  0.2948 -0.6194
 5159TIP3   OH236967   1.503   1.991   3.105 -0.5774 -0.2373 -0.6208
 5159TIP3    H136968   1.445   1.938   3.050 -0.9261 -0.0953 -0.3825
 5159TIP3    H236969   1.574   2.017   3.045 -0.2709 -1.1674 -0.6903
 5160TIP3   OH236970   1.763   3.820   3.601  0.6031 -0.3409 -0.5918
 5160TIP3    H136971   1.732   3.803   3.690 -2.5598 -1.6255 -1.7972
 5160TIP3    H236972   1.852   3.853   3.613 -0.4381  1.6914  3.1592
 5161TIP3   OH236973   4.436   1.027   3.425 -0.1149 -0.2162 -0.1283
 5161TIP3    H136974   4.516   1.071   3.398 -0.0143 -0.7530 -0.7136
 5161TIP3    H236975   4.373   1.098   3.437 -0.0391  0.0875 -1.3635
 5162TIP3   OH236976   4.569   4.845   0.619 -0.5329  0.4678  0.0592
 5162TIP3    H136977   4.551   4.753   0.603 -0.0671  0.0653  1.6527
 5162TIP3    H236978   4.665   4.852   0.614 -0.5451  0.7904  0.2232
 5163TIP3   OH236979   5.527   6.224  12.288  0.2444 -0.0141 -0.1519
 5163TIP3    H136980   5.522   6.130  12.304  0.7860 -0.2508 -1.2668
 5163TIP3    H236981   5.484   6.236  12.203 -1.2963  0.9812  0.7246
 5164TIP3   OH236982   4.409   4.077   3.195  0.1046 -0.3230  0.4715
 5164TIP3    H136983   4.358   4.092   3.274  0.1780 -0.2877  0.5119
 5164TIP3    H236984   4.496   4.051   3.227  0.1661 -0.2035  0.4029
 5165TIP3   OH236985   0.719   0.444  13.703 -0.6198  0.6123  0.3370
 5165TIP3    H136986   0.703   0.350  13.712  2.1435 -0.0055 -0.3568
 5165TIP3    H236987   0.683   0.482  13.783 -1.9763 -0.9707  0.5484
 5166TIP3   OH236988   2.877   5.935   1.946  0.5096  0.6514  0.2125
 5166TIP3    H136989   2.843   5.953   2.034  0.0207  0.7719  0.0034
 5166TIP3    H236990   2.881   6.021   1.905  2.6515  0.8728  0.7736
 5167TIP3   OH236991   1.009   3.983  14.816 -0.1143 -0.1175 -0.3248
 5167TIP3    H136992   1.008   3.967  14.911 -0.8080  1.2973 -0.0671
 5167TIP3    H236993   1.007   4.079  14.808  0.2776 -0.2106 -1.7769
 5168TIP3   OH236994   5.942   0.294  17.323  0.6175 -0.4664 -0.1233
 5168TIP3    H136995   6.012   0.284  17.259  1.9543  1.5364  0.9025
 5168TIP3    H236996   5.935   0.208  17.364  1.8587 -0.9553 -0.8743
 5169TIP3   OH236997   6.479   1.974   5.233 -0.8542 -0.6347  0.2030
 5169TIP3    H136998   6.392   1.973   5.192 -1.4623  0.1372  1.4428
 5169TIP3    H236999   6.521   2.053   5.199 -1.2291 -0.1782  0.7963
 5170TIP3   OH237000   3.411   3.483   0.416 -0.0749 -0.0919 -0.2508
 5170TIP3    H137001   3.333   3.437   0.447  1.0456 -2.0883 -0.1978
 5170TIP3    H237002   3.426   3.552   0.481 -0.9868 -0.5929  0.5164
 5171TIP3   OH237003   2.276   5.158  11.772  0.4194 -0.2545 -0.2419
 5171TIP3    H137004   2.219   5.234  11.766 -0.2877 -0.7635 -0.0816
 5171TIP3    H237005   2.362   5.190  11.746  0.1270  0.5958 -0.1724
 5172TIP3   OH237006   6.048   6.567   2.191 -0.5521 -0.4539  0.0862
 5172TIP3    H137007   6.079   6.498   2.133 -0.8341 -0.8410  0.3953
 5172TIP3    H237008   6.096   6.553   2.273  0.0742  0.2739 -0.1326
 5173TIP3   OH237009   4.304   0.458   4.286 -0.0165  0.3891 -0.0790
 5173TIP3    H137010   4.318   0.420   4.372  0.1026  0.2036 -0.1801
 5173TIP3    H237011   4.260   0.390   4.236 -0.5523  0.6753 -0.0144
 5174TIP3   OH237012   2.045   2.088  14.237 -0.3041 -0.1590  0.1009
 5174TIP3    H137013   2.118   2.058  14.183 -0.5336 -0.4654 -0.0450
 5174TIP3    H237014   2.086   2.127  14.314  0.0854  1.5004 -0.9041
 5175TIP3   OH237015   3.204   5.516  10.627  0.5186 -0.0173 -0.0549
 5175TIP3    H137016   3.135   5.496  10.564  0.0390 -0.2623  0.5418
 5175TIP3    H237017   3.174   5.597  10.670  0.4425 -0.2966  0.4249
 5176TIP3   OH237018   0.051   1.077  13.704 -0.1960  0.1189  0.6681
 5176TIP3    H137019   0.124   1.077  13.643 -1.3788  1.9743 -0.8473
 5176TIP3    H237020   0.048   1.166  13.739  0.0195 -0.7143  2.9889
 5177TIP3   OH237021   3.191   6.320  11.442 -0.0122  0.1217 -0.8949
 5177TIP3    H137022   3.123   6.269  11.487  1.0347 -1.1100 -0.6590
 5177TIP3    H237023   3.264   6.324  11.504 -0.6776  3.5815 -0.1130
 5178TIP3   OH237024   3.623   5.751   4.070  0.1981 -0.0108  0.3577
 5178TIP3    H137025   3.713   5.780   4.079  1.2424 -3.2295  1.2648
 5178TIP3    H237026   3.577   5.792   4.143  1.2173  0.5803  0.6870
 5179TIP3   OH237027   3.759   0.919   0.200 -0.2536  0.1305 -0.0549
 5179TIP3    H137028   3.670   0.919   0.235 -0.4297 -2.5391 -0.3048
 5179TIP3    H237029   3.750   0.889   0.110  0.9264 -0.9685  0.1496
 5180TIP3   OH237030   2.544   4.734   3.351  0.3798 -0.3401  0.0758
 5180TIP3    H137031   2.509   4.714   3.265  1.9217  1.0981 -0.9473
 5180TIP3    H237032   2.468   4.764   3.402 -0.4724 -0.7839 -0.9003
 5181TIP3   OH237033   1.189   1.952  14.699 -0.3928 -0.3042  0.5863
 5181TIP3    H137034   1.277   1.975  14.730 -1.0200  0.0840  2.1748
 5181TIP3    H237035   1.193   1.858  14.683 -0.0052 -0.5026  1.8044
 5182TIP3   OH237036   0.537   2.218  16.563 -0.2127 -0.3451  0.5005
 5182TIP3    H137037   0.505   2.261  16.642 -0.7941  0.4360 -0.1487
 5182TIP3    H237038   0.558   2.289  16.503 -0.4512 -0.9446 -0.3094
 5183TIP3   OH237039   3.211   6.657   2.875 -0.1015  0.6513  0.1999
 5183TIP3    H137040   3.123   6.692   2.885 -0.5769 -0.3553 -0.3099
 5183TIP3    H237041   3.266   6.714   2.929 -0.9263  1.7827 -0.1115
 5184TIP3   OH237042   3.727   1.516   4.968  0.3106  0.1329 -0.2367
 5184TIP3    H137043   3.675   1.509   5.048 -0.6367 -0.7257 -0.9040
 5184TIP3    H237044   3.704   1.602   4.932 -0.2500 -0.0095 -0.2342
 5185TIP3   OH237045   0.101   0.347  12.276  0.4769 -0.1026 -0.1981
 5185TIP3    H137046   0.188   0.387  12.266  0.2208  0.6823  0.6380
 5185TIP3    H237047   0.100   0.277  12.210  0.6967  1.6692 -2.2169
 5186TIP3   OH237048   3.313   6.204   4.050 -0.1842  0.1895  0.6358
 5186TIP3    H137049   3.283   6.295   4.050  1.6265  0.8276  1.1125
 5186TIP3    H237050   3.263   6.162   4.120  0.8562  1.5123  2.2276
 5187TIP3   OH237051   4.119   1.972  10.958  0.5433 -0.1403  0.2842
 5187TIP3    H137052   4.164   2.034  11.016 -1.8355  2.7267 -0.6615
 5187TIP3    H237053   4.033   1.959  10.999 -0.6277  0.7669 -1.7173
 5188TIP3   OH237054   0.093   2.760  13.893 -0.4532 -0.1512  0.4455
 5188TIP3    H137055   0.088   2.801  13.807  0.8468  0.0480  0.4319
 5188TIP3    H237056   0.119   2.670  13.874  1.0156  0.2032  0.6548
 5189TIP3   OH237057   3.382   1.773   3.103 -0.0346 -0.0448 -0.4092
 5189TIP3    H137058   3.307   1.829   3.120  0.9366  0.8069  1.2506
 5189TIP3    H237059   3.451   1.805   3.161  1.7483 -0.5778 -2.1252
 5190TIP3   OH237060   2.166   0.160   1.916  0.0194 -0.2138 -0.2072
 5190TIP3    H137061   2.227   0.112   1.973  1.1083  1.7692  0.3917
 5190TIP3    H237062   2.218   0.231   1.879 -1.6576  0.8862 -0.5790
 5191TIP3   OH237063   2.671   3.515   0.957  0.1604 -0.1900  0.1162
 5191TIP3    H137064   2.714   3.499   0.873 -1.4228 -0.9750 -0.6012
 5191TIP3    H237065   2.579   3.494   0.941 -0.6950  2.2351  1.3314
 5192TIP3   OH237066   0.046   3.785   6.647  0.2214 -0.7927  0.4031
 5192TIP3    H137067   0.123   3.791   6.591 -0.7641  1.7704 -0.8292
 5192TIP3    H237068   0.003   3.705   6.619 -0.1978  0.3466 -2.5745
 5193TIP3   OH237069   0.865   2.229   4.822 -0.3314  0.0891 -0.3699
 5193TIP3    H137070   0.868   2.324   4.816  1.4728  0.2500  2.0056
 5193TIP3    H237071   0.784   2.211   4.871  1.5941  0.8204  3.4118
 5194TIP3   OH237072   4.171   0.999   6.560 -0.4456 -0.0215  0.3581
 5194TIP3    H137073   4.251   1.042   6.529  0.9962 -1.2704  2.1341
 5194TIP3    H237074   4.122   0.979   6.480  0.0008  2.5470 -0.6687
 5195TIP3   OH237075   2.381   4.656   3.155  0.2112 -0.5552  0.6502
 5195TIP3    H137076   2.397   4.599   3.080 -0.4414 -1.8897  1.4965
 5195TIP3    H237077   2.331   4.730   3.119  0.2221 -0.9909 -0.2787
 5196TIP3   OH237078   6.431   4.565  11.206 -0.6130 -0.0020 -0.0890
 5196TIP3    H137079   6.367   4.495  11.219  0.5064 -0.8518  1.1695
 5196TIP3    H237080   6.405   4.633  11.268  0.9162 -1.2990  2.1419
 5197TIP3   OH237081   4.636   2.696   1.957  0.0650 -0.4105  0.0372
 5197TIP3    H137082   4.646   2.632   2.027  1.7201 -1.5119 -1.1413
 5197TIP3    H237083   4.556   2.668   1.911  0.6450 -1.5171 -0.3295
 5198TIP3   OH237084   5.349   3.908   0.735 -0.5648 -0.2798 -0.5095
 5198TIP3    H137085   5.315   3.842   0.796  1.6935  0.7004  1.9729
 5198TIP3    H237086   5.425   3.867   0.694 -0.9591 -0.2524 -1.3009
 5199TIP3   OH237087   4.633   3.800   1.847  0.3308  0.3272 -0.8860
 5199TIP3    H137088   4.684   3.775   1.924  1.4202  1.7603 -1.0945
 5199TIP3    H237089   4.545   3.818   1.881 -0.1322 -2.2060 -0.5235
 5200TIP3   OH237090   5.585   5.664   3.512 -0.2098 -0.4049 -0.6808
 5200TIP3    H137091   5.564   5.756   3.527 -1.4506 -0.8138  0.2871
 5200TIP3    H237092   5.673   5.665   3.475  0.3157  1.0968  0.5157
 5201TIP3   OH237093   4.963   6.180   3.277  0.3643  0.4021 -0.2009
 5201TIP3    H137094   4.976   6.202   3.185 -1.1938 -1.5780 -0.9606
 5201TIP3    H237095   4.980   6.086   3.282 -5.0358 -0.8365  0.2653
 5202TIP3   OH237096   0.384   3.212   2.022  0.3939 -0.1996 -0.3098
 5202TIP3    H137097   0.289   3.218   2.023  0.3112 -0.5864 -2.0568
 5202TIP3    H237098   0.413   3.289   1.973  0.9422 -0.4282 -0.3579
 5203TIP3   OH237099   3.546   3.736   0.335  0.0900 -0.3453  0.2024
 5203TIP3    H137100   3.482   3.784   0.387 -0.5219 -0.6311 -0.2696
 5203TIP3    H237101   3.524   3.644   0.350 -0.1166 -0.4337 -0.5615
 5204TIP3   OH237102   4.051   5.861  11.351 -0.0331  0.0163  0.0345
 5204TIP3    H137103   4.025   5.771  11.374  0.9925 -0.6754 -1.3424
 5204TIP3    H237104   4.061   5.905  11.435 -2.2139 -0.6439  0.7150
 5205TIP3   OH237105   1.299   6.604  11.918 -0.3599  0.3407  0.6357
 5205TIP3    H137106   1.203   6.605  11.914 -0.3654 -0.6903  0.2813
 5205TIP3    H237107   1.324   6.519  11.883  0.7610  1.2015 -0.8032
 5206TIP3   OH237108   2.663   6.111   5.182  0.1358  0.4018 -0.5486
 5206TIP3    H137109   2.623   6.182   5.132  1.9425  0.9191 -1.3362
 5206TIP3    H237110   2.698   6.052   5.115 -0.1339 -0.5258  0.1106
 5207TIP3   OH237111   2.176   2.519   1.025 -0.2972  0.6759 -0.7235
 5207TIP3    H137112   2.197   2.427   1.009 -1.2097  0.4300 -0.5735
 5207TIP3    H237113   2.261   2.561   1.039  0.1731 -0.0276 -1.3796
 5208TIP3   OH237114   3.363   1.703  14.507 -0.0868  0.3686  0.1297
 5208TIP3    H137115   3.344   1.787  14.464  1.3895  0.6399 -0.0478
 5208TIP3    H237116   3.364   1.639  14.436  1.3078  0.6473 -0.1426
 5209TIP3   OH237117   1.117   5.279  14.200  0.4590 -0.9616  0.1223
 5209TIP3    H137118   1.203   5.290  14.160  0.0609  1.5409 -0.2117
 5209TIP3    H237119   1.056   5.321  14.139 -0.6257 -0.2304  1.6333
 5210TIP3   OH237120   1.680   5.490   2.674 -0.1302  0.1426  0.4113
 5210TIP3    H137121   1.709   5.563   2.619  1.3695 -1.7110 -1.4038
 5210TIP3    H237122   1.598   5.462   2.634  0.5418 -0.6863 -0.4085
 5211TIP3   OH237123   6.546   4.271  13.996 -0.0527 -0.2078 -0.2491
 5211TIP3    H137124   6.589   4.256  13.912 -1.0085  0.5721 -0.8949
 5211TIP3    H237125   6.588   4.208  14.056 -0.5683 -2.0087 -1.6927
 5212TIP3   OH237126   3.183   5.562  12.753  0.1128 -0.2232 -0.4571
 5212TIP3    H137127   3.115   5.628  12.768  0.4837  0.9265 -3.1882
 5212TIP3    H237128   3.263   5.613  12.737  1.0135 -1.4556 -0.0192
 5213TIP3   OH237129   1.153   2.368   0.940  0.2271  0.3954 -0.0637
 5213TIP3    H137130   1.237   2.411   0.928 -0.6700  2.0764 -0.6657
 5213TIP3    H237131   1.091   2.423   0.892 -1.5727  0.4348  2.1561
 5214TIP3   OH237132   4.387   1.773   0.854  0.2154 -0.2093 -0.0055
 5214TIP3    H137133   4.375   1.740   0.943 -0.3912  0.8212  0.3156
 5214TIP3    H237134   4.405   1.696   0.802  0.6642 -0.8229  1.0316
 5215TIP3   OH237135   1.619   4.644   5.853  0.3435 -0.0919 -0.3111
 5215TIP3    H137136   1.636   4.620   5.762  0.2779 -1.3021 -0.0123
 5215TIP3    H237137   1.674   4.721   5.867 -1.2735  1.4894 -1.9992
 5216TIP3   OH237138   6.442   0.910  14.339  0.1350 -0.0565 -0.1923
 5216TIP3    H137139   6.486   0.900  14.424 -0.8566 -0.2582  0.3089
 5216TIP3    H237140   6.421   1.004  14.334 -2.5225 -0.4834  1.2109
 5217TIP3   OH237141   0.195   2.272   3.936  0.6352 -0.3082 -0.2351
 5217TIP3    H137142   0.115   2.302   3.893  0.7815 -0.1060 -0.3712
 5217TIP3    H237143   0.258   2.263   3.864  0.7902 -0.2772 -0.1026
 5218TIP3   OH237144   2.475   2.137   0.119 -0.0296  0.3893  0.0412
 5218TIP3    H137145   2.446   2.197   0.050  0.0151 -1.5918 -1.7853
 5218TIP3    H237146   2.448   2.180   0.200 -1.1080  2.2820 -1.2352
 5219TIP3   OH237147   2.635   5.054  14.280  0.0593 -0.2039 -0.5943
 5219TIP3    H137148   2.565   5.119  14.277 -1.4046 -1.5605  1.2648
 5219TIP3    H237149   2.594   4.974  14.248  1.0341 -0.8150 -0.3338
 5220TIP3   OH237150   5.860   2.291  14.382 -0.5432 -0.0039  0.2521
 5220TIP3    H137151   5.934   2.338  14.422  0.4269 -0.4083 -1.0303
 5220TIP3    H237152   5.850   2.212  14.435  0.6485 -0.4689 -0.1913
 5221TIP3   OH237153   1.807   6.497  15.474  0.3290 -0.2445  0.3689
 5221TIP3    H137154   1.861   6.465  15.402 -0.5538 -1.2637  0.1434
 5221TIP3    H237155   1.814   6.431  15.542  1.1632  0.7159  1.2516
 5222TIP3   OH237156   1.212   6.562  12.484  0.7906 -0.0375 -0.0275
 5222TIP3    H137157   1.254   6.498  12.427  0.4230 -0.9095  0.6579
 5222TIP3    H237158   1.154   6.510  12.539  0.7134  0.8577  0.7545
 5223TIP3   OH237159   2.392   4.708  17.116 -0.0857 -0.6247 -0.5491
 5223TIP3    H137160   2.438   4.650  17.054 -2.0794 -1.4958 -1.2869
 5223TIP3    H237161   2.299   4.691  17.100 -0.7172  1.8611  0.1431
 5224TIP3   OH237162   3.397   4.867  15.809 -0.5502 -0.5627 -0.1200
 5224TIP3    H137163   3.345   4.874  15.890  0.1366 -0.6229  0.3311
 5224TIP3    H237164   3.338   4.900  15.741 -1.2723 -0.8545  0.3419
 5225TIP3   OH237165   0.118   0.355  14.606 -0.4380  0.0772  0.3037
 5225TIP3    H137166   0.023   0.366  14.611 -0.4044  1.1059 -0.6760
 5225TIP3    H237167   0.131   0.289  14.538 -0.4463  0.2195  0.1631
 5226TIP3   OH237168   3.498   0.031   6.504 -0.0066 -0.0677 -0.4758
 5226TIP3    H137169   3.465  -0.055   6.529 -1.6632  0.7969  0.5702
 5226TIP3    H237170   3.525   0.071   6.587 -0.3375  0.8132 -0.7799
 5227TIP3   OH237171   5.347   4.169  17.079 -0.1122 -0.0547  0.4434
 5227TIP3    H137172   5.279   4.235  17.087  0.6723  0.9292 -0.6416
 5227TIP3    H237173   5.304   4.094  17.040 -0.3545  0.9799 -1.3643
 5228TIP3   OH237174   3.082   2.012  11.811  0.2271  0.1579 -0.0894
 5228TIP3    H137175   3.053   2.081  11.751 -1.9284  1.9735  2.7384
 5228TIP3    H237176   3.041   1.932  11.778  0.2745  0.7783 -1.7582
 5229TIP3   OH237177   4.055   1.761   5.963  0.3195 -0.2108 -0.3844
 5229TIP3    H137178   4.016   1.720   6.040  2.1517 -1.2781  0.0362
 5229TIP3    H237179   4.022   1.851   5.964 -0.1494 -0.3725  1.2985
 5230TIP3   OH237180   5.353   1.232  11.081  0.2537 -0.3110 -0.5747
 5230TIP3    H137181   5.260   1.240  11.102  0.5923  1.6980  0.3762
 5230TIP3    H237182   5.361   1.269  10.993  0.1311 -0.6863 -0.7465
 5231TIP3   OH237183   6.344   0.406  15.203  0.8512 -0.3904 -0.3409
 5231TIP3    H137184   6.249   0.393  15.196  1.1041 -1.6161 -2.4140
 5231TIP3    H237185   6.358   0.497  15.177  0.2324 -0.1606  0.1115
 5232TIP3   OH237186   2.837   6.235   3.633  0.0434  0.1908  0.4328
 5232TIP3    H137187   2.786   6.189   3.699 -1.3260 -0.6071 -1.1151
 5232TIP3    H237188   2.795   6.321   3.626  0.2051  0.2849  0.6056
 5233TIP3   OH237189   6.549   6.753   2.782  0.0627 -0.7936  0.0798
 5233TIP3    H137190   6.500   6.830   2.809  0.5976  0.9132 -3.2705
 5233TIP3    H237191   6.626   6.752   2.840 -0.1745  0.9467  0.4893
 5234TIP3   OH237192   0.723   5.917  14.654  0.3245 -0.5929 -0.7159
 5234TIP3    H137193   0.683   5.850  14.708 -0.5342 -2.4452 -3.4310
 5234TIP3    H237194   0.817   5.906  14.668  0.1806 -2.1667 -0.8484
 5235TIP3   OH237195   0.897   5.337  14.000  0.2308  0.2897 -0.6914
 5235TIP3    H137196   0.805   5.363  14.010  0.2234 -0.5598  3.2774
 5235TIP3    H237197   0.893   5.251  13.958 -0.7697  0.2957 -0.6352
 5236TIP3   OH237198   5.761   0.253   3.558  0.3199  0.1956 -0.5451
 5236TIP3    H137199   5.745   0.346   3.569  0.4998 -0.0392  2.5949
 5236TIP3    H237200   5.674   0.215   3.546  0.0725  0.5728  0.0388
 5237TIP3   OH237201   5.348   5.407   2.827  0.2679 -0.2235  0.5998
 5237TIP3    H137202   5.313   5.432   2.741  2.1189 -3.0372 -1.1681
 5237TIP3    H237203   5.404   5.480   2.853  0.8928  0.0785 -1.4215
 5238TIP3   OH237204   6.433   2.625   5.395 -0.5299 -0.5064 -0.4972
 5238TIP3    H137205   6.480   2.677   5.331 -0.4770  0.1035  0.0340
 5238TIP3    H237206   6.499   2.600   5.460 -1.0176  0.8260  0.5531
 5239TIP3   OH237207   3.544   0.082   0.298  0.6043 -0.6751  0.4568
 5239TIP3    H137208   3.567   0.171   0.273 -1.2567 -0.1940  0.2995
 5239TIP3    H237209   3.546   0.033   0.216 -1.5002 -0.0200 -0.0297
 5240TIP3   OH237210   0.812   2.653   0.017 -0.0703  0.2395 -0.2425
 5240TIP3    H137211   0.810   2.557   0.019 -0.5560  0.2634  0.6095
 5240TIP3    H237212   0.732   2.679   0.062  1.4537  1.0641  2.1796
 5241TIP3   OH237213   0.133   6.501   0.270  0.4575 -0.2375  0.1916
 5241TIP3    H137214   0.227   6.522   0.267  0.8810 -1.6923  1.7033
 5241TIP3    H237215   0.097   6.559   0.336  0.3635  0.0828 -0.1413
 5242TIP3   OH237216   2.404   3.074  12.038 -0.3529  0.2386  0.6187
 5242TIP3    H137217   2.450   3.138  12.092 -1.2718  0.2001  1.4674
 5242TIP3    H237218   2.313   3.102  12.041 -0.5803 -0.4066 -0.0313
 5243TIP3   OH237219   1.119   2.638  13.834 -0.4522  0.1140 -0.2038
 5243TIP3    H137220   1.037   2.633  13.883 -0.3864  1.0035  0.0233
 5243TIP3    H237221   1.163   2.715  13.870  0.4666 -0.3315 -0.3500
 5244TIP3   OH237222   2.283   2.639   5.248  0.3663 -0.6239  0.4958
 5244TIP3    H137223   2.312   2.549   5.258  0.4647 -0.5715  0.6773
 5244TIP3    H237224   2.188   2.635   5.254  0.4488 -0.2416  4.3623
 5245TIP3   OH237225   2.020   5.681  11.693  0.0559  0.5120 -0.0177
 5245TIP3    H137226   2.063   5.640  11.618  1.6675  1.8676  0.0986
 5245TIP3    H237227   1.928   5.687  11.668  0.5217  0.7494 -1.7937
 5246TIP3   OH237228   6.238   4.793  17.139  0.7450 -0.2487 -0.3000
 5246TIP3    H137229   6.252   4.721  17.077 -0.0093  0.4043 -1.2575
 5246TIP3    H237230   6.147   4.784  17.166  0.8981 -0.1595  0.2609
 5247TIP3   OH237231   0.533   4.082  15.796 -0.1356 -0.1350 -0.4258
 5247TIP3    H137232   0.585   4.011  15.758  0.3688  0.0363 -0.0673
 5247TIP3    H237233   0.443   4.062  15.771  0.0753 -0.5569 -0.8664
 5248TIP3   OH237234   2.394   2.401   5.304  0.0430 -0.0427  0.7423
 5248TIP3    H137235   2.483   2.424   5.329 -0.6221  0.0907  3.2684
 5248TIP3    H237236   2.365   2.342   5.373 -1.9174  0.1406  0.1238
 5249TIP3   OH237237   3.811   6.169  15.358  0.3638 -0.5010 -0.0317
 5249TIP3    H137238   3.822   6.076  15.375 -0.3767 -0.6016 -0.0625
 5249TIP3    H237239   3.774   6.204  15.438  1.6091 -0.0270  0.3579
 5250TIP3   OH237240   4.629   1.208  13.101 -0.1259 -0.3198 -0.1090
 5250TIP3    H137241   4.542   1.168  13.104 -0.6844  0.8607 -0.2104
 5250TIP3    H237242   4.686   1.138  13.070 -1.0434 -1.1013 -0.0842
 5251TIP3   OH237243   0.441   3.168   1.101  0.1847  0.1579 -0.6167
 5251TIP3    H137244   0.440   3.171   1.197  1.6931 -0.2022 -0.5571
 5251TIP3    H237245   0.524   3.210   1.077  2.7096 -4.5656 -1.4357
 5252TIP3   OH237246   3.585   4.497   3.164 -1.0710 -0.6662  0.0450
 5252TIP3    H137247   3.651   4.514   3.231 -0.2041 -0.1598 -0.9102
 5252TIP3    H237248   3.600   4.406   3.137  0.0224 -0.2102 -0.9764
 5253TIP3   OH237249   5.067   1.798  16.001 -0.8054 -0.1804  0.5189
 5253TIP3    H137250   5.142   1.849  15.970 -2.8824  2.1789 -1.0473
 5253TIP3    H237251   5.050   1.735  15.930 -0.4520 -0.5599  0.7689
 5254TIP3   OH237252   3.836   1.103   3.005 -0.4972  0.0983  0.4313
 5254TIP3    H137253   3.865   1.016   3.034  0.6153  0.6998  1.1755
 5254TIP3    H237254   3.811   1.090   2.913 -0.3137 -0.9939  0.5182
 5255TIP3   OH237255   0.127   3.228  13.816 -0.4265  0.2635 -0.2100
 5255TIP3    H137256   0.110   3.307  13.765  1.9217  1.4528  0.7028
 5255TIP3    H237257   0.174   3.170  13.756  1.1086  1.0999  0.1402
 5256TIP3   OH237258   3.944   0.825   1.090 -0.3669 -0.3399 -0.0268
 5256TIP3    H137259   4.015   0.766   1.064  0.1685  0.4115 -0.2853
 5256TIP3    H237260   3.873   0.806   1.029  0.3406  0.3376 -1.0874
 5257TIP3   OH237261   2.091   3.365   2.727 -0.2188 -0.1755  0.2676
 5257TIP3    H137262   2.139   3.312   2.664 -0.2659 -0.0187  0.0985
 5257TIP3    H237263   2.028   3.413   2.674  2.2970  2.9872 -0.2072
 5258TIP3   OH237264   1.235   4.146  15.190  0.2302  0.4751 -0.0714
 5258TIP3    H137265   1.320   4.145  15.145  0.0809  0.4871 -0.3595
 5258TIP3    H237266   1.243   4.217  15.253 -0.4735  2.3190 -1.9302
 5259TIP3   OH237267   0.397   0.043   2.554 -0.5157  0.2379 -0.6453
 5259TIP3    H137268   0.470   0.024   2.495  0.0436  0.7566 -0.1396
 5259TIP3    H237269   0.405  -0.021   2.624  1.0093  1.8344  0.7427
 5260TIP3   OH237270   0.209   1.752  15.258  0.1854 -0.5995 -0.1748
 5260TIP3    H137271   0.147   1.825  15.255  0.5061 -0.2894  0.4314
 5260TIP3    H237272   0.289   1.791  15.294  0.3768 -1.2381  0.0941
 5261TIP3   OH237273   4.245   2.088  13.386 -0.5891 -0.1388  0.3307
 5261TIP3    H137274   4.274   2.174  13.356  0.0415  0.5051  2.5701
 5261TIP3    H237275   4.323   2.046  13.421 -1.0834 -1.2403  0.1840
 5262TIP3   OH237276   1.926   4.893  17.076 -0.1072  0.1065  0.1145
 5262TIP3    H137277   1.847   4.945  17.093 -1.4991 -1.6386 -0.6196
 5262TIP3    H237278   1.947   4.853  17.161 -0.1486  0.3962  0.2623
 5263TIP3   OH237279   3.102   1.786  13.093 -1.0875 -0.1782  0.2576
 5263TIP3    H137280   3.150   1.704  13.106  0.3802  0.1532 -2.4032
 5263TIP3    H237281   3.074   1.811  13.181 -0.9193 -3.0995  1.2603
 5264TIP3   OH237282   1.324   0.207  15.418 -0.2454 -0.1205 -0.3927
 5264TIP3    H137283   1.326   0.302  15.420 -1.7729 -0.0134 -1.6581
 5264TIP3    H237284   1.273   0.182  15.495 -0.7964  0.1564 -0.6615
 5265TIP3   OH237285   4.751   6.273  14.488 -0.0225 -0.1490  0.2370
 5265TIP3    H137286   4.714   6.339  14.547 -0.1728  0.4772 -0.5390
 5265TIP3    H237287   4.697   6.196  14.503 -0.9053  0.4018 -0.0264
 5266TIP3   OH237288   3.994   0.276   5.315  0.4542  0.0577  0.3533
 5266TIP3    H137289   3.975   0.332   5.240 -1.6655  1.4642  1.8064
 5266TIP3    H237290   3.975   0.187   5.285  1.0481  0.4169 -1.1546
 5267TIP3   OH237291   2.993   4.876  11.275 -0.0880 -0.4074  0.1454
 5267TIP3    H137292   3.039   4.887  11.192  0.8248 -0.2755  0.6520
 5267TIP3    H237293   2.974   4.966  11.303 -0.3573 -0.4495  0.0926
 5268TIP3   OH237294   5.624   2.620  15.376 -0.1576  0.2536  0.2634
 5268TIP3    H137295   5.609   2.535  15.335 -0.0394  0.1985  0.3351
 5268TIP3    H237296   5.573   2.681  15.323 -0.2123  0.1442  0.1891
 5269TIP3   OH237297   5.879   3.172   1.132  0.1669 -0.1834 -0.0260
 5269TIP3    H137298   5.973   3.157   1.134  0.4291  1.3431  1.3596
 5269TIP3    H237299   5.860   3.194   1.041  0.9289 -1.6162 -0.5560
 5270TIP3   OH237300   6.282   0.148   5.867  0.3365 -0.1634 -0.4608
 5270TIP3    H137301   6.274   0.116   5.777 -1.6481  0.4860 -0.5818
 5270TIP3    H237302   6.330   0.079   5.913  0.0275 -1.2468 -1.6817
 5271TIP3   OH237303   0.805   1.561   5.491 -0.2103 -0.6536  0.2443
 5271TIP3    H137304   0.727   1.613   5.514  1.0285  0.7999  1.4016
 5271TIP3    H237305   0.813   1.571   5.396  0.2059  1.7196  0.4500
 5272TIP3   OH237306   1.617   6.153   2.361 -0.5292 -0.7839 -0.3655
 5272TIP3    H137307   1.671   6.189   2.290 -0.0807 -1.0093 -0.1488
 5272TIP3    H237308   1.578   6.074   2.324  0.3634 -1.3581 -0.1141
 5273TIP3   OH237309   4.692   0.577   2.906 -0.2645 -0.9335  0.2642
 5273TIP3    H137310   4.693   0.670   2.930  2.7649 -1.0282  0.9389
 5273TIP3    H237311   4.662   0.532   2.986 -3.8636 -0.5468 -0.7040
 5274TIP3   OH237312   1.587   1.667  12.278  0.0479 -0.7231 -0.4555
 5274TIP3    H137313   1.521   1.620  12.329 -0.7780 -1.3637 -2.0574
 5274TIP3    H237314   1.586   1.624  12.192  0.6471  0.9881 -1.3523
 5275TIP3   OH237315   1.681   1.276  16.385 -0.3265  0.4665 -0.5315
 5275TIP3    H137316   1.700   1.201  16.329 -0.4829  0.3654 -0.4498
 5275TIP3    H237317   1.711   1.352  16.335  2.3448  0.1794  0.4625
 5276TIP3   OH237318   3.581   1.569  13.449 -0.0237 -0.0577 -0.8371
 5276TIP3    H137319   3.573   1.664  13.458  0.4925  0.1084 -1.9707
 5276TIP3    H237320   3.622   1.556  13.363  0.8762 -1.2656 -0.2619
 5277TIP3   OH237321   0.107   2.558   5.397 -0.2826  0.1215 -0.8678
 5277TIP3    H137322   0.113   2.463   5.407 -0.9266 -0.0821 -2.2369
 5277TIP3    H237323   0.115   2.573   5.303  2.6353  1.6907 -0.4763
 5278TIP3   OH237324   1.667   0.030   3.415 -0.1573  0.4552  0.0045
 5278TIP3    H137325   1.647   0.076   3.334 -0.6390  0.3504  0.0600
 5278TIP3    H237326   1.622  -0.054   3.407 -0.3892  0.5278  0.4659
 5279TIP3   OH237327   6.346   1.486   3.053  0.5685 -0.2060 -0.1704
 5279TIP3    H137328   6.332   1.568   3.006  1.2569  1.1132  1.8059
 5279TIP3    H237329   6.396   1.511   3.130  0.3989 -2.4370  0.7307
 5280TIP3   OH237330   4.804   0.228   2.885  0.4841 -0.0222 -0.2339
 5280TIP3    H137331   4.767   0.240   2.972  0.0844 -0.5932 -0.3231
 5280TIP3    H237332   4.744   0.275   2.827  0.9325  0.6464 -0.1737
 5281TIP3   OH237333   1.132   0.304  15.076  0.2591 -0.1340 -0.0015
 5281TIP3    H137334   1.202   0.310  15.142 -1.7502 -2.3597  2.5837
 5281TIP3    H237335   1.141   0.216  15.039 -1.2529 -0.5737  0.5836
 5282TIP3   OH237336   6.390   0.475  11.931 -0.1576 -0.1484  0.4493
 5282TIP3    H137337   6.463   0.417  11.910 -0.8313 -0.6066 -0.7223
 5282TIP3    H237338   6.418   0.561  11.900 -0.3251 -0.4287 -0.4953
 5283TIP3   OH237339   3.997   2.457  13.577 -0.1376 -0.1228  0.3569
 5283TIP3    H137340   4.054   2.518  13.530  0.9110 -0.5028  1.1094
 5283TIP3    H237341   4.015   2.372  13.536 -1.5946  0.0197 -0.6893
 5284TIP3   OH237342   6.326   0.773  15.803  0.0148 -0.0373  0.0732
 5284TIP3    H137343   6.259   0.792  15.868 -0.8370 -3.0123  0.2359
 5284TIP3    H237344   6.283   0.788  15.719  0.0178  0.5929  0.1833
 5285TIP3   OH237345   0.416   1.805   1.739  0.1426  0.4286 -0.0815
 5285TIP3    H137346   0.422   1.879   1.678  0.6585  1.6060  1.3178
 5285TIP3    H237347   0.363   1.839   1.812 -0.7100 -1.0335  0.0050
 5286TIP3   OH237348   5.773   2.676   1.347 -0.0133  0.7593 -0.0548
 5286TIP3    H137349   5.819   2.757   1.326  1.4666  0.3999  1.5293
 5286TIP3    H237350   5.737   2.692   1.435 -2.8334  0.9429 -1.1314
 5287TIP3   OH237351   5.889   5.837   2.289  0.2348 -0.0901 -0.6098
 5287TIP3    H137352   5.970   5.786   2.288  0.0224 -1.1647  4.9880
 5287TIP3    H237353   5.915   5.922   2.322 -0.6080  0.6583 -1.8002
 5288TIP3   OH237354   4.289   0.557   3.091 -0.1994 -0.3753 -0.3073
 5288TIP3    H137355   4.311   0.601   3.009 -0.0373  0.0735 -0.0272
 5288TIP3    H237356   4.331   0.611   3.158 -0.8616 -0.3869  0.1177
 5289TIP3   OH237357   4.696   3.469   2.409 -0.3915  0.1943  0.7043
 5289TIP3    H137358   4.764   3.494   2.346 -0.0970 -0.1854  0.8637
 5289TIP3    H237359   4.676   3.550   2.456  1.8752 -0.1694  2.4803
 5290TIP3   OH237360   5.955   1.964  11.244 -0.1245  0.3325  0.4410
 5290TIP3    H137361   5.970   1.913  11.165 -2.0073  0.3209  0.0632
 5290TIP3    H237362   5.999   2.048  11.227 -1.9336  0.9994 -1.3878
 5291TIP3   OH237363   6.507   1.543   1.027  0.4205 -0.0417  0.1632
 5291TIP3    H137364   6.569   1.540   0.954 -1.0127 -1.2054 -1.0686
 5291TIP3    H237365   6.427   1.579   0.988 -0.5114 -1.1141  1.0313
 5292TIP3   OH237366   6.775   3.471  15.302 -0.0683  0.5762 -0.1424
 5292TIP3    H137367   6.742   3.392  15.344  0.3658 -0.6599 -2.0388
 5292TIP3    H237368   6.789   3.532  15.375 -1.2222 -0.7619  1.2799
 5293TIP3   OH237369   3.177   2.279  14.812 -0.3088 -0.6572  0.5503
 5293TIP3    H137370   3.115   2.307  14.879 -1.9376 -1.3030 -0.5909
 5293TIP3    H237371   3.214   2.198  14.845  1.0644  0.4612  1.8824
 5294TIP3   OH237372   4.872   6.733  16.622  0.2818  0.4163 -0.1826
 5294TIP3    H137373   4.874   6.653  16.676 -0.3892  1.2543  1.1439
 5294TIP3    H237374   4.922   6.797  16.674 -0.1624  1.1776 -0.6866
 5295TIP3   OH237375   5.567   6.657   4.105  0.2705  0.2440  0.1483
 5295TIP3    H137376   5.567   6.750   4.129 -1.7991  0.4725 -0.5086
 5295TIP3    H237377   5.644   6.647   4.049 -0.0500  1.8343 -0.6517
 5296TIP3   OH237378   3.650   4.483  14.981 -0.4264  0.3631  0.6402
 5296TIP3    H137379   3.611   4.408  15.026  0.2866  0.0899  0.8207
 5296TIP3    H237380   3.704   4.525  15.048 -0.1648  0.5477  0.3148
 5297TIP3   OH237381   5.717   0.057   3.307 -0.2605 -0.0552 -0.0450
 5297TIP3    H137382   5.733  -0.015   3.246  0.5084  0.4993 -0.5129
 5297TIP3    H237383   5.698   0.132   3.250  0.2987  0.4284  0.3978
 5298TIP3   OH237384   3.480   1.330  17.211  0.1866  0.1378  0.4073
 5298TIP3    H137385   3.458   1.423  17.215 -1.6308 -0.1870 -0.6694
 5298TIP3    H237386   3.404   1.286  17.247 -0.7110 -1.0454 -2.5965
 5299TIP3   OH237387   0.186   1.644   2.673 -0.1513  0.1344  0.1594
 5299TIP3    H137388   0.193   1.739   2.669  1.5601  0.0769  0.6980
 5299TIP3    H237389   0.239   1.613   2.599 -3.4138 -0.4259 -2.1487
 5300TIP3   OH237390   2.194   5.882   3.253 -0.3396  0.0537 -0.0677
 5300TIP3    H137391   2.101   5.864   3.268  0.2201 -2.0293  1.3086
 5300TIP3    H237392   2.219   5.821   3.183  0.0564  0.4753 -0.3012
 5301TIP3   OH237393   2.287   1.787   0.348  0.0645 -0.4416 -0.1276
 5301TIP3    H137394   2.332   1.743   0.421 -0.1313 -0.1618  0.1678
 5301TIP3    H237395   2.194   1.775   0.367  0.0137 -0.7490 -0.5714
 5302TIP3   OH237396   4.005   6.004   3.324  0.3689 -0.0804  0.1468
 5302TIP3    H137397   4.074   5.971   3.382  0.9641 -1.4457 -1.2283
 5302TIP3    H237398   4.051   6.062   3.263 -0.4148  2.1500  1.5778
 5303TIP3   OH237399   0.197   4.864   3.985  0.4185 -0.0191 -0.2374
 5303TIP3    H137400   0.263   4.825   4.042 -0.7787  1.0892  2.0358
 5303TIP3    H237401   0.175   4.947   4.028 -1.5631  0.2120 -1.5949
 5304TIP3   OH237402   2.430   1.923   3.143  0.2797  0.2778 -0.3384
 5304TIP3    H137403   2.519   1.952   3.121  0.4874 -0.3146 -0.2969
 5304TIP3    H237404   2.405   1.978   3.217 -0.2443  1.9861 -1.6999
 5305TIP3   OH237405   6.554   4.752   3.543 -0.4176  0.3124  0.0007
 5305TIP3    H137406   6.570   4.839   3.508 -2.1443  0.4735 -0.4817
 5305TIP3    H237407   6.553   4.695   3.466 -0.0811 -0.0187  0.2340
 5306TIP3   OH237408   6.001   0.316   1.254  0.0293  0.0299  0.4434
 5306TIP3    H137409   5.962   0.283   1.173  0.8292 -0.7467  0.3534
 5306TIP3    H237410   6.071   0.375   1.224  0.3293 -0.2616  0.5594
 5307TIP3   OH237411   4.814   3.776   6.105 -0.1968 -0.4459 -0.4163
 5307TIP3    H137412   4.870   3.738   6.038 -0.0961 -1.3232  0.1428
 5307TIP3    H237413   4.874   3.806   6.173 -0.1889  1.8806 -1.3848
 5308TIP3   OH237414   4.234   2.123   4.922  0.1713  0.3383  0.2032
 5308TIP3    H137415   4.176   2.096   4.993 -1.3225 -0.2058 -1.1518
 5308TIP3    H237416   4.307   2.061   4.925  0.6064  0.8885  1.7979
 5309TIP3   OH237417   0.788   4.720   5.672 -0.4654 -0.2998  0.3389
 5309TIP3    H137418   0.748   4.703   5.757  0.3783 -0.7421  0.6494
 5309TIP3    H237419   0.791   4.816   5.666  0.1491 -0.2624  1.1310
 5310TIP3   OH237420   2.698   3.710  13.143 -0.0082 -0.2316  0.1362
 5310TIP3    H137421   2.729   3.620  13.131  0.9841  0.1308 -0.0911
 5310TIP3    H237422   2.699   3.747  13.054  0.6836  0.3460  0.3781
 5311TIP3   OH237423   0.747   5.898  16.437 -0.2082 -0.2729 -0.1384
 5311TIP3    H137424   0.713   5.987  16.448  2.3056  0.7557 -0.0139
 5311TIP3    H237425   0.770   5.869  16.525  1.0450 -0.1349 -0.4056
 5312TIP3   OH237426   4.590   2.237   5.229 -0.6120  0.3591 -0.3574
 5312TIP3    H137427   4.600   2.263   5.138  1.1509  3.3722  0.5573
 5312TIP3    H237428   4.524   2.297   5.265  2.3262  2.8492  1.4122
 5313TIP3   OH237429   1.870   4.358   1.230  0.0851  0.2937  0.0613
 5313TIP3    H137430   1.860   4.267   1.256  0.8316  0.0051 -0.6326
 5313TIP3    H237431   1.883   4.355   1.135 -0.6303  1.1826 -0.0877
 5314TIP3   OH237432   5.490   2.401  11.800  0.2368 -0.0785 -0.5263
 5314TIP3    H137433   5.493   2.400  11.704  0.3482  0.8692 -0.5434
 5314TIP3    H237434   5.573   2.362  11.827  0.8052  0.8883 -0.8336
 5315TIP3   OH237435   2.700   5.476   5.144 -0.4220  0.3497 -0.2879
 5315TIP3    H137436   2.715   5.538   5.072  0.4786 -0.5270 -0.8788
 5315TIP3    H237437   2.605   5.477   5.158 -0.5030  1.2292 -0.8484
 5316TIP3   OH237438   6.133   6.609  15.462 -0.0713 -0.6755 -0.4024
 5316TIP3    H137439   6.071   6.578  15.395 -0.5374  0.9245 -0.7565
 5316TIP3    H237440   6.216   6.619  15.415 -0.2943  0.0438 -0.6492
 5317TIP3   OH237441   0.207   4.096  11.600 -0.3373 -0.0427  0.2756
 5317TIP3    H137442   0.222   4.050  11.517 -0.6085  3.3539 -1.8176
 5317TIP3    H237443   0.288   4.143  11.617 -0.7331  0.2906  1.3154
 5318TIP3   OH237444   3.074   3.863  12.564 -0.5170  0.2242 -0.6498
 5318TIP3    H137445   3.042   3.928  12.626 -1.1294  0.1546 -0.8792
 5318TIP3    H237446   3.152   3.902  12.525 -0.9021  0.8458 -0.8141
 5319TIP3   OH237447   2.115   5.045  16.503 -0.0250 -0.0923  0.3385
 5319TIP3    H137448   2.187   5.104  16.479  1.0471 -1.7202 -0.6567
 5319TIP3    H237449   2.105   4.987  16.427  0.6877 -2.8186  2.1586
 5320TIP3   OH237450   4.537   3.820   2.854 -0.2215 -0.1779 -0.1259
 5320TIP3    H137451   4.483   3.850   2.927  1.2917  1.1823  0.4959
 5320TIP3    H237452   4.591   3.750   2.891 -0.4656 -0.4760 -0.3323
 5321TIP3   OH237453   0.482   4.083   4.870  0.0460 -0.3247 -0.6320
 5321TIP3    H137454   0.537   4.079   4.948 -0.2539 -0.7682 -0.4301
 5321TIP3    H237455   0.467   3.991   4.847 -0.8791 -0.2258 -0.4770
 5322TIP3   OH237456   4.158   1.767  12.910  0.3265 -0.0894 -0.0916
 5322TIP3    H137457   4.165   1.831  12.839  0.9448  0.6017  0.5738
 5322TIP3    H237458   4.247   1.733  12.920  0.7044  1.2666  1.6440
 5323TIP3   OH237459   0.237   3.305   4.014 -0.3279  0.3477  0.1495
 5323TIP3    H137460   0.243   3.237   3.947 -0.8827  1.2380 -0.8177
 5323TIP3    H237461   0.329   3.328   4.032 -0.1824  0.3065 -0.5128
 5324TIP3   OH237462   0.571   3.627  13.214  1.1103  0.6083 -0.0720
 5324TIP3    H137463   0.527   3.543  13.199 -0.9036  1.6154 -0.0384
 5324TIP3    H237464   0.664   3.607  13.202  0.6313 -1.4632 -0.7958
 5325TIP3   OH237465   3.590   6.282   0.348  0.0149 -0.1516 -0.3027
 5325TIP3    H137466   3.569   6.245   0.434 -2.2883  0.5180 -0.5175
 5325TIP3    H237467   3.593   6.376   0.363  2.4570 -0.1563 -0.4367
 5326TIP3   OH237468   2.213   1.820  11.315  0.1376  0.3738 -0.3690
 5326TIP3    H137469   2.126   1.791  11.290 -0.3064  0.9002  0.5121
 5326TIP3    H237470   2.226   1.901  11.266  0.5112 -0.1719 -1.1934
 5327TIP3   OH237471   4.875   3.789   2.796  0.0863  0.1415 -0.5484
 5327TIP3    H137472   4.782   3.791   2.775 -0.5927 -0.4940  2.0582
 5327TIP3    H237473   4.897   3.879   2.819 -0.0802  0.1639 -0.4767
 5328TIP3   OH237474   0.672   0.926   1.830 -0.0863  0.2077 -0.2376
 5328TIP3    H137475   0.688   0.993   1.897  0.0168 -0.7645  0.7499
 5328TIP3    H237476   0.589   0.951   1.791 -0.0471  0.9198  0.1098
 5329TIP3   OH237477   3.953   6.018  14.354 -0.0867  0.0324 -0.0123
 5329TIP3    H137478   3.962   5.950  14.287 -0.1672  0.6587 -0.6646
 5329TIP3    H237479   4.020   6.082  14.333  0.1006  0.0834  0.7049
 5330TIP3   OH237480   1.012   5.180  13.575 -0.1254  0.1559  0.4346
 5330TIP3    H137481   0.971   5.098  13.602  1.3904 -0.5937  0.5723
 5330TIP3    H237482   0.941   5.244  13.577 -1.9455 -1.5943 -2.0638
 5331TIP3   OH237483   5.505   4.903   6.514  0.0444 -0.0728  0.6597
 5331TIP3    H137484   5.545   4.834   6.565  1.1340  0.7100  0.8938
 5331TIP3    H237485   5.526   4.984   6.561 -3.2345  0.3032  1.7379
 5332TIP3   OH237486   0.249   3.096  14.063  0.1098  0.0574  0.6567
 5332TIP3    H137487   0.211   3.120  13.979 -0.9425 -0.2575  1.0355
 5332TIP3    H237488   0.293   3.175  14.094  0.6957  0.1084 -0.2850
 5333TIP3   OH237489   6.614   4.384  11.784  0.0821 -0.4341 -0.4430
 5333TIP3    H137490   6.705   4.376  11.756  0.3030 -1.2794  0.4768
 5333TIP3    H237491   6.577   4.297  11.769 -0.4676 -0.2107 -0.4043
 5334TIP3   OH237492   6.136   1.350   0.614 -0.1742  0.0174 -0.4564
 5334TIP3    H137493   6.104   1.298   0.688 -0.7777 -0.8027 -1.2631
 5334TIP3    H237494   6.091   1.312   0.538  0.6875  0.6268 -1.2822
 5335TIP3   OH237495   1.565   6.563  11.336  0.6549 -0.0945 -0.1460
 5335TIP3    H137496   1.562   6.469  11.354  0.2323  0.0001  0.3047
 5335TIP3    H237497   1.594   6.570  11.245 -1.1493 -0.7333 -0.8039
 5336TIP3   OH237498   5.725   2.173  11.531 -0.1942  0.1341  0.2434
 5336TIP3    H137499   5.686   2.258  11.547 -0.1604  0.3821 -0.9254
 5336TIP3    H237500   5.778   2.185  11.452 -2.3744 -1.6192 -1.6494
 5337TIP3   OH237501   0.506   1.553  14.137 -0.1087  0.2480  0.0598
 5337TIP3    H137502   0.433   1.492  14.122 -0.0632  0.6273 -2.0209
 5337TIP3    H237503   0.521   1.593  14.052  2.0962  0.7025  0.6092
 5338TIP3   OH237504   5.443   2.981  14.325 -0.0148  0.2180  0.1056
 5338TIP3    H137505   5.386   2.982  14.403 -0.5125  0.0426 -0.2483
 5338TIP3    H237506   5.392   2.933  14.259  0.5654  0.0238 -0.2070
 5339TIP3   OH237507   3.505   5.888   0.389 -0.6449  0.1346 -0.2138
 5339TIP3    H137508   3.553   5.875   0.307  1.0755 -0.4562  0.8244
 5339TIP3    H237509   3.573   5.888   0.456 -2.0862 -0.2871  1.3089
 5340TIP3   OH237510   5.259   5.817   3.133  0.1318  0.4216 -0.3891
 5340TIP3    H137511   5.349   5.846   3.147  0.0146  0.3413  0.6370
 5340TIP3    H237512   5.219   5.887   3.082  0.9122  0.2053 -1.3209
 5341TIP3   OH237513   0.106   3.924  11.763 -0.5643 -0.3928  0.1295
 5341TIP3    H137514   0.147   3.981  11.699 -0.2296 -0.2826  0.4390
 5341TIP3    H237515   0.127   3.964  11.848 -0.3965 -0.9254  0.3456
 5342TIP3   OH237516   3.575   6.127   1.412  0.4474  0.7091  0.6469
 5342TIP3    H137517   3.553   6.037   1.433  0.3627  0.7479  0.7240
 5342TIP3    H237518   3.531   6.143   1.328  3.1183 -0.3753 -1.1009
 5343TIP3   OH237519   4.980   6.542   2.799 -0.1381 -0.2341 -0.5268
 5343TIP3    H137520   4.970   6.580   2.886  0.7783 -0.7928 -0.1657
 5343TIP3    H237521   5.057   6.485   2.806  0.9564  0.9579 -2.1398
 5344TIP3   OH237522   3.672   0.640  12.132 -0.3606  0.2473 -0.5146
 5344TIP3    H137523   3.756   0.683  12.120  0.2983 -0.3945  1.3934
 5344TIP3    H237524   3.607   0.711  12.127  0.5084  1.1293  0.3534
 5345TIP3   OH237525   6.082   6.483  11.585 -0.1290  0.2384  0.3313
 5345TIP3    H137526   6.128   6.529  11.655 -0.4433 -0.0067  0.7018
 5345TIP3    H237527   6.111   6.527  11.505  0.4873  0.3009  0.5854
 5346TIP3   OH237528   3.553   5.906   3.777  0.0737 -0.3673 -0.3235
 5346TIP3    H137529   3.556   5.906   3.873  2.4101 -1.2977 -0.3244
 5346TIP3    H237530   3.509   5.988   3.754 -1.4935 -0.6259  1.5214
 5347TIP3   OH237531   1.690   0.348  12.191  0.2601 -0.2104  0.3092
 5347TIP3    H137532   1.767   0.290  12.184  0.9613  0.7113  0.1805
 5347TIP3    H237533   1.718   0.417  12.252  0.5465  1.6560 -1.7965
 5348TIP3   OH237534   2.853   3.700  11.818  0.3264 -0.0472  0.0248
 5348TIP3    H137535   2.814   3.612  11.815  1.3178 -0.5400  0.8623
 5348TIP3    H237536   2.821   3.737  11.900 -0.0059  0.3434 -0.2782
 5349TIP3   OH237537   4.144   3.052  13.774  0.1112 -0.0751 -0.2139
 5349TIP3    H137538   4.181   3.087  13.693  1.6857  1.5854  1.1195
 5349TIP3    H237539   4.170   2.960  13.775  2.1201  0.4397 -0.5362
 5350TIP3   OH237540   5.798   6.260   4.675 -0.4093  0.6778 -0.0049
 5350TIP3    H137541   5.798   6.318   4.751 -1.3075 -1.0485  1.3844
 5350TIP3    H237542   5.813   6.318   4.601  2.2414  2.2481  1.5806
 5351TIP3   OH237543   3.580   1.773   2.492 -0.0625 -0.3056 -0.7907
 5351TIP3    H137544   3.595   1.849   2.436 -0.3758 -0.2386 -0.7890
 5351TIP3    H237545   3.503   1.730   2.453 -0.5039 -0.0597 -0.2017
 5352TIP3   OH237546   6.403   4.973   5.905  0.3350 -0.2782  0.7782
 5352TIP3    H137547   6.376   4.886   5.934  1.8880 -0.8002  0.7683
 5352TIP3    H237548   6.461   5.004   5.974  0.3475  0.4602  0.4464
 5353TIP3   OH237549   1.887   2.341  16.713 -0.5134 -0.1234  0.6969
 5353TIP3    H137550   1.958   2.279  16.696  0.5371  0.4730  2.6141
 5353TIP3    H237551   1.925   2.427  16.693 -0.4578  0.2544  2.2960
 5354TIP3   OH237552   2.717   1.578  12.230 -0.3192 -0.6628  0.1027
 5354TIP3    H137553   2.719   1.486  12.255  0.9648 -0.7991 -0.4006
 5354TIP3    H237554   2.804   1.611  12.252 -1.4758  1.0839  2.5426
 5355TIP3   OH237555   5.545   5.598  13.376  0.2507 -0.0630 -0.0560
 5355TIP3    H137556   5.488   5.522  13.367  0.1475  0.0243 -0.1488
 5355TIP3    H237557   5.630   5.568  13.346  0.5399 -0.5295  1.1761
 5356TIP3   OH237558   6.388   4.853   4.708  0.2790 -0.4081 -0.4570
 5356TIP3    H137559   6.352   4.930   4.665  1.5762  0.3110 -0.2968
 5356TIP3    H237560   6.482   4.859   4.694  0.9551  0.4150  3.3199
 5357TIP3   OH237561   5.903   0.574   4.322 -0.1520  0.3170  0.0221
 5357TIP3    H137562   5.997   0.555   4.319 -0.2849 -0.2695 -1.1090
 5357TIP3    H237563   5.894   0.656   4.274 -0.1390  0.8191  0.8493
 5358TIP3   OH237564   3.918   3.508  11.283  0.8755 -0.2093 -0.1508
 5358TIP3    H137565   3.941   3.418  11.305  0.6927 -0.2060  0.0645
 5358TIP3    H237566   3.869   3.501  11.201  1.8740 -0.1855 -0.7593
 5359TIP3   OH237567   3.852   4.725  14.778 -0.3622 -0.5369 -0.2987
 5359TIP3    H137568   3.882   4.767  14.858 -1.4137 -0.1174 -0.1056
 5359TIP3    H237569   3.758   4.740  14.777 -0.2973 -0.0250 -1.9129
 5360TIP3   OH237570   1.189   1.601   5.496 -0.4019 -0.2575 -0.3969
 5360TIP3    H137571   1.256   1.661   5.463 -0.0009 -0.0599  0.7482
 5360TIP3    H237572   1.122   1.601   5.428 -0.2945  1.2962 -0.5402
 5361TIP3   OH237573   5.887   3.226   0.326  0.0202 -0.1566 -0.3679
 5361TIP3    H137574   5.808   3.253   0.374 -0.0775  2.8769 -1.9387
 5361TIP3    H237575   5.856   3.212   0.236  1.0112 -0.6184 -0.6460
 5362TIP3   OH237576   3.080   1.534  14.831  0.2616 -0.3695  0.3255
 5362TIP3    H137577   3.008   1.471  14.834  0.4579 -0.5737  1.1448
 5362TIP3    H237578   3.079   1.568  14.741 -1.6972  0.6397  0.6736
 5363TIP3   OH237579   1.307   6.080   5.174 -0.0323 -0.3972 -0.5490
 5363TIP3    H137580   1.230   6.039   5.134  0.3504 -0.0806 -1.6310
 5363TIP3    H237581   1.306   6.170   5.141  0.9478 -0.4632 -0.7777
 5364TIP3   OH237582   4.741   2.401  14.968  0.5555  0.2552 -0.6716
 5364TIP3    H137583   4.830   2.414  14.938  1.0920 -0.2589  0.6035
 5364TIP3    H237584   4.737   2.444  15.054 -0.6716  0.9912 -1.0691
 5365TIP3   OH237585   5.804   5.498   3.442 -0.5051  0.1840 -0.2495
 5365TIP3    H137586   5.865   5.432   3.475 -1.3166 -0.5249 -0.1490
 5365TIP3    H237587   5.860   5.565   3.404  0.3238 -0.7587 -0.7305
 5366TIP3   OH237588   5.658   3.454   1.443 -0.1458  0.6515 -0.5752
 5366TIP3    H137589   5.612   3.418   1.367  0.9175  0.9001 -1.3679
 5366TIP3    H237590   5.608   3.533   1.465 -1.1245 -0.0256 -0.2803
 5367TIP3   OH237591   4.115   1.014   2.168  0.3166 -0.0077  0.4126
 5367TIP3    H137592   4.048   0.948   2.187  0.0170  0.3654  0.6768
 5367TIP3    H237593   4.076   1.070   2.102  0.2540  0.3822  0.7777
 5368TIP3   OH237594   0.382   1.904   0.387 -0.5237  0.9019 -0.3961
 5368TIP3    H137595   0.296   1.867   0.370 -0.2016 -0.9058  1.5529
 5368TIP3    H237596   0.366   1.972   0.453 -0.3757 -0.0885  0.6837
 5369TIP3   OH237597   2.307   2.857  15.614  0.0847 -0.1875 -0.0854
 5369TIP3    H137598   2.266   2.771  15.611 -2.4212  0.9356 -0.9470
 5369TIP3    H237599   2.316   2.883  15.522  1.5974  0.1535  0.1307
 5370TIP3   OH237600   2.489   0.742   2.588  0.1774  0.2844  0.1277
 5370TIP3    H137601   2.424   0.796   2.633 -0.3460  1.1399 -1.5745
 5370TIP3    H237602   2.478   0.763   2.495  1.5841 -1.0030 -0.3762
 5371TIP3   OH237603   2.934   0.479   2.372 -0.5883  0.2786 -0.0800
 5371TIP3    H137604   2.979   0.505   2.452 -2.5397 -0.2146  1.2628
 5371TIP3    H237605   3.002   0.479   2.305  1.3368 -0.2649  1.7579
 5372TIP3   OH237606   4.317   0.799   0.226 -0.2060  0.3857  0.5193
 5372TIP3    H137607   4.376   0.820   0.154  0.1164  2.0316  1.2160
 5372TIP3    H237608   4.238   0.766   0.184  0.8508 -0.9864 -0.4699
 5373TIP3   OH237609   2.634   6.821  12.064  0.0505 -0.2267  0.3758
 5373TIP3    H137610   2.629   6.916  12.072 -0.6973 -0.2193 -0.1466
 5373TIP3    H237611   2.721   6.799  12.100  1.1651  0.8468 -1.5120
 5374TIP3   OH237612   0.814   1.268   1.021 -0.0535  0.0454 -0.3083
 5374TIP3    H137613   0.786   1.305   1.104  1.5525  1.8392 -0.5023
 5374TIP3    H237614   0.882   1.327   0.989 -0.2401 -0.8712 -2.6569
 5375TIP3   OH237615   3.998   6.739  17.283 -0.1163 -0.5551 -0.5939
 5375TIP3    H137616   3.944   6.815  17.305 -0.7761 -0.3441 -2.7141
 5375TIP3    H237617   3.941   6.664  17.297 -0.0330 -0.5490 -0.1911
 5376TIP3   OH237618   0.768   1.217  16.037  0.4201 -0.3445 -0.2654
 5376TIP3    H137619   0.805   1.208  15.949  0.5358  0.8996 -0.3553
 5376TIP3    H237620   0.710   1.292  16.031  0.2407 -0.4036  0.6622
 5377TIP3   OH237621   3.244   0.420   2.952  0.3995  0.2377  0.2935
 5377TIP3    H137622   3.232   0.467   3.034 -1.0960  1.3155 -0.5001
 5377TIP3    H237623   3.318   0.463   2.910  1.1581 -0.3054  1.0358
 5378TIP3   OH237624   0.787   0.343   6.005  0.1474 -0.0512  0.4653
 5378TIP3    H137625   0.878   0.346   5.974 -0.2813 -1.7834 -1.1566
 5378TIP3    H237626   0.760   0.435   6.008  1.7772  0.4659  0.4703
 5379TIP3   OH237627   5.195   5.231   4.152 -0.3743  0.1760 -0.4979
 5379TIP3    H137628   5.267   5.294   4.142 -1.5923  1.6309 -0.4959
 5379TIP3    H237629   5.176   5.229   4.245 -1.9456  1.7557 -0.7253
 5380TIP3   OH237630   2.794   3.576  15.939  0.5039 -0.3270 -0.0895
 5380TIP3    H137631   2.884   3.567  15.969  0.4308 -0.7970 -0.0114
 5380TIP3    H237632   2.759   3.487  15.939  0.5562 -0.3844 -1.7550
 5381TIP3   OH237633   5.345   0.704   5.912 -0.2903  0.2654 -0.5818
 5381TIP3    H137634   5.338   0.681   6.005  0.7923 -1.2908 -0.8389
 5381TIP3    H237635   5.406   0.778   5.910 -0.5695  0.5141 -0.0273
 5382TIP3   OH237636   1.386   6.107  16.952  0.3032  0.3727 -0.1061
 5382TIP3    H137637   1.444   6.056  17.009  0.8923 -2.0488 -2.6347
 5382TIP3    H237638   1.302   6.061  16.956 -0.3547  1.5792  0.5443
 5383TIP3   OH237639   4.390   5.373  13.871  0.4234  0.1772  0.0104
 5383TIP3    H137640   4.326   5.427  13.825  1.3942  1.1418 -0.2314
 5383TIP3    H237641   4.362   5.376  13.963  0.6833  1.4033  0.0584
 5384TIP3   OH237642   4.951   2.913  15.552  0.1774  0.1041 -0.0281
 5384TIP3    H137643   4.963   2.831  15.600 -2.0238 -0.5909 -0.5365
 5384TIP3    H237644   4.900   2.968  15.611  1.4659  1.0868  0.2242
 5385TIP3   OH237645   1.198   3.214   1.096  0.1825 -0.0745  0.0915
 5385TIP3    H137646   1.287   3.246   1.114 -0.5411  1.1610  1.7123
 5385TIP3    H237647   1.158   3.283   1.043  0.0865 -0.5084 -0.4106
 5386TIP3   OH237648   2.086   2.979   1.012 -0.4742 -0.2779  0.1054
 5386TIP3    H137649   2.076   3.074   1.013  0.0829 -0.2086 -0.6529
 5386TIP3    H237650   1.996   2.946   1.006 -0.7691  0.1592  1.6744
 5387TIP3   OH237651   4.357   0.613  13.684 -0.5624  0.0111 -0.1128
 5387TIP3    H137652   4.274   0.616  13.637  0.5881  0.9808 -2.2518
 5387TIP3    H237653   4.336   0.575  13.769 -2.5683 -3.1579 -1.8421
 5388TIP3   OH237654   3.714   3.733   2.361 -0.7012 -0.2979  0.3077
 5388TIP3    H137655   3.671   3.726   2.276  1.8397 -2.7211 -0.9540
 5388TIP3    H237656   3.698   3.648   2.403  1.3719 -0.6843  0.4380
 5389TIP3   OH237657   5.307   2.687   4.960  0.1198 -0.0407  0.7104
 5389TIP3    H137658   5.274   2.597   4.956 -0.9667  0.3022  1.4539
 5389TIP3    H237659   5.402   2.678   4.950  0.0993 -1.3222  1.4319
 5390TIP3   OH237660   4.201   5.021  16.315  0.2859  0.1570 -0.3497
 5390TIP3    H137661   4.183   5.012  16.221 -0.6892  0.7614 -0.2307
 5390TIP3    H237662   4.149   4.952  16.356 -0.4290  0.8114 -0.1423
 5391TIP3   OH237663   4.663   0.376   5.203 -0.1137  0.0183  0.7278
 5391TIP3    H137664   4.626   0.462   5.222  0.1380  0.2179  0.3144
 5391TIP3    H237665   4.680   0.338   5.289  1.5559  1.1485  0.9366
 5392TIP3   OH237666   4.574   5.260  17.275 -0.0984  0.2037  0.1078
 5392TIP3    H137667   4.515   5.289  17.206  0.9746  1.5606 -0.2885
 5392TIP3    H237668   4.530   5.287  17.356 -1.1282 -0.9556 -0.0362
 5393TIP3   OH237669   6.580   3.657  15.221 -0.0553  0.2333 -0.5130
 5393TIP3    H137670   6.540   3.646  15.308 -1.1218 -0.9646 -1.1139
 5393TIP3    H237671   6.604   3.568  15.195  1.3552  0.7328 -0.9537
 5394TIP3   OH237672   1.186   0.236  14.041  0.1588  0.3774  0.6509
 5394TIP3    H137673   1.240   0.294  14.093  1.7747 -2.1275  1.9837
 5394TIP3    H237674   1.125   0.197  14.104 -1.7183  1.4425 -0.4199
 5395TIP3   OH237675   4.039   2.113   0.458  0.1200  0.1603  0.3688
 5395TIP3    H137676   4.047   2.183   0.393  1.2071 -1.2592 -1.1004
 5395TIP3    H237677   4.116   2.058   0.444 -0.2096 -0.8235  2.1198
 5396TIP3   OH237678   4.385   0.562  12.320 -0.1756  0.3181 -0.3032
 5396TIP3    H137679   4.424   0.646  12.294 -0.7899  0.9883  0.8722
 5396TIP3    H237680   4.393   0.507  12.242  0.1472  1.5000 -1.1318
 5397TIP3   OH237681   5.873   6.743  13.673 -0.1410  0.0191  0.1486
 5397TIP3    H137682   5.908   6.661  13.707 -0.9789  0.1850  1.4788
 5397TIP3    H237683   5.832   6.785  13.749 -0.2388  1.3918 -0.6377
 5398TIP3   OH237684   2.732   1.023  11.075 -0.3357 -0.3277 -0.3499
 5398TIP3    H137685   2.817   1.064  11.060  0.2473 -0.9465  1.0957
 5398TIP3    H237686   2.725   0.956  11.006  0.4045 -0.3645 -0.3988
 5399TIP3   OH237687   0.591   0.927   4.831  0.2200  0.2199  0.4192
 5399TIP3    H137688   0.575   0.871   4.906  1.4697 -0.1252  0.4382
 5399TIP3    H237689   0.519   0.906   4.770  0.4634 -1.1500  0.5683
 5400TIP3   OH237690   3.293   6.516   2.286 -0.0730 -0.0508 -0.7218
 5400TIP3    H137691   3.250   6.464   2.219 -0.8786  0.3578 -0.5372
 5400TIP3    H237692   3.301   6.603   2.247  0.1796 -0.0133 -0.5864
 5401TIP3   OH237693   3.835   6.092  11.533  0.1484  0.2096 -0.3648
 5401TIP3    H137694   3.908   6.146  11.504  1.0953 -0.0828  1.3217
 5401TIP3    H237695   3.873   6.005  11.547 -0.5841 -0.0237  0.2677
 5402TIP3   OH237696   0.315   2.635  12.515  0.4931  0.0533 -0.1715
 5402TIP3    H137697   0.331   2.724  12.486  0.2088  0.1443 -0.0594
 5402TIP3    H237698   0.307   2.584  12.435 -0.8235  0.3950 -0.2920
 5403TIP3   OH237699   6.533   0.847   5.357  0.0031 -0.6009  0.6504
 5403TIP3    H137700   6.455   0.799   5.329 -1.0027  1.4763 -0.3788
 5403TIP3    H237701   6.570   0.881   5.275 -0.3521  1.7553  1.3655
 5404TIP3   OH237702   2.190   0.069  16.423  0.4815  0.0623 -0.6832
 5404TIP3    H137703   2.243   0.007  16.474  0.7356  0.9954  0.2489
 5404TIP3    H237704   2.244   0.089  16.346  0.7035 -0.3471 -0.6352
 5405TIP3   OH237705   3.555   4.798  11.050  0.1546  0.0115 -0.3339
 5405TIP3    H137706   3.548   4.745  10.970  0.9014  0.9028 -1.0101
 5405TIP3    H237707   3.465   4.802  11.084 -0.3841  0.5317 -1.7413
 5406TIP3   OH237708   0.854   4.622   5.227 -0.5609  0.1448  0.2521
 5406TIP3    H137709   0.816   4.544   5.267  2.5133 -1.3357  0.6196
 5406TIP3    H237710   0.895   4.669   5.300 -0.9618  1.2621 -0.2141
 5407TIP3   OH237711   4.999   4.832   5.548  0.2323 -0.1447  0.0738
 5407TIP3    H137712   4.906   4.853   5.558  0.1239  0.0425 -1.1546
 5407TIP3    H237713   5.043   4.885   5.614 -0.6043 -0.9273  1.2952
 5408TIP3   OH237714   1.500   4.453  15.886  0.0198 -0.1233  0.0453
 5408TIP3    H137715   1.410   4.464  15.856  0.3536 -0.5916 -1.2059
 5408TIP3    H237716   1.512   4.358  15.889  0.1594 -0.0775  1.2267
 5409TIP3   OH237717   3.495   4.931   4.788 -0.1368 -0.1214 -0.2766
 5409TIP3    H137718   3.483   4.842   4.820 -2.7703  0.1551 -0.2414
 5409TIP3    H237719   3.465   4.986   4.860  0.4429  0.7744 -0.6983
 5410TIP3   OH237720   0.579   2.974  16.574  0.3975  0.5045  0.3548
 5410TIP3    H137721   0.643   3.033  16.615  1.1621 -0.8102  1.1100
 5410TIP3    H237722   0.557   2.911  16.642 -0.6329  0.0759 -0.3447
 5411TIP3   OH237723   1.445   4.166  15.019  0.2222 -0.4406  0.2548
 5411TIP3    H137724   1.431   4.183  14.926  0.2995  0.2108  0.3585
 5411TIP3    H237725   1.465   4.072  15.024 -0.3011 -0.5808 -0.3186
 5412TIP3   OH237726   5.220   6.808  13.411 -0.0179  0.3938 -0.0394
 5412TIP3    H137727   5.242   6.716  13.427  0.7373  0.8049  1.5574
 5412TIP3    H237728   5.285   6.839  13.349  0.3170  0.0834  0.1544
 5413TIP3   OH237729   4.971   6.638  16.048  0.2789 -0.4065  0.0668
 5413TIP3    H137730   5.032   6.686  16.105 -0.3710 -0.6744  1.0212
 5413TIP3    H237731   4.947   6.700  15.980 -1.6522  1.1815  2.0597
 5414TIP3   OH237732   0.616   3.297   5.837  0.4771 -0.6853  0.0473
 5414TIP3    H137733   0.600   3.338   5.752  0.2394 -0.1663  0.3371
 5414TIP3    H237734   0.657   3.213   5.816  0.0521 -0.7382 -0.5926
 5415TIP3   OH237735   6.484   2.079  14.389 -0.0828  0.1747  0.1488
 5415TIP3    H137736   6.405   2.083  14.334  0.5712  1.4885 -0.7342
 5415TIP3    H237737   6.554   2.055  14.328  0.3533 -0.1959  0.7807
 5416TIP3   OH237738   6.457   2.706   1.908 -0.1423  0.4100  0.7841
 5416TIP3    H137739   6.540   2.752   1.898  0.9142 -1.5785 -0.2422
 5416TIP3    H237740   6.461   2.670   1.997 -1.5857  3.2726  2.1319
 5417TIP3   OH237741   0.023   0.028   5.340 -0.4899  0.3966 -0.1623
 5417TIP3    H137742  -0.035  -0.035   5.298  1.0169 -1.3077  0.2066
 5417TIP3    H237743   0.059  -0.019   5.415  1.3513  1.4038 -0.3749
 5418TIP3   OH237744   2.641   5.085   2.011 -0.7093  0.5492 -0.4247
 5418TIP3    H137745   2.590   5.023   1.957 -1.7925  0.6829  0.4033
 5418TIP3    H237746   2.596   5.085   2.095  0.1835  1.3412  0.0626
 5419TIP3   OH237747   6.315   3.724  16.720 -0.2572 -0.0316  0.2675
 5419TIP3    H137748   6.246   3.786  16.740 -0.3388  0.4587 -1.3902
 5419TIP3    H237749   6.362   3.712  16.803 -0.7914  1.5487  0.8229
 5420TIP3   OH237750   5.195   2.167  11.770  0.2555 -0.0360  0.4093
 5420TIP3    H137751   5.130   2.103  11.798 -0.1310  0.8659  1.6789
 5420TIP3    H237752   5.272   2.149  11.824  0.2414  0.3918  0.5757
 5421TIP3   OH237753   6.411   4.998  13.631 -0.0188 -0.0503  0.4034
 5421TIP3    H137754   6.357   4.978  13.554  0.9591 -0.1269 -0.2814
 5421TIP3    H237755   6.438   4.913  13.665  1.6737 -0.0094 -0.7304
 5422TIP3   OH237756   1.210   3.139   2.006 -0.5096 -0.1076 -0.3738
 5422TIP3    H137757   1.175   3.058   1.969 -2.0260  0.9050 -1.2664
 5422TIP3    H237758   1.134   3.198   2.011  0.4569  1.1168  0.6826
 5423TIP3   OH237759   6.695   0.984   1.824 -0.5734 -0.0411 -0.0095
 5423TIP3    H137760   6.670   0.927   1.751 -0.1015  0.7449 -0.8042
 5423TIP3    H237761   6.617   1.039   1.839 -0.9513 -0.7255  0.6148
 5424TIP3   OH237762   4.091   1.144   3.826  0.6416  0.3477 -0.1653
 5424TIP3    H137763   4.016   1.204   3.825  0.5808  0.2899 -2.5639
 5424TIP3    H237764   4.060   1.066   3.780  1.1144 -1.1408  1.8536
 5425TIP3   OH237765   2.798   2.354  15.683 -0.3699 -0.1089  0.3252
 5425TIP3    H137766   2.796   2.275  15.630 -0.0745  0.7931 -1.1062
 5425TIP3    H237767   2.733   2.412  15.642  0.8799  1.1503  0.0106
 5426TIP3   OH237768   5.889   0.454  15.340 -0.2935 -0.4727 -0.2418
 5426TIP3    H137769   5.861   0.418  15.256  0.5920 -0.5389 -0.5253
 5426TIP3    H237770   5.834   0.531  15.353  0.7008  0.5594 -1.7516
 5427TIP3   OH237771   4.586   4.759  10.558 -0.1635 -0.0710  0.2406
 5427TIP3    H137772   4.583   4.828  10.625 -1.1736  0.2071 -0.0766
 5427TIP3    H237773   4.586   4.806  10.475  0.3516 -0.4360  0.0278
 5428TIP3   OH237774   2.238   6.484  12.586 -0.3143  0.1121  0.2539
 5428TIP3    H137775   2.262   6.396  12.613 -0.5468 -0.1259 -0.2939
 5428TIP3    H237776   2.223   6.477  12.491 -0.2152  0.7629  0.1855
 5429TIP3   OH237777   0.033   2.742  14.567  0.3326 -0.4604 -0.5358
 5429TIP3    H137778  -0.021   2.749  14.489 -0.1772 -2.7699 -0.4622
 5429TIP3    H237779   0.095   2.672  14.548 -0.4047 -1.7338  1.4121
 5430TIP3   OH237780   4.110   2.741  16.956  0.0370 -0.2357 -0.1493
 5430TIP3    H137781   4.127   2.660  16.908 -1.8299 -0.6774 -0.1345
 5430TIP3    H237782   4.033   2.779  16.913 -0.5590  0.3022  1.3169
 5431TIP3   OH237783   4.449   5.218   6.686 -0.4239 -0.3422  0.6762
 5431TIP3    H137784   4.383   5.281   6.712  0.1558 -0.2135  1.9117
 5431TIP3    H237785   4.485   5.254   6.605  0.4374  1.3749  1.7442
 5432TIP3   OH237786   3.604   0.037  11.367  0.1956 -0.2201  0.6648
 5432TIP3    H137787   3.524  -0.015  11.351  0.0956 -0.2792  1.3395
 5432TIP3    H237788   3.653   0.030  11.285 -0.5616 -0.0555  0.1809
 5433TIP3   OH237789   5.762   4.501  16.165 -0.1674  0.4314  0.1011
 5433TIP3    H137790   5.703   4.516  16.090 -0.3833 -0.5355  0.0555
 5433TIP3    H237791   5.849   4.496  16.126 -0.3006 -0.2800 -0.1347
 5434TIP3   OH237792   2.299   2.618  12.846 -0.5413  0.2730  0.3185
 5434TIP3    H137793   2.240   2.671  12.900 -0.1584  2.2814 -1.1154
 5434TIP3    H237794   2.386   2.637  12.882 -0.5960 -2.4194  2.2121
 5435TIP3   OH237795   3.516   4.753  17.073  0.6662 -0.1748 -0.1055
 5435TIP3    H137796   3.562   4.672  17.097  1.6877 -0.4432 -2.5489
 5435TIP3    H237797   3.505   4.745  16.978 -0.4602  1.9487 -0.1903
 5436TIP3   OH237798   4.215   2.343  17.082  0.0368 -0.2168 -0.3866
 5436TIP3    H137799   4.257   2.363  16.998  2.3134 -1.8131  0.2766
 5436TIP3    H237800   4.264   2.395  17.146 -0.1922 -0.7373  0.2167
 5437TIP3   OH237801   3.976   3.117  10.872  0.0356  0.6307  0.1451
 5437TIP3    H137802   3.925   3.043  10.905  1.1244 -0.7297 -1.1195
 5437TIP3    H237803   3.910   3.183  10.851 -1.2671 -1.0790 -1.4562
 5438TIP3   OH237804   0.758   2.321  12.126  0.5639 -0.1455 -0.4390
 5438TIP3    H137805   0.769   2.275  12.043 -3.9681 -1.0812 -0.7801
 5438TIP3    H237806   0.755   2.414  12.101 -0.1220 -0.3760 -1.2697
 5439TIP3   OH237807   6.545   1.506   3.270 -0.4931 -0.0534 -0.2684
 5439TIP3    H137808   6.600   1.448   3.218 -0.4579 -0.1312 -0.1431
 5439TIP3    H237809   6.541   1.465   3.357 -3.9717 -2.2494 -1.2590
 5440TIP3   OH237810   3.199   5.633   5.533 -0.3468  0.0958  0.2559
 5440TIP3    H137811   3.106   5.612   5.543 -0.2518  0.1204  1.2892
 5440TIP3    H237812   3.224   5.590   5.451 -0.9192 -1.2037  0.7194
 5441TIP3   OH237813   1.045   3.864   3.376  0.2284 -0.3513  0.1804
 5441TIP3    H137814   1.032   3.828   3.288 -1.5302  0.4998  0.0370
 5441TIP3    H237815   1.135   3.896   3.377  0.2621 -0.3549 -1.3245
 5442TIP3   OH237816   0.054   2.273  14.357  0.0199 -0.4592  0.5833
 5442TIP3    H137817   0.013   2.190  14.333  0.8050 -1.0249  1.1434
 5442TIP3    H237818   0.125   2.284  14.294 -0.5786  0.2031  0.0072
 5443TIP3   OH237819   2.665   1.870  14.757 -0.3395 -0.0782 -0.0568
 5443TIP3    H137820   2.645   1.861  14.850  1.4551  0.7564  0.4452
 5443TIP3    H237821   2.635   1.788  14.718  0.2598 -1.0896  1.5155
 5444TIP3   OH237822   6.133   2.401  15.991 -0.0657 -0.3920  0.4966
 5444TIP3    H137823   6.039   2.389  15.996  0.0766 -2.3476 -0.6368
 5444TIP3    H237824   6.144   2.494  15.969 -1.7754 -0.3814 -0.4595
 5445TIP3   OH237825   3.152   6.611   6.850 -0.3282 -0.0129  0.3943
 5445TIP3    H137826   3.238   6.582   6.880 -0.3444 -0.6251 -0.1193
 5445TIP3    H237827   3.167   6.641   6.760 -1.0406 -2.3352 -0.5821
 5446TIP3   OH237828   5.844   6.398   2.611 -0.3563  0.4822 -0.2536
 5446TIP3    H137829   5.870   6.465   2.548  0.4866 -0.1227 -0.5713
 5446TIP3    H237830   5.812   6.326   2.557 -1.5825  0.7494  0.0969
 5447TIP3   OH237831   1.549   5.535   4.574  0.1254 -0.1304 -0.2012
 5447TIP3    H137832   1.554   5.599   4.646 -0.2895 -0.6048  0.2523
 5447TIP3    H237833   1.516   5.455   4.615 -0.6177 -0.2565 -1.0276
 5448TIP3   OH237834   4.334   0.104  12.651  0.2002  0.1662 -0.7193
 5448TIP3    H137835   4.327   0.199  12.635  0.2433  0.3777  0.4182
 5448TIP3    H237836   4.292   0.092  12.736 -0.4497 -0.9578 -1.1876
 5449TIP3   OH237837   3.217   2.876  10.723 -0.1977 -0.0433 -0.5481
 5449TIP3    H137838   3.300   2.832  10.742 -1.1120 -0.9731  1.6286
 5449TIP3    H237839   3.241   2.968  10.714  0.8440  0.2136  3.0355
 5450TIP3   OH237840   1.924   6.180  15.914  0.3336  0.3027  0.0673
 5450TIP3    H137841   1.969   6.255  15.875 -0.4105  0.7326  0.0353
 5450TIP3    H237842   1.926   6.197  16.008  0.0123  0.4422  0.0478
 5451TIP3   OH237843   6.480   3.495   3.253  0.3050 -0.5236 -0.0734
 5451TIP3    H137844   6.493   3.458   3.340  1.0058 -2.9705 -1.1320
 5451TIP3    H237845   6.479   3.419   3.194 -0.4143  1.0109 -2.1862
 5452TIP3   OH237846   3.318   2.534   0.929 -0.5175  0.0993 -0.0439
 5452TIP3    H137847   3.411   2.551   0.911 -0.3571  1.0954  1.5130
 5452TIP3    H237848   3.290   2.610   0.979 -1.9815 -0.5707  0.1807
 5453TIP3   OH237849   1.750   2.447   6.236 -0.0219  0.0725  0.3422
 5453TIP3    H137850   1.738   2.526   6.289 -1.2601  0.3289 -0.2864
 5453TIP3    H237851   1.732   2.475   6.146  1.9569 -0.3816 -0.2365
 5454TIP3   OH237852   4.560   3.692  15.296  0.5056 -0.0584  0.3276
 5454TIP3    H137853   4.596   3.632  15.362 -0.2496  0.3360  1.1174
 5454TIP3    H237854   4.629   3.700  15.231  1.2661 -0.4757  1.0617
 5455TIP3   OH237855   1.381   5.757   3.030  0.1476  0.0003  0.5361
 5455TIP3    H137856   1.475   5.742   3.015  0.2159  0.9085 -0.0738
 5455TIP3    H237857   1.378   5.813   3.107  0.1690  0.7139  0.0292
 5456TIP3   OH237858   0.579   1.354  13.299  0.5827  0.2120 -0.3612
 5456TIP3    H137859   0.551   1.407  13.374 -0.6422  0.0674 -0.6987
 5456TIP3    H237860   0.620   1.417  13.240  0.5037  0.5311 -0.0845
 5457TIP3   OH237861   3.918   3.478   4.469  0.2362  0.3215  0.0605
 5457TIP3    H137862   3.916   3.463   4.374 -1.8514  0.0253  0.1241
 5457TIP3    H237863   3.930   3.390   4.507 -1.1422  0.1492  0.1205
 5458TIP3   OH237864   1.466   2.875   4.101 -0.1935  0.9899 -0.6001
 5458TIP3    H137865   1.487   2.911   4.187 -0.3207 -0.4586  0.0713
 5458TIP3    H237866   1.470   2.950   4.042  3.9524  1.4216 -0.0954
 5459TIP3   OH237867   1.326   4.248   5.176 -0.4544 -0.4124 -0.7196
 5459TIP3    H137868   1.405   4.246   5.122  0.6269 -0.1037  0.8162
 5459TIP3    H237869   1.295   4.338   5.170  1.2570  0.3980  1.3351
 5460TIP3   OH237870   6.392   3.980   5.073  0.3042  0.7069 -0.2919
 5460TIP3    H137871   6.438   4.059   5.046 -1.2711  2.2420  1.2731
 5460TIP3    H237872   6.443   3.945   5.146 -0.0437  1.4238  0.3059
 5461TIP3   OH237873   5.140   1.791   3.606  0.0928 -0.2274  0.5593
 5461TIP3    H137874   5.069   1.728   3.591 -0.0673 -1.0678  4.0148
 5461TIP3    H237875   5.096   1.875   3.620 -0.0120 -0.2167  0.1713
 5462TIP3   OH237876   4.392   4.324   2.129  0.2948  0.0984  0.3322
 5462TIP3    H137877   4.414   4.402   2.077  1.9211 -0.6929 -0.2311
 5462TIP3    H237878   4.465   4.316   2.191 -1.1486  0.4762  2.1668
 5463TIP3   OH237879   4.298   3.165   0.006 -0.6851  0.3447  0.3238
 5463TIP3    H137880   4.339   3.156  -0.080  0.6069  1.4343  0.7985
 5463TIP3    H237881   4.237   3.091   0.012  0.3045 -0.5929 -0.9119
 5464TIP3   OH237882   3.506   4.532  12.939 -0.8332  0.9063 -0.5587
 5464TIP3    H137883   3.414   4.503  12.944 -1.1630  2.0179  0.3055
 5464TIP3    H237884   3.557   4.453  12.958 -1.7209  0.9291  2.4837
 5465TIP3   OH237885   5.865   2.924   1.282  0.3789 -0.2593  0.6551
 5465TIP3    H137886   5.890   2.990   1.348 -1.8695 -0.2214  1.5603
 5465TIP3    H237887   5.826   2.975   1.211 -0.3614 -0.5108  0.8687
 5466TIP3   OH237888   6.299   2.708  14.143 -0.4458  0.7340 -0.4857
 5466TIP3    H137889   6.294   2.615  14.165  0.2501  1.3601  2.8338
 5466TIP3    H237890   6.337   2.710  14.056 -1.1297 -2.0878 -0.9450
 5467TIP3   OH237891   2.959   3.821  17.140 -0.0865  0.1428  0.2413
 5467TIP3    H137892   2.990   3.815  17.050  0.9465 -0.7391  0.6324
 5467TIP3    H237893   3.005   3.897  17.176  0.3762 -0.1807  0.3433
 5468TIP3   OH237894   3.041   0.190   4.796  0.4666 -0.4708 -0.2757
 5468TIP3    H137895   3.118   0.237   4.765  0.2548 -0.7546 -1.2424
 5468TIP3    H237896   3.072   0.102   4.815  0.3380 -0.6486 -0.8794
 5469TIP3   OH237897   1.160   4.972   1.939  0.2588 -0.2430 -0.1423
 5469TIP3    H137898   1.245   4.949   1.976 -0.6345 -1.7465  1.0946
 5469TIP3    H237899   1.135   4.896   1.886 -0.2111  0.2807 -0.6919
 5470TIP3   OH237900   5.622   5.302   0.236  0.1902  0.1528  0.0817
 5470TIP3    H137901   5.601   5.211   0.258 -0.0486 -0.1549 -1.3257
 5470TIP3    H237902   5.683   5.330   0.305  0.4899 -1.1559  0.3760
 5471TIP3   OH237903   4.999   1.620  15.239 -0.0207 -0.4529  0.1321
 5471TIP3    H137904   5.047   1.670  15.305 -1.3083  1.2813 -0.1837
 5471TIP3    H237905   5.057   1.620  15.163  0.5005 -0.4984  0.5171
 5472TIP3   OH237906   1.093   1.424   1.435  0.0646  0.4700  0.1341
 5472TIP3    H137907   1.136   1.459   1.513 -0.2632  1.1598  0.0169
 5472TIP3    H237908   1.015   1.381   1.468 -0.5647  1.5560  0.1322
 5473TIP3   OH237909   6.685   2.845  15.490 -0.3484 -0.7319  0.3774
 5473TIP3    H137910   6.653   2.909  15.553 -0.1701  1.1633 -1.3141
 5473TIP3    H237911   6.610   2.829  15.432 -0.3842 -2.0772  0.7779
 5474TIP3   OH237912   1.889   3.250   2.895  0.1601  0.3050 -0.1020
 5474TIP3    H137913   1.967   3.302   2.877  0.7430 -0.6238 -0.3731
 5474TIP3    H237914   1.910   3.163   2.860 -1.8040  0.5542 -2.1860
 5475TIP3   OH237915   2.460   0.970   5.019  0.2322 -0.7837 -0.0754
 5475TIP3    H137916   2.532   1.029   5.042  0.2837 -1.7340  2.5878
 5475TIP3    H237917   2.502   0.886   5.002 -0.1677 -1.2403  1.0835
 5476TIP3   OH237918   5.100   0.756  14.490  0.0466 -0.3162 -0.3084
 5476TIP3    H137919   5.182   0.806  14.486  0.5555 -1.1949 -1.3999
 5476TIP3    H237920   5.050   0.799  14.559  2.1948 -0.9202  1.7701
 5477TIP3   OH237921   3.520   1.121  12.736  0.1427 -0.3231  0.0542
 5477TIP3    H137922   3.498   1.033  12.765  0.0643 -0.1983  0.3812
 5477TIP3    H237923   3.593   1.148  12.792  0.9548 -0.6230 -0.8283
 5478TIP3   OH237924   3.353   5.533  12.488 -0.3510  0.1036  0.4942
 5478TIP3    H137925   3.444   5.511  12.465 -0.0707 -0.8623  2.2932
 5478TIP3    H237926   3.361   5.612  12.543 -0.6476  0.2683  0.3030
 5479TIP3   OH237927   1.538   5.349   1.238 -0.2669 -0.2026 -0.0825
 5479TIP3    H137928   1.516   5.320   1.326 -1.8514  0.3907 -0.2510
 5479TIP3    H237929   1.534   5.445   1.242 -1.1379 -0.1785 -0.9534
 5480TIP3   OH237930   1.474   6.170  11.972 -0.0432 -0.0318  0.2648
 5480TIP3    H137931   1.461   6.139  11.883 -0.0387 -0.5836  0.4511
 5480TIP3    H237932   1.389   6.204  11.998 -0.9302 -2.6013  1.0840
 5481TIP3   OH237933   0.684   4.971  11.146  0.0306 -0.5482  0.5521
 5481TIP3    H137934   0.743   4.937  11.079 -1.3658 -2.3229  0.1232
 5481TIP3    H237935   0.600   4.982  11.100 -0.6301 -0.6059  1.7017
 5482TIP3   OH237936   3.659   0.287  16.967  0.5603 -0.2087  0.4430
 5482TIP3    H137937   3.733   0.335  16.929  0.7177 -1.4714 -0.9519
 5482TIP3    H237938   3.681   0.275  17.059  2.2512 -0.8371 -0.0194
 5483TIP3   OH237939   0.653   3.404   3.375 -0.8577 -0.1472 -0.7814
 5483TIP3    H137940   0.573   3.358   3.400 -1.4811  1.6989  0.7961
 5483TIP3    H237941   0.718   3.374   3.438 -0.2140 -1.6743 -2.0848
 5484TIP3   OH237942   3.450   0.626  16.530  0.0870 -0.2548  0.8714
 5484TIP3    H137943   3.486   0.673  16.455  0.7821 -0.0457  1.3273
 5484TIP3    H237944   3.365   0.666  16.545  0.5988  0.7687  1.1537
 5485TIP3   OH237945   5.575   1.555   1.607  0.0445  0.1701 -0.3892
 5485TIP3    H137946   5.531   1.527   1.687 -0.1985  0.2915 -0.4802
 5485TIP3    H237947   5.646   1.491   1.595 -1.0125 -0.9246 -1.0603
 5486TIP3   OH237948   4.586   4.600   5.594 -0.7187 -0.0240  0.5142
 5486TIP3    H137949   4.652   4.662   5.563 -1.7657  0.7591 -0.2128
 5486TIP3    H237950   4.618   4.515   5.565 -0.2965  0.4049 -0.3113
 5487TIP3   OH237951   2.745   4.406  16.716 -0.0704 -0.0054  0.5189
 5487TIP3    H137952   2.723   4.315  16.734  3.2220 -1.1615 -0.5509
 5487TIP3    H237953   2.779   4.440  16.799  0.0497 -0.2174  0.5568
 5488TIP3   OH237954   0.729   1.944   0.877  0.0170  0.0023  0.1198
 5488TIP3    H137955   0.773   1.886   0.814 -0.8664  0.6355 -1.1230
 5488TIP3    H237956   0.792   1.953   0.949  0.9049 -1.0494 -0.4864
 5489TIP3   OH237957   1.032   5.795   1.540  0.6635 -0.4692 -0.2945
 5489TIP3    H137958   0.945   5.782   1.504 -0.0987 -0.9888  1.5866
 5489TIP3    H237959   1.020   5.789   1.635  2.2950  2.1272  0.1892
 5490TIP3   OH237960   3.185   3.581   1.331  0.2155  0.6181 -0.1894
 5490TIP3    H137961   3.177   3.580   1.427  1.5247 -0.5094 -0.0699
 5490TIP3    H237962   3.160   3.670   1.307  0.1803  1.0254  1.2376
 5491TIP3   OH237963   1.874   3.608  16.213  0.0028 -0.1099  0.4983
 5491TIP3    H137964   1.799   3.667  16.205  0.0294 -0.2278 -1.0107
 5491TIP3    H237965   1.842   3.525  16.177  0.2693 -0.7351  1.6765
 5492TIP3   OH237966   2.715   3.111  16.280 -0.1875  0.6142 -0.5737
 5492TIP3    H137967   2.727   3.017  16.267  0.4148  0.4942  0.6931
 5492TIP3    H237968   2.783   3.152  16.225 -0.5206  0.3235 -1.2108
 5493TIP3   OH237969   0.818   3.999  11.671 -0.0462 -0.3938  0.1172
 5493TIP3    H137970   0.838   3.908  11.650 -0.4026 -0.5276  0.3607
 5493TIP3    H237971   0.892   4.048  11.635 -0.6948 -0.6073 -1.5756
 5494TIP3   OH237972   1.055   1.202  13.295  0.0222  0.2931  0.2738
 5494TIP3    H137973   1.028   1.218  13.385  0.6286 -1.4436  0.8061
 5494TIP3    H237974   1.025   1.113  13.276  0.4135  0.4205 -1.0302
 5495TIP3   OH237975   4.945   1.314   1.692 -0.1301  0.0387 -0.2673
 5495TIP3    H137976   5.028   1.276   1.722  0.7865  3.8630  2.9652
 5495TIP3    H237977   4.971   1.391   1.641 -1.8376 -0.7205 -2.4409
 5496TIP3   OH237978   6.222   4.691   2.699 -0.0074  0.2070 -0.2967
 5496TIP3    H137979   6.222   4.748   2.622 -2.3066  1.6475  0.6497
 5496TIP3    H237980   6.272   4.738   2.765 -0.7768  0.5332  0.0684
 5497TIP3   OH237981   1.729   2.617  12.379 -0.3286  0.0295 -1.2337
 5497TIP3    H137982   1.727   2.631  12.473 -0.3078  1.2165 -1.3868
 5497TIP3    H237983   1.655   2.667  12.346  0.7488  1.1896 -2.0050
 5498TIP3   OH237984   1.738   4.703  16.975  0.1923  0.1917 -0.2109
 5498TIP3    H137985   1.796   4.628  16.967 -2.1367 -1.8820  0.7914
 5498TIP3    H237986   1.795   4.777  16.995  2.4020 -1.8214  1.3976
 5499TIP3   OH237987   3.405   3.717  14.641  0.3279  0.1172  0.4510
 5499TIP3    H137988   3.440   3.806  14.636  0.3742  0.1325  0.9742
 5499TIP3    H237989   3.322   3.721  14.593  0.2086  0.5086  0.6805
 5500TIP3   OH237990   4.596   6.441  11.321 -0.7210  0.1759  0.6007
 5500TIP3    H137991   4.647   6.408  11.395  0.2945 -0.8411 -0.5242
 5500TIP3    H237992   4.531   6.373  11.305 -0.8205  0.3132  0.4243
 5501TIP3   OH237993   5.959   1.985   5.840  0.4110 -0.5493  0.5097
 5501TIP3    H137994   5.988   1.897   5.815  0.0097 -0.1371 -1.6713
 5501TIP3    H237995   5.872   1.972   5.878  0.2652 -1.0967  0.0165
 5502TIP3   OH237996   2.994   5.309  14.323 -0.0677  0.2222 -0.1352
 5502TIP3    H137997   2.974   5.364  14.399  0.1678 -1.0951  0.9411
 5502TIP3    H237998   2.913   5.259  14.308  0.4405 -0.8276  0.4470
 5503TIP3   OH237999   5.248   3.380   5.352 -0.2263  0.2835  0.5147
 5503TIP3    H138000   5.227   3.345   5.439 -0.1648 -0.2296  0.3271
 5503TIP3    H238001   5.165   3.382   5.306 -0.1653 -0.0140  0.3873
 5504TIP3   OH238002   0.907   0.572   3.678  0.0074  0.1412 -0.0841
 5504TIP3    H138003   0.901   0.575   3.582  0.4279  0.3361 -0.1064
 5504TIP3    H238004   0.820   0.543   3.706 -0.0201 -0.2374 -0.5382
 5505TIP3   OH238005   1.884   4.111   5.374 -0.1117 -0.0709  0.0947
 5505TIP3    H138006   1.907   4.161   5.296  1.1740 -0.7797 -0.0248
 5505TIP3    H238007   1.857   4.176   5.438 -1.6969  0.4889 -1.0886
 5506TIP3   OH238008   1.991   1.477   5.231  0.3218  0.5057  0.4505
 5506TIP3    H138009   2.006   1.425   5.311 -0.3377 -0.7786 -0.2279
 5506TIP3    H238010   1.980   1.412   5.162 -2.9051  1.4203 -0.0668
 5507TIP3   OH238011   2.275   5.438   5.661  0.1960  0.0311  0.2848
 5507TIP3    H138012   2.232   5.514   5.622  0.1360 -0.6839 -1.1271
 5507TIP3    H238013   2.228   5.423   5.744 -1.3260  0.1612 -0.5080
 5508TIP3   OH238014   3.801   0.950  11.586  0.3610  0.1085  0.2347
 5508TIP3    H138015   3.808   0.874  11.528 -1.5902  0.8918 -1.1596
 5508TIP3    H238016   3.784   0.913  11.672  2.3800 -1.0737  0.1741
 5509TIP3   OH238017   2.655   1.000  12.553  0.2297 -0.0457  0.2309
 5509TIP3    H138018   2.576   0.949  12.566 -0.1115  0.7048  1.2766
 5509TIP3    H238019   2.721   0.956  12.607  0.5507 -0.6890 -0.6645
 5510TIP3   OH238020   1.587   2.683   1.351  0.8006 -0.3736  0.2492
 5510TIP3    H138021   1.548   2.678   1.264  1.2117  0.1591  0.0320
 5510TIP3    H238022   1.564   2.600   1.392  1.9511 -1.3093 -0.9320
 5511TIP3   OH238023   6.165   1.072  11.345 -0.0121 -0.3376 -0.1247
 5511TIP3    H138024   6.173   1.008  11.417  2.2448 -1.9912 -1.6866
 5511TIP3    H238025   6.167   1.157  11.389 -0.6759 -1.2901  1.8876
 5512TIP3   OH238026   4.795   5.410   2.139 -0.1224  0.4171 -0.4607
 5512TIP3    H138027   4.882   5.435   2.108 -0.5361  0.7614 -1.3636
 5512TIP3    H238028   4.787   5.454   2.224  0.1322  1.3661 -0.9073
 5513TIP3   OH238029   4.078   1.878   4.673  0.4725 -0.1764  0.4417
 5513TIP3    H138030   4.040   1.835   4.750  0.6197  0.6514  0.9850
 5513TIP3    H238031   4.170   1.892   4.696  0.1165  1.6809  0.8449
 5514TIP3   OH238032   6.819   5.966   5.756 -0.2938  0.2148 -0.0386
 5514TIP3    H138033   6.893   5.938   5.811  0.7535  0.7923 -1.1106
 5514TIP3    H238034   6.772   5.885   5.737 -0.1654 -0.1143  0.9597
 5515TIP3   OH238035   6.043   6.731  14.378 -0.7571 -0.3275  0.7083
 5515TIP3    H138036   6.058   6.754  14.470 -2.3118  2.7022  0.3090
 5515TIP3    H238037   5.973   6.666  14.380 -1.0809  0.0442  1.6253
 5516TIP3   OH238038   0.026   4.175  13.979  0.4032 -0.6654  0.1336
 5516TIP3    H138039  -0.035   4.111  13.943 -0.4387  0.9291 -1.3768
 5516TIP3    H238040   0.112   4.146  13.946  0.3245 -2.0678  1.0554
 5517TIP3   OH238041   4.658   5.846   6.014 -0.5495 -0.6094 -0.3285
 5517TIP3    H138042   4.707   5.818   6.092 -2.1237  0.9779  1.3423
 5517TIP3    H238043   4.725   5.863   5.949  1.5285  3.0432  2.3377
 5518TIP3   OH238044   3.509   0.251  11.190 -0.2191  0.2004  0.1727
 5518TIP3    H138045   3.566   0.175  11.196 -0.5698 -0.2505 -1.5482
 5518TIP3    H238046   3.566   0.320  11.155 -0.9514 -0.6740 -3.1051
 5519TIP3   OH238047   2.097   4.803  13.755  0.3984 -0.1443 -0.2105
 5519TIP3    H138048   2.155   4.761  13.691 -1.6162 -1.3939 -1.3582
 5519TIP3    H238049   2.009   4.787  13.720 -0.6826  0.9630  1.8478
 5520TIP3   OH238050   6.626   3.853   5.809 -0.2394  0.0793 -0.7944
 5520TIP3    H138051   6.638   3.840   5.903 -1.3692 -0.1413 -0.6732
 5520TIP3    H238052   6.698   3.804   5.769  1.0688  1.2868 -0.0228
 5521TIP3   OH238053   2.771   2.483   5.536 -0.8655  0.1394 -0.3475
 5521TIP3    H138054   2.722   2.408   5.569  0.0271 -0.1168  0.4472
 5521TIP3    H238055   2.754   2.483   5.442 -2.9223  0.4824 -0.0124
 5522TIP3   OH238056   1.020   2.667  16.312 -0.2822 -0.2470  0.4903
 5522TIP3    H138057   0.934   2.708  16.298  0.0650  0.0650 -0.8534
 5522TIP3    H238058   1.033   2.671  16.407 -0.4347  2.4454  0.4824
 5523TIP3   OH238059   3.670   3.670   4.326  0.2568  0.7370 -0.6753
 5523TIP3    H138060   3.673   3.575   4.335 -1.8416  0.7369  0.5504
 5523TIP3    H238061   3.757   3.693   4.292  1.1970 -1.5015 -0.0054
 5524TIP3   OH238062   5.644   0.426   3.874  0.3047 -0.2775  0.0584
 5524TIP3    H138063   5.678   0.463   3.792  0.5798  0.5249  0.5238
 5524TIP3    H238064   5.608   0.341   3.848  1.1584 -0.4165 -0.7428
 5525TIP3   OH238065   5.351   2.830   6.690  0.1457 -0.2556  0.3474
 5525TIP3    H138066   5.420   2.811   6.753  1.1037 -1.2111 -0.9217
 5525TIP3    H238067   5.388   2.897   6.633  0.3195 -1.2371 -0.7381
 5526TIP3   OH238068   3.047   4.022  11.973  0.1668  0.0345 -0.4947
 5526TIP3    H138069   2.961   4.055  11.999 -0.1614  1.2972 -2.8612
 5526TIP3    H238070   3.028   3.942  11.924  0.3563  0.0851 -0.6560
 5527TIP3   OH238071   4.838   1.939  12.169  0.0832 -0.2869 -0.3615
 5527TIP3    H138072   4.744   1.954  12.182  0.1607  1.8974 -1.7780
 5527TIP3    H238073   4.849   1.845  12.181 -2.3911 -0.7012 -0.7602
 5528TIP3   OH238074   5.866   4.896   5.612  0.5173 -0.4648  0.5742
 5528TIP3    H138075   5.801   4.832   5.639 -0.2555  0.6296  1.4127
 5528TIP3    H238076   5.904   4.928   5.693  0.7472  0.2684  0.1920
 5529TIP3   OH238077   1.679   6.196   0.608  0.4295 -0.4366 -0.6629
 5529TIP3    H138078   1.627   6.121   0.580 -1.1907  0.3453  0.1141
 5529TIP3    H238079   1.635   6.271   0.569  0.7970  0.2693  0.2480
 5530TIP3   OH238080   3.118   6.523  13.479  0.6769 -0.0359 -0.4170
 5530TIP3    H138081   3.113   6.567  13.564  1.1724  1.4785 -1.1432
 5530TIP3    H238082   3.027   6.514  13.451  0.5179 -0.4358  0.2198
 5531TIP3   OH238083   0.034   4.619  15.291  0.8265 -0.2822  0.0681
 5531TIP3    H138084   0.119   4.582  15.266  0.7994  0.8410 -1.9532
 5531TIP3    H238085   0.032   4.704  15.246 -1.9692 -0.9033 -1.1731
 5532TIP3   OH238086   3.703   5.350   3.731  0.4597  0.4366  0.4819
 5532TIP3    H138087   3.720   5.435   3.692 -0.3652 -0.3881 -1.8679
 5532TIP3    H238088   3.660   5.369   3.814  0.2495  2.3197 -0.0185
 5533TIP3   OH238089   1.698   5.862   5.821 -0.6980 -0.0365 -0.1384
 5533TIP3    H138090   1.701   5.874   5.726  0.5593  2.0051  0.1076
 5533TIP3    H238091   1.774   5.807   5.841 -0.6237  0.0313 -0.2388
 5534TIP3   OH238092   1.799   6.141  16.971  0.8166  0.4889 -0.1717
 5534TIP3    H138093   1.749   6.204  16.920  0.7272  0.2142 -0.4271
 5534TIP3    H238094   1.888   6.146  16.936  0.4544 -0.7471 -1.3885
 5535TIP3   OH238095   6.099   6.005   0.516  0.1958  0.5956 -0.5231
 5535TIP3    H138096   6.042   5.942   0.472  0.7019 -0.1298 -0.1475
 5535TIP3    H238097   6.140   5.956   0.587  0.0679  1.5244  0.2242
 5536TIP3   OH238098   2.848   4.122  12.126 -0.1100 -0.2602  0.2273
 5536TIP3    H138099   2.802   4.201  12.156  0.1254  0.0918 -0.3173
 5536TIP3    H238100   2.931   4.124  12.175  1.0624  1.2806 -1.6492
 5537TIP3   OH238101   6.641   5.028   4.904 -0.0194  0.2684  0.6669
 5537TIP3    H138102   6.671   4.959   4.846 -0.3056 -0.2726  1.1561
 5537TIP3    H238103   6.632   4.986   4.990  2.1054  1.4368  1.5468
 5538TIP3   OH238104   0.085   2.810   2.961 -0.0083 -0.2868  0.3261
 5538TIP3    H138105   0.130   2.893   2.947 -1.5721  1.1513  3.0829
 5538TIP3    H238106   0.153   2.751   2.993  0.6278  0.7499  0.9425
 5539TIP3   OH238107   6.642   1.927  16.600 -0.0275 -0.1929  0.8647
 5539TIP3    H138108   6.676   1.841  16.625  1.5416  0.0005 -0.4400
 5539TIP3    H238109   6.718   1.985  16.603 -0.7719  0.8448  0.3658
 5540TIP3   OH238110   0.272   0.276   4.160 -0.7345 -0.0817  0.2819
 5540TIP3    H138111   0.248   0.368   4.168 -0.5091  0.2792 -2.2951
 5540TIP3    H238112   0.360   0.270   4.196 -0.0032  1.1552 -1.1770
 5541TIP3   OH238113   1.152   0.443   3.573  0.1375  0.0050 -0.1320
 5541TIP3    H138114   1.164   0.443   3.668 -0.0300 -0.6770 -0.1069
 5541TIP3    H238115   1.063   0.478   3.561 -0.3401 -1.1001  0.0433
 5542TIP3   OH238116   0.735   1.535  15.251  0.4376  0.3102 -0.2028
 5542TIP3    H138117   0.709   1.487  15.173  2.8526  0.1658 -0.9807
 5542TIP3    H238118   0.759   1.622  15.220  1.5878  0.2026  0.3160
 5543TIP3   OH238119   0.879   4.233   5.160 -0.1344  0.0517  0.0490
 5543TIP3    H138120   0.875   4.281   5.242  0.0811 -2.1831  1.4381
 5543TIP3    H238121   0.909   4.145   5.184  0.8562 -0.4292 -2.5355
 5544TIP3   OH238122   6.090   3.655  15.502 -0.2066 -0.4112  0.7388
 5544TIP3    H138123   6.014   3.659  15.560 -0.0473  0.7832  0.8933
 5544TIP3    H238124   6.135   3.738  15.515  0.1413 -0.3396 -0.6824
 5545TIP3   OH238125   0.187   0.578   1.806 -0.6392 -0.3539  0.3785
 5545TIP3    H138126   0.278   0.557   1.788 -1.1667 -1.9162 -0.6976
 5545TIP3    H238127   0.190   0.664   1.848  1.2130  0.2970 -0.9515
 5546TIP3   OH238128   3.466   5.056  13.688 -0.7781 -0.3711 -0.6390
 5546TIP3    H138129   3.554   5.078  13.720  0.2466 -1.3178 -2.5713
 5546TIP3    H238130   3.429   5.000  13.756  0.2886 -0.3124  0.0174
 5547TIP3   OH238131   3.267   2.951   3.220 -0.3607 -0.4107  0.3910
 5547TIP3    H138132   3.248   2.920   3.131  0.8536  2.3427 -0.9509
 5547TIP3    H238133   3.208   3.025   3.233  1.9719  1.6192  0.2699
 5548TIP3   OH238134   2.421   2.089  14.253  0.0864  0.0379 -0.2393
 5548TIP3    H138135   2.471   2.018  14.213 -0.1982  0.1684 -0.8499
 5548TIP3    H238136   2.468   2.111  14.333  2.7125  2.1139 -2.1587
 5549TIP3   OH238137   0.553   5.711  10.381 -0.5515  0.0051  0.4671
 5549TIP3    H138138   0.505   5.754  10.310 -0.1266  0.2121  0.3009
 5549TIP3    H238139   0.485   5.669  10.434 -0.8236 -0.6585 -0.3877
 5550TIP3   OH238140   6.069   4.426  11.353 -0.5903  0.0618  0.2353
 5550TIP3    H138141   6.078   4.482  11.429  0.7158  0.1966  0.0035
 5550TIP3    H238142   5.975   4.411  11.345 -1.0165  2.5308  0.0603
 5551TIP3   OH238143   2.979   2.991   1.846  0.2629  0.2128  0.6772
 5551TIP3    H138144   2.996   3.085   1.839 -0.8603  0.2967 -2.4116
 5551TIP3    H238145   2.884   2.983   1.840  0.3187 -1.1468  1.1572
 5552TIP3   OH238146   0.299   4.673  14.646  0.2109 -0.0441  0.4406
 5552TIP3    H138147   0.222   4.702  14.597 -0.4024 -0.5422  1.0967
 5552TIP3    H238148   0.339   4.607  14.590 -0.2051 -0.2526  0.3909
 5553TIP3   OH238149   3.469   3.823  16.104  0.2289  0.2267 -0.5759
 5553TIP3    H138150   3.471   3.840  16.010  0.5082  0.4834 -0.5265
 5553TIP3    H238151   3.400   3.880  16.138  0.7799  0.8520 -0.4890
 5554TIP3   OH238152   3.471   6.629  16.405  0.5960  0.2616  0.1834
 5554TIP3    H138153   3.480   6.551  16.459  0.1866  0.3925  0.4484
 5554TIP3    H238154   3.503   6.603  16.319  2.1894  0.3359  0.7171
 5555TIP3   OH238155   5.652   1.416   0.122 -0.1815 -0.0971  0.2985
 5555TIP3    H138156   5.695   1.435   0.039 -0.9543 -0.7935 -0.2769
 5555TIP3    H238157   5.617   1.328   0.111 -0.9639  0.1013  1.0828
 5556TIP3   OH238158   5.969   1.223  12.233 -0.2632 -0.2239 -0.2024
 5556TIP3    H138159   5.992   1.153  12.294 -0.6053 -1.9671 -1.9506
 5556TIP3    H238160   5.881   1.202  12.203  0.2571 -0.0459 -2.0295
 5557TIP3   OH238161   1.640   5.712  16.214  0.2806  0.7554  0.7878
 5557TIP3    H138162   1.661   5.637  16.269 -1.5630  0.1370  0.7080
 5557TIP3    H238163   1.667   5.788  16.266 -1.3294  0.1932  2.5814
 5558TIP3   OH238164   5.312   4.502  11.962 -0.3900 -0.2628 -0.2002
 5558TIP3    H138165   5.283   4.418  11.926  1.0769 -1.1108  0.5035
 5558TIP3    H238166   5.242   4.563  11.939 -0.4602 -1.1591 -2.7051
 5559TIP3   OH238167   3.062   5.478  15.521 -0.1064 -0.5467 -0.1318
 5559TIP3    H138168   3.048   5.572  15.536  0.7462 -0.2772 -0.9221
 5559TIP3    H238169   3.149   5.473  15.481 -0.5253 -1.5921 -0.9448
 5560TIP3   OH238170   0.418   3.849   3.450 -0.0769  0.5414 -0.0436
 5560TIP3    H138171   0.356   3.794   3.403  0.1623 -0.4702  0.7836
 5560TIP3    H238172   0.395   3.938   3.425 -1.6026  0.1697 -0.0458
 5561TIP3   OH238173   3.231   4.114   6.204 -0.1663 -0.2663 -0.2523
 5561TIP3    H138174   3.271   4.027   6.205 -0.7686 -0.5483  0.1368
 5561TIP3    H238175   3.145   4.100   6.165 -0.9490 -0.1846  1.3351
 5562TIP3   OH238176   1.451   2.915   4.941  0.2026 -0.0284 -0.1166
 5562TIP3    H138177   1.522   2.971   4.974 -1.1687 -0.2262  3.6597
 5562TIP3    H238178   1.384   2.977   4.912 -0.2711  0.3258  1.6241
 5563TIP3   OH238179   2.577   2.074   5.336 -0.3087  0.0452  1.1417
 5563TIP3    H138180   2.645   2.129   5.297 -0.3768 -0.2584  0.5755
 5563TIP3    H238181   2.574   1.997   5.280 -2.5487  0.9448 -0.1119
 5564TIP3   OH238182   2.355   6.725  14.837 -0.1568  0.3602  0.1077
 5564TIP3    H138183   2.319   6.637  14.845 -1.1214  0.7934  0.7379
 5564TIP3    H238184   2.410   6.736  14.914  0.0274  0.2720 -0.0126
 5565TIP3   OH238185   0.318   6.012   3.986  0.0081  0.0560 -0.2099
 5565TIP3    H138186   0.414   6.003   3.985 -0.0243 -0.2655 -1.4138
 5565TIP3    H238187   0.296   6.048   3.900 -0.8402  1.5396  0.5903
 5566TIP3   OH238188   2.006   5.812  11.141 -0.2398  0.1379 -0.4619
 5566TIP3    H138189   1.944   5.779  11.076 -0.7665 -1.5256  0.7997
 5566TIP3    H238190   2.092   5.792  11.105 -0.5114 -0.3486 -0.8540
 5567TIP3   OH238191   6.427   4.812   2.261 -0.8160 -0.1183 -0.2859
 5567TIP3    H138192   6.496   4.761   2.218 -2.1499 -0.5704 -2.0417
 5567TIP3    H238193   6.363   4.746   2.289 -0.3226  0.2422  1.8364
 5568TIP3   OH238194   5.328   4.165  11.105 -0.4009 -0.0065  0.0220
 5568TIP3    H138195   5.367   4.078  11.096  0.4335  0.4507 -1.0728
 5568TIP3    H238196   5.402   4.222  11.127 -0.7222  0.6179 -0.4755
 5569TIP3   OH238197   6.505   3.837  16.542  0.5144 -0.0677 -0.1091
 5569TIP3    H138198   6.435   3.779  16.574  1.4455 -1.3183 -0.2620
 5569TIP3    H238199   6.527   3.801  16.456  2.7837 -1.0491  0.7955
 5570TIP3   OH238200   5.173   2.568  14.195  0.0336  0.3894 -0.5553
 5570TIP3    H138201   5.098   2.527  14.152  0.4900 -0.2944 -0.7106
 5570TIP3    H238202   5.233   2.496  14.214 -0.4669  0.5277  1.9343
 5571TIP3   OH238203   6.058   0.143   0.882  0.0588  0.3215 -0.3316
 5571TIP3    H138204   5.981   0.104   0.925 -2.2503  1.7406 -2.8429
 5571TIP3    H238205   6.129   0.082   0.901 -2.6354 -3.6138 -1.5268
 5572TIP3   OH238206   0.122   1.454   2.055  0.1011 -0.7767 -0.2327
 5572TIP3    H138207   0.203   1.407   2.073 -1.3432 -2.6594  2.0340
 5572TIP3    H238208   0.074   1.396   1.995 -0.6994 -1.0549  0.6594
 5573TIP3   OH238209   1.978   0.086   4.849 -0.2224  0.0747 -0.5594
 5573TIP3    H138210   2.050   0.147   4.834 -0.9220  0.9470 -0.4932
 5573TIP3    H238211   1.944   0.110   4.936  0.3037 -1.2702  0.0394
 5574TIP3   OH238212   1.522   6.028   3.337  0.8518  0.7872 -0.6168
 5574TIP3    H138213   1.552   6.107   3.292 -3.4787  2.9135 -0.2943
 5574TIP3    H238214   1.521   6.051   3.429 -1.3581  0.8350 -0.5949
 5575TIP3   OH238215   0.235   4.737   3.746  0.1320  0.1441  0.1078
 5575TIP3    H138216   0.219   4.768   3.835  1.3285 -0.0266  0.4106
 5575TIP3    H238217   0.155   4.758   3.697  0.3923  2.5275  0.6006
 5576TIP3   OH238218   4.130   1.710   3.991 -0.0006 -0.6191  0.4086
 5576TIP3    H138219   4.152   1.766   4.065 -0.3926 -0.4060  0.3674
 5576TIP3    H238220   4.199   1.728   3.926 -0.0351 -0.3024  0.4579
 5577TIP3   OH238221   5.965   4.794  16.538  0.0801 -0.0390  0.0641
 5577TIP3    H138222   6.033   4.811  16.473  0.1122 -2.5578 -0.6317
 5577TIP3    H238223   6.009   4.804  16.622  0.9907 -0.3633 -0.3629
 5578TIP3   OH238224   0.646   2.184  12.345 -0.6533 -0.1427  0.1203
 5578TIP3    H138225   0.721   2.231  12.307 -0.7394 -0.7965 -0.9077
 5578TIP3    H238226   0.668   2.091  12.334 -0.7115 -0.3642  1.6759
 5579TIP3   OH238227   4.401   1.446  13.536 -0.2142  0.5264 -0.1976
 5579TIP3    H138228   4.373   1.360  13.506 -0.2929  0.7724 -0.8450
 5579TIP3    H238229   4.497   1.444  13.528 -0.1003  0.0331  1.0762
 5580TIP3   OH238230   0.241   0.204  11.520 -0.6047  0.1706  0.2569
 5580TIP3    H138231   0.311   0.143  11.496 -0.2092  1.1620 -1.2388
 5580TIP3    H238232   0.286   0.279  11.559 -1.1307 -0.6725  2.6753
 5581TIP3   OH238233   3.114   5.164  12.358 -0.0013  0.3365  0.2821
 5581TIP3    H138234   3.180   5.096  12.373 -0.9983 -0.5975  0.5417
 5581TIP3    H238235   3.115   5.216  12.438 -0.5657 -0.5438  0.8744
 5582TIP3   OH238236   1.357   4.232   1.293 -0.3411  0.0546 -0.2709
 5582TIP3    H138237   1.429   4.291   1.316 -1.6297  1.4854  0.2744
 5582TIP3    H238238   1.351   4.239   1.197  0.5201 -0.4511 -0.3767
 5583TIP3   OH238239   0.039   2.782  12.219  0.2126 -0.1165  0.2185
 5583TIP3    H138240   0.021   2.793  12.312 -0.2432 -3.4862  0.6623
 5583TIP3    H238241   0.134   2.773  12.214  0.2078 -0.2759  0.4111
 5584TIP3   OH238242   5.918   6.513   0.793  0.6657  0.6699  0.1429
 5584TIP3    H138243   5.903   6.522   0.887 -0.4964  0.6547 -0.0319
 5584TIP3    H238244   6.013   6.506   0.785  0.7175 -3.3552  1.7288
 5585TIP3   OH238245   3.060   2.879  12.174  0.0834 -0.5259  0.4164
 5585TIP3    H138246   3.055   2.969  12.208 -0.9417 -0.2305 -0.4532
 5585TIP3    H238247   3.043   2.824  12.250 -1.8942  0.1176  0.5104
 5586TIP3   OH238248   6.131   5.440  10.719  0.4721 -0.1325  0.1453
 5586TIP3    H138249   6.184   5.432  10.798  0.4560 -0.3111  0.1396
 5586TIP3    H238250   6.080   5.520  10.732 -1.8973 -1.7436  1.7847
 5587TIP3   OH238251   6.511   5.470   1.948 -0.4391  0.2911  0.3787
 5587TIP3    H138252   6.584   5.411   1.965  0.6402  1.2898 -0.5992
 5587TIP3    H238253   6.522   5.541   2.011 -0.3649  0.6045  0.0193
 5588TIP3   OH238254   0.131   3.275   4.988 -0.5452  0.2239  0.1502
 5588TIP3    H138255   0.065   3.281   5.057  0.6305  0.1122  1.3177
 5588TIP3    H238256   0.200   3.335   5.015  1.2713 -1.9336  0.6257
 5589TIP3   OH238257   2.063   4.650   2.945  0.1434  0.0022  0.1682
 5589TIP3    H138258   2.011   4.698   2.881  1.3740  0.1761 -0.7313
 5589TIP3    H238259   2.006   4.578   2.973 -0.5277  0.1013 -0.8939
 5590TIP3   OH238260   3.864   6.557   2.977 -1.0097  0.1119  0.1930
 5590TIP3    H138261   3.953   6.586   2.997 -0.7428 -1.0878  0.8319
 5590TIP3    H238262   3.812   6.584   3.053 -0.6835 -1.3458  0.9747
 5591TIP3   OH238263   3.459   5.620   3.902 -0.0400  0.4261 -0.3728
 5591TIP3    H138264   3.477   5.639   3.810  0.8248 -3.1219 -1.0855
 5591TIP3    H238265   3.535   5.655   3.949 -1.0170  3.2976 -0.7444
 5592TIP3   OH238266   2.982   3.812  14.741 -0.1022 -0.5370 -0.6142
 5592TIP3    H138267   3.025   3.778  14.820 -0.1559  0.9791  0.1034
 5592TIP3    H238268   2.894   3.775  14.744 -0.7975  1.0919  1.1907
 5593TIP3   OH238269   5.433   5.557   3.172  0.0510 -0.3882 -0.2390
 5593TIP3    H138270   5.357   5.518   3.216 -0.3187 -0.4807 -0.9372
 5593TIP3    H238271   5.509   5.524   3.220 -0.3129 -0.9747 -0.0578
 5594TIP3   OH238272   4.649   4.340   2.299 -0.3164 -0.2182  0.6434
 5594TIP3    H138273   4.732   4.379   2.325 -0.1613 -0.4343  0.4828
 5594TIP3    H238274   4.583   4.392   2.342 -0.0952 -0.0329  0.7589
 5595TIP3   OH238275   3.574   2.768   1.833  0.0348  0.1933  0.2272
 5595TIP3    H138276   3.605   2.812   1.753 -1.5338  0.7126 -0.1244
 5595TIP3    H238277   3.604   2.825   1.904  1.4964 -0.3056  0.0597
 5596TIP3   OH238278   3.222   4.708   5.900 -0.1319 -0.1823  0.3318
 5596TIP3    H138279   3.295   4.659   5.863 -0.8395 -0.4462 -0.7661
 5596TIP3    H238280   3.224   4.793   5.855 -1.1735 -0.6107 -0.5701
 5597TIP3   OH238281   4.898   4.040   2.840  0.2120 -0.0886 -0.3678
 5597TIP3    H138282   4.841   4.064   2.913  0.0751 -3.3531  0.7637
 5597TIP3    H238283   4.987   4.062   2.870 -0.0046  0.3645 -0.0489
 5598TIP3   OH238284   3.307   6.566  14.831 -0.2594 -0.7513  0.5477
 5598TIP3    H138285   3.318   6.638  14.894  3.8938 -1.2744  0.7065
 5598TIP3    H238286   3.313   6.608  14.745  0.7109 -0.7117  0.6246
 5599TIP3   OH238287   1.342   3.265  13.142  0.2082  1.1061  0.3801
 5599TIP3    H138288   1.370   3.315  13.219 -0.7200  1.1860  0.6714
 5599TIP3    H238289   1.252   3.292  13.128  0.7973  2.2130 -1.6452
 5600TIP3   OH238290   2.287   1.339  13.581  0.1579 -0.2091 -0.5426
 5600TIP3    H138291   2.251   1.416  13.624 -1.2821 -0.9513 -0.3664
 5600TIP3    H238292   2.319   1.371  13.496  0.4944  0.7483 -0.0627
 5601TIP3   OH238293   3.383   6.538   1.474  0.6765  0.2252 -0.9450
 5601TIP3    H138294   3.380   6.515   1.381 -0.2994 -1.4985 -0.5141
 5601TIP3    H238295   3.447   6.479   1.512 -1.0034 -1.1095 -0.0373
 5602TIP3   OH238296   5.303   3.901  11.706 -0.1391  0.5592  0.2824
 5602TIP3    H138297   5.259   3.910  11.790  0.5248  1.5069  0.5350
 5602TIP3    H238298   5.293   3.986  11.664 -0.1239  0.2119 -0.4358
 5603TIP3   OH238299   3.221   2.693  13.072  0.3972 -0.0838  0.0489
 5603TIP3    H138300   3.186   2.619  13.123  0.8056 -0.3541 -0.0502
 5603TIP3    H238301   3.238   2.761  13.137  0.9790 -0.4524  0.2949
 5604TIP3   OH238302   3.677   0.722  15.882  0.0066  0.5351  0.4012
 5604TIP3    H138303   3.603   0.744  15.940 -0.5278  2.2885 -0.8860
 5604TIP3    H238304   3.723   0.804  15.869  1.1702 -0.1931 -0.2695
 5605TIP3   OH238305   4.725   6.655   5.860 -0.8017  0.3589  0.4306
 5605TIP3    H138306   4.691   6.629   5.946  0.6201  0.8573  1.1809
 5605TIP3    H238307   4.743   6.749   5.869  1.8001 -0.0658  0.5001
 5606TIP3   OH238308   5.290   2.886  15.981 -0.7160  0.1127 -0.4266
 5606TIP3    H138309   5.316   2.927  15.899 -1.5264  1.2611 -0.1268
 5606TIP3    H238310   5.223   2.944  16.018 -0.2415 -0.2700  1.1334
 5607TIP3   OH238311   6.274   6.037  13.009 -0.4886 -0.5476 -0.6153
 5607TIP3    H138312   6.184   6.069  13.011 -0.8891 -1.6602 -0.4134
 5607TIP3    H238313   6.289   6.014  12.917 -0.1010  0.4536 -0.8171
 5608TIP3   OH238314   3.713   1.150  10.669 -0.2154  0.2198 -0.4964
 5608TIP3    H138315   3.795   1.104  10.649  0.4188  1.5895 -1.1385
 5608TIP3    H238316   3.740   1.230  10.713 -1.2506  0.4129 -0.1987
 5609TIP3   OH238317   0.257   0.829   4.285  0.0422 -0.4143  0.6092
 5609TIP3    H138318   0.263   0.912   4.238  0.6458  0.1149  1.5856
 5609TIP3    H238319   0.174   0.835   4.334  1.1294  0.6015  2.4353
 5610TIP3   OH238320   1.932   5.607  14.128 -0.0818  0.1565 -0.3859
 5610TIP3    H138321   1.930   5.522  14.084 -2.4278 -0.6347  1.0767
 5610TIP3    H238322   1.896   5.668  14.064 -0.3645 -0.3407 -0.7066
 5611TIP3   OH238323   5.446   6.703   3.226 -0.2844 -0.1742 -0.4548
 5611TIP3    H138324   5.384   6.775   3.215 -0.6859 -0.5533 -0.6952
 5611TIP3    H238325   5.395   6.635   3.270 -0.3691 -0.9239 -1.6748
 5612TIP3   OH238326   2.430   0.684  16.109 -0.5573  0.4422  0.0266
 5612TIP3    H138327   2.477   0.767  16.108 -0.5752  0.4638 -1.3667
 5612TIP3    H238328   2.483   0.626  16.164  0.6784  0.7053 -0.8483
 5613TIP3   OH238329   0.193   3.252  15.739  0.2209 -0.7258 -0.0040
 5613TIP3    H138330   0.189   3.168  15.785 -0.5455 -0.0167  1.2695
 5613TIP3    H238331   0.259   3.302  15.786 -0.0342 -0.2615 -0.1333
 5614TIP3   OH238332   4.312   1.298   4.527  0.5408 -0.1037  0.7398
 5614TIP3    H138333   4.377   1.309   4.457  1.5713 -2.9486  1.1225
 5614TIP3    H238334   4.363   1.271   4.603 -1.0016 -2.3293  1.0878
 5615TIP3   OH238335   5.837   4.361  15.790  0.0625 -0.1120 -0.1906
 5615TIP3    H138336   5.893   4.426  15.747 -0.2211 -0.1996 -0.7020
 5615TIP3    H238337   5.895   4.287  15.807 -0.1143 -0.6443 -1.7042
 5616TIP3   OH238338   6.246   4.791  12.612 -0.1854  0.4002  0.5213
 5616TIP3    H138339   6.287   4.735  12.546 -0.1151 -0.7802  1.5351
 5616TIP3    H238340   6.275   4.879  12.589  0.5624 -0.0810 -0.4921
 5617TIP3   OH238341   1.094   0.275  16.890  0.2821  0.3595  0.8380
 5617TIP3    H138342   1.188   0.290  16.887  0.2371  0.5844  0.5203
 5617TIP3    H238343   1.084   0.196  16.943  0.7128 -0.2418  0.0370
 5618TIP3   OH238344   1.537   4.678  17.165  0.1170 -0.0630  0.4014
 5618TIP3    H138345   1.450   4.680  17.127 -0.1466  0.0359  1.0052
 5618TIP3    H238346   1.596   4.687  17.090 -0.3941  0.1663  0.0237
 5619TIP3   OH238347   6.273   3.109   6.529  0.0957  0.1975  0.0169
 5619TIP3    H138348   6.213   3.181   6.548 -1.2196 -0.8933  0.2082
 5619TIP3    H238349   6.234   3.033   6.573  1.5004 -0.6135 -0.0742
 5620TIP3   OH238350   4.360   2.875  17.075  0.2963 -0.0291  0.1626
 5620TIP3    H138351   4.359   2.938  17.002 -1.6741  0.8920  0.9152
 5620TIP3    H238352   4.348   2.790  17.033 -3.1940  0.6761 -0.5388
 5621TIP3   OH238353   6.204   6.531   4.385  0.6925 -0.2302  0.1993
 5621TIP3    H138354   6.209   6.535   4.480  0.4661  0.3559  0.1892
 5621TIP3    H238355   6.200   6.437   4.365  0.6533 -0.3510  0.7690
 5622TIP3   OH238356   5.296   6.719   2.925  0.1156 -0.5811 -0.0445
 5622TIP3    H138357   5.256   6.646   2.972  1.0097 -1.3871 -0.5102
 5622TIP3    H238358   5.291   6.792   2.987 -0.9571 -0.9745  0.3538
 5623TIP3   OH238359   1.389   6.731   2.642  0.7763 -0.2843 -0.4669
 5623TIP3    H138360   1.304   6.701   2.611  1.1766 -1.5347 -0.4092
 5623TIP3    H238361   1.369   6.805   2.700 -0.2377 -0.3967 -0.6487
 5624TIP3   OH238362   3.264   6.264   5.024  0.4926  0.2187 -0.1313
 5624TIP3    H138363   3.306   6.243   4.940  0.6826 -3.0176  0.6478
 5624TIP3    H238364   3.176   6.292   5.001 -0.1781 -2.6288 -1.4200
 5625TIP3   OH238365   4.501   4.486   5.913 -0.2034  0.2100 -0.0816
 5625TIP3    H138366   4.518   4.576   5.884 -0.4697  0.1408 -0.4713
 5625TIP3    H238367   4.525   4.485   6.005  1.3937  0.2446 -0.4730
 5626TIP3   OH238368   6.825   2.324  15.815  1.0001 -0.7183  0.1680
 5626TIP3    H138369   6.780   2.353  15.736  1.9697 -2.3150 -1.0560
 5626TIP3    H238370   6.792   2.235  15.830  0.4620 -0.2525  1.8803
 5627TIP3   OH238371   3.031   1.273  16.597 -0.6638  0.0419 -0.2295
 5627TIP3    H138372   2.936   1.273  16.586 -0.9781 -2.0783  1.6904
 5627TIP3    H238373   3.046   1.324  16.677 -0.2808 -0.4780  0.0352
 5628TIP3   OH238374   2.929   4.665  13.436  0.1281 -0.1634  0.0467
 5628TIP3    H138375   2.870   4.740  13.438  0.6671  0.3221 -1.1239
 5628TIP3    H238376   3.007   4.694  13.483  0.1670 -0.1393 -0.0327
 5629TIP3   OH238377   0.416   1.487  14.798 -0.5139 -0.4827 -0.2343
 5629TIP3    H138378   0.383   1.477  14.709 -0.6728  2.0774 -0.5374
 5629TIP3    H238379   0.341   1.518  14.848  0.1158  0.3372  0.2345
 5630TIP3   OH238380   0.033   5.402  12.994 -0.1285 -0.2538 -0.4790
 5630TIP3    H138381  -0.005   5.326  12.951 -1.4209  0.3761 -0.5082
 5630TIP3    H238382   0.067   5.369  13.077  0.0362 -0.9929 -0.8336
 5631TIP3   OH238383   2.918   6.120  14.531  0.2044  1.0607  0.2181
 5631TIP3    H138384   2.837   6.171  14.526  0.0643  0.8750  0.5812
 5631TIP3    H238385   2.891   6.034  14.564  0.1495  0.0927 -2.1867
 5632TIP3   OH238386   6.172   6.143  14.091  0.6064  0.6828  0.4477
 5632TIP3    H138387   6.104   6.120  14.155 -0.9212 -0.3616 -1.4276
 5632TIP3    H238388   6.181   6.238  14.099 -0.2601  0.6952  1.5378
 5633TIP3   OH238389   1.585   2.901   5.608 -0.2119 -0.3893  0.5268
 5633TIP3    H138390   1.557   2.839   5.675  0.4033 -2.3557 -0.9397
 5633TIP3    H238391   1.513   2.901   5.545 -0.5433  1.0165  0.8727
 5634TIP3   OH238392   5.941   4.129   0.134 -0.2886 -0.3020 -0.1991
 5634TIP3    H138393   5.999   4.122   0.058 -1.2867 -2.1513 -0.8499
 5634TIP3    H238394   5.988   4.082   0.204  0.6382  1.4151  0.3885
 5635TIP3   OH238395   2.209   0.539   4.686 -0.2989  0.0872 -0.2124
 5635TIP3    H138396   2.248   0.535   4.774 -1.7765  0.1888  0.4793
 5635TIP3    H238397   2.168   0.625   4.682  1.2373  0.8020 -1.7013
 5636TIP3   OH238398   1.298   3.442   0.006  0.4148  0.1974 -0.3461
 5636TIP3    H138399   1.273   3.378   0.073 -0.4198  2.2488  1.3824
 5636TIP3    H238400   1.391   3.424  -0.010  1.0589  0.5698  2.4789
 5637TIP3   OH238401   0.262   1.519   1.248 -0.4099  0.3138 -0.4443
 5637TIP3    H138402   0.316   1.503   1.326 -2.2781  1.2643  1.1310
 5637TIP3    H238403   0.223   1.605   1.263 -0.4433  0.7538 -2.7099
 5638TIP3   OH238404   0.207   6.445  11.771  0.3743  0.0956  0.2338
 5638TIP3    H138405   0.141   6.389  11.729  1.1069  1.1094 -2.4797
 5638TIP3    H238406   0.220   6.517  11.709  3.0011  0.6666  1.3277
 5639TIP3   OH238407   0.707   1.558  12.682 -0.7759 -0.0307 -0.1508
 5639TIP3    H138408   0.747   1.644  12.694 -1.4399  0.3674 -0.6771
 5639TIP3    H238409   0.780   1.496  12.685 -0.1178  0.6686 -1.0510
 5640TIP3   OH238410   6.313   2.323  12.777  0.1216  0.0261 -0.3451
 5640TIP3    H138411   6.271   2.329  12.862 -0.4018  1.5309 -0.6809
 5640TIP3    H238412   6.298   2.408  12.736  0.7395 -0.5070 -1.7696
 5641TIP3   OH238413   4.262   3.129  12.450  0.2723  0.6456  0.1123
 5641TIP3    H138414   4.206   3.056  12.426  0.3660  0.5761  0.1053
 5641TIP3    H238415   4.206   3.186  12.503  0.2764  0.4445  0.3325
 5642TIP3   OH238416   4.439   1.520   3.217  0.1111  0.1881 -0.4377
 5642TIP3    H138417   4.437   1.467   3.137 -0.9593  2.0152 -1.6951
 5642TIP3    H238418   4.530   1.515   3.247  0.9800  0.8121 -2.7424
 5643TIP3   OH238419   0.281   5.983  12.863 -0.5115 -0.5331  0.3860
 5643TIP3    H138420   0.338   6.037  12.918 -0.6135  1.1625 -1.0978
 5643TIP3    H238421   0.219   5.944  12.925  2.1548 -2.5096  2.0922
 5644TIP3   OH238422   0.791   6.137   2.347 -0.6236 -0.0024  0.5635
 5644TIP3    H138423   0.848   6.101   2.279 -0.2963 -1.7783  1.7374
 5644TIP3    H238424   0.821   6.096   2.428 -2.0316  0.8651  1.5610
 5645TIP3   OH238425   3.851   3.053  16.905  0.1298 -0.4517 -0.4915
 5645TIP3    H138426   3.810   3.055  16.992  0.6791 -0.7069 -0.2245
 5645TIP3    H238427   3.876   3.144  16.889 -0.1751 -0.3643 -0.4808
 5646TIP3   OH238428   2.621   4.042  16.421  0.4566 -0.1712 -0.0689
 5646TIP3    H138429   2.545   4.076  16.374  0.8469 -0.6615 -1.0726
 5646TIP3    H238430   2.690   4.106  16.404  0.6452 -0.4361 -0.2992
 5647TIP3   OH238431   0.280   0.859   5.051  0.2132  0.3864 -0.7541
 5647TIP3    H138432   0.299   0.865   5.144 -1.3724 -1.4935 -0.2574
 5647TIP3    H238433   0.364   0.837   5.011  1.2405  2.6288 -0.0367
 5648TIP3   OH238434   5.448   0.032  13.195 -0.1242 -0.2496  0.5779
 5648TIP3    H138435   5.485  -0.042  13.244  0.6869  0.6791  1.4218
 5648TIP3    H238436   5.517   0.098  13.198 -0.5654  0.2883 -0.7735
 5649TIP3   OH238437   2.434   4.733   1.072  0.2958 -0.1102 -0.2737
 5649TIP3    H138438   2.463   4.686   1.150 -0.5653  0.9418  0.7206
 5649TIP3    H238439   2.420   4.823   1.102  0.3401  0.4159 -1.7428
 5650TIP3   OH238440   2.429   4.593   1.578 -0.0376  0.0281  0.3646
 5650TIP3    H138441   2.446   4.546   1.659  1.6466  0.5606  0.3563
 5650TIP3    H238442   2.336   4.581   1.562 -0.1635 -1.0405  1.7668
 5651TIP3   OH238443   5.811   0.784   5.228  0.2135 -0.1740 -0.3958
 5651TIP3    H138444   5.871   0.794   5.154 -0.4535  2.1248 -0.7284
 5651TIP3    H238445   5.760   0.705   5.208  2.4328 -1.6372 -0.5526
 5652TIP3   OH238446   2.593   4.270   2.291  0.2488  0.1656 -0.1721
 5652TIP3    H138447   2.614   4.342   2.349  0.2987  1.1513 -1.3633
 5652TIP3    H238448   2.658   4.275   2.221 -0.2023 -0.5644 -0.6703
 5653TIP3   OH238449   5.935   0.120  11.565 -0.4727 -0.4217  0.1823
 5653TIP3    H138450   5.976   0.204  11.546 -0.7724  0.0393  1.4445
 5653TIP3    H238451   5.867   0.140  11.630 -0.6013 -1.6163  0.4521
 5654TIP3   OH238452   6.023   6.027  14.314  0.5723  0.8133  0.9811
 5654TIP3    H138453   6.035   5.935  14.336 -2.5074  0.7045  2.8433
 5654TIP3    H238454   6.079   6.074  14.376  1.3568  0.2268  0.7218
 5655TIP3   OH238455   2.602   0.262   1.240 -0.0675 -0.2015  0.0246
 5655TIP3    H138456   2.673   0.308   1.197 -0.3558  1.7715  1.4941
 5655TIP3    H238457   2.522   0.298   1.201 -0.2935 -0.1350  0.5349
 5656TIP3   OH238458   1.084   6.332   1.460  0.5382 -0.6225  0.0101
 5656TIP3    H138459   1.050   6.246   1.485 -0.0448  0.0385  1.5729
 5656TIP3    H238460   1.006   6.384   1.441  0.6358  0.6302  2.6936
 5657TIP3   OH238461   1.784   5.508   1.452  0.7175  0.3380  0.4098
 5657TIP3    H138462   1.725   5.494   1.377  1.3145 -0.1320  0.0103
 5657TIP3    H238463   1.734   5.561   1.513 -1.2579 -2.4676  1.4228
 5658TIP3   OH238464   2.203   5.273   3.327  0.1084 -0.0846  0.3288
 5658TIP3    H138465   2.227   5.293   3.417 -1.8337 -0.2983  0.9540
 5658TIP3    H238466   2.197   5.177   3.324 -1.1059 -0.0290  0.3728
 5659TIP3   OH238467   4.161   4.540   6.748  0.2322 -0.1096  0.0482
 5659TIP3    H138468   4.229   4.526   6.814 -1.2271 -0.2553  1.5897
 5659TIP3    H238469   4.178   4.474   6.681  2.6259  0.9706 -0.5111
 5660TIP3   OH238470   4.885   2.494   5.098 -0.0835  0.3145  0.3311
 5660TIP3    H138471   4.893   2.419   5.157 -0.9831 -0.0219  0.0308
 5660TIP3    H238472   4.795   2.491   5.067  0.0663  1.1348 -0.2057
 5661TIP3   OH238473   1.529   6.375   3.412  0.1888 -0.8541 -0.8150
 5661TIP3    H138474   1.442   6.398   3.446 -0.3136 -2.1702 -1.1394
 5661TIP3    H238475   1.553   6.449   3.357  1.8633  2.2809  3.6170
 5662TIP3   OH238476   1.556   2.363   4.826  0.5290  0.1857 -0.4707
 5662TIP3    H138477   1.528   2.452   4.848 -1.2063 -0.8709  2.1159
 5662TIP3    H238478   1.632   2.375   4.769  0.2979  3.2993 -0.2910
 5663TIP3   OH238479   2.879   2.066   3.252 -0.0831 -0.2261 -0.3068
 5663TIP3    H138480   2.847   2.020   3.329  0.5600 -2.5835 -1.3440
 5663TIP3    H238481   2.973   2.048   3.251 -0.4297 -2.6700 -3.0326
 5664TIP3   OH238482   2.100   5.970   2.524  0.0360  0.5841 -0.4201
 5664TIP3    H138483   2.045   5.981   2.447 -0.5858 -0.1561 -0.0909
 5664TIP3    H238484   2.040   5.950   2.595  0.6538  0.6453  0.1374
 5665TIP3   OH238485   2.449   5.551   0.555 -0.2122  0.1486 -0.3253
 5665TIP3    H138486   2.535   5.591   0.571 -0.0602 -0.0852 -0.5631
 5665TIP3    H238487   2.462   5.458   0.573 -1.0820  0.4506  2.3681
 5666TIP3   OH238488   3.501   5.480  16.036 -0.0857  0.3233 -0.4801
 5666TIP3    H138489   3.413   5.442  16.034 -0.1090  0.3016  0.5466
 5666TIP3    H238490   3.500   5.545  15.965 -0.3305 -0.9215 -1.6630
 5667TIP3   OH238491   6.821   1.193   5.851 -0.2076 -0.2167  0.3738
 5667TIP3    H138492   6.765   1.134   5.800 -0.4990  0.5196 -0.1760
 5667TIP3    H238493   6.787   1.280   5.833  0.7465  0.1953  0.5063
 5668TIP3   OH238494   3.414   3.681   4.411  0.1022  0.6167 -0.2810
 5668TIP3    H138495   3.382   3.769   4.431  0.7849  0.6574  0.6751
 5668TIP3    H238496   3.507   3.691   4.396  0.9241 -0.3804  3.2571
 5669TIP3   OH238497   1.356   1.527  13.204 -0.0554  0.1442  0.1407
 5669TIP3    H138498   1.365   1.441  13.245 -1.8817 -0.0425  0.2295
 5669TIP3    H238499   1.282   1.567  13.249  0.0565  1.3189 -0.6826
 5670TIP3   OH238500   0.604   3.005   1.946 -0.2860  0.4524  0.4342
 5670TIP3    H138501   0.603   3.100   1.952 -0.0812  0.3663  2.4262
 5670TIP3    H238502   0.511   2.980   1.949 -0.3366  0.5745 -0.0332
 5671TIP3   OH238503   2.047   5.505  16.448 -0.4012 -0.3292  0.0282
 5671TIP3    H138504   2.113   5.494  16.380  0.0503  0.1359  0.3811
 5671TIP3    H238505   2.061   5.431  16.507  0.7813  0.5369  0.8861
 5672TIP3   OH238506   2.499   2.166  15.625 -0.0822 -0.5748  0.0217
 5672TIP3    H138507   2.535   2.153  15.712  1.3350 -0.1016 -0.4661
 5672TIP3    H238508   2.552   2.237  15.587 -0.5151 -0.9193 -1.2927
 5673TIP3   OH238509   0.584   6.707   1.016 -0.4087  0.1419  0.1296
 5673TIP3    H138510   0.492   6.722   0.995 -0.1653  1.0537 -0.3524
 5673TIP3    H238511   0.586   6.694   1.111 -0.6219  3.8773  0.7685
 5674TIP3   OH238512   1.780   0.068   3.666 -0.0029  0.4141  0.2358
 5674TIP3    H138513   1.731  -0.011   3.687  0.2631  0.1334 -0.1724
 5674TIP3    H238514   1.754   0.089   3.576 -0.2790  0.9488  0.4374
 5675TIP3   OH238515   2.314   6.726  14.274  0.2105 -0.0922  0.0521
 5675TIP3    H138516   2.299   6.635  14.251 -1.7168  0.0692  0.4330
 5675TIP3    H238517   2.327   6.725  14.369 -1.0652  0.1060  0.2544
 5676TIP3   OH238518   0.158   1.165   6.046  0.1418  0.4044 -0.2829
 5676TIP3    H138519   0.100   1.141   5.974  0.8056 -2.2722 -0.0079
 5676TIP3    H238520   0.112   1.135   6.125 -0.0600  2.2732  0.3629
 5677TIP3   OH238521   1.412   1.500   2.211  0.3382 -0.5055 -0.5695
 5677TIP3    H138522   1.393   1.452   2.130 -0.7438  0.2041 -0.7574
 5677TIP3    H238523   1.472   1.443   2.259 -1.7923 -2.5993 -0.2309
 5678TIP3   OH238524   6.734   1.539   5.296  0.2265  0.2729 -0.6488
 5678TIP3    H138525   6.650   1.504   5.327 -0.0675  0.3897 -1.3069
 5678TIP3    H238526   6.799   1.479   5.332 -0.2982 -1.3496 -2.2782
 5679TIP3   OH238527   1.662   5.237  13.534 -0.1800  0.1703 -0.2103
 5679TIP3    H138528   1.748   5.230  13.491  0.3408  0.3267  0.7615
 5679TIP3    H238529   1.649   5.331  13.547 -1.0461  0.2353 -1.3708
 5680TIP3   OH238530   5.157   6.563  10.912  0.2994  0.2412 -0.1015
 5680TIP3    H138531   5.228   6.603  10.963  1.1875 -0.3842 -0.8073
 5680TIP3    H238532   5.115   6.637  10.869 -0.2597  0.7473  1.2466
 5681TIP3   OH238533   0.502   6.102  15.818  0.6262 -0.1001  0.0978
 5681TIP3    H138534   0.426   6.087  15.762 -0.4947 -0.3834  1.6236
 5681TIP3    H238535   0.469   6.157  15.889  2.3248  1.3993 -0.1932
 5682TIP3   OH238536   2.303   0.030   3.700 -0.0663 -0.5580  0.0722
 5682TIP3    H138537   2.232  -0.031   3.719 -1.2471  0.5077 -0.7405
 5682TIP3    H238538   2.280   0.109   3.749  0.7829 -0.3296  0.1210
 5683TIP3   OH238539   2.509   4.631   2.290  0.1007 -0.0791 -0.1336
 5683TIP3    H138540   2.526   4.583   2.209  0.3908  1.1237 -0.8024
 5683TIP3    H238541   2.479   4.564   2.351  0.9690 -1.2027 -0.8846
 5684TIP3   OH238542   2.735   0.547  12.054  0.7374 -0.1916 -0.0508
 5684TIP3    H138543   2.820   0.589  12.044  0.0349  1.5461  0.8787
 5684TIP3    H238544   2.672   0.614  12.027 -0.5223  0.0708  3.1461
 5685TIP3   OH238545   3.100   5.879   4.504  0.3289  0.2779  0.2794
 5685TIP3    H138546   3.032   5.861   4.439  1.3204 -0.1221 -0.6991
 5685TIP3    H238547   3.138   5.793   4.524  1.6357  0.6362 -0.4745
 5686TIP3   OH238548   4.672   2.428   6.667 -0.0154  0.0675  0.2215
 5686TIP3    H138549   4.719   2.510   6.681  0.9016 -0.3989 -0.0656
 5686TIP3    H238550   4.726   2.361   6.708  0.0284 -0.5956 -0.8713
 5687TIP3   OH238551   1.911   3.887  11.500  0.2374 -0.1372  0.1131
 5687TIP3    H138552   1.922   3.974  11.459 -0.6364  0.3111  0.7873
 5687TIP3    H238553   1.997   3.846  11.492  0.9752  1.1998  0.6999
 5688TIP3   OH238554   3.105   4.045   0.940  0.5126  0.8005 -0.0905
 5688TIP3    H138555   3.073   3.963   0.903 -1.7099  1.8152 -0.5702
 5688TIP3    H238556   3.072   4.045   1.030 -0.1932  1.4850 -0.3339
 5689TIP3   OH238557   4.363   2.943   4.094 -0.0893 -0.0022  0.2810
 5689TIP3    H138558   4.402   2.967   4.010  0.6543  1.8345  1.0985
 5689TIP3    H238559   4.320   3.023   4.124 -1.6391 -1.0605  0.9777
 5690TIP3   OH238560   5.389   1.470  16.629 -0.1618 -0.0313 -0.2885
 5690TIP3    H138561   5.367   1.553  16.587  1.2363  0.8071  0.5399
 5690TIP3    H238562   5.415   1.412  16.557 -1.0021  0.2920 -0.8542
 5691TIP3   OH238563   3.818   1.416  16.909  0.0986  0.5240 -0.1966
 5691TIP3    H138564   3.817   1.475  16.984 -1.7218  1.0770 -0.6026
 5691TIP3    H238565   3.792   1.471  16.835  1.2134 -0.1591 -1.1305
 5692TIP3   OH238566   3.977   0.124   1.073  0.3282 -0.4163  0.0756
 5692TIP3    H138567   3.970   0.214   1.042  0.2434 -0.6066 -0.4593
 5692TIP3    H238568   3.896   0.110   1.123 -0.0309 -0.4547 -0.5132
 5693TIP3   OH238569   5.350   1.643   6.312 -0.1488 -0.8623 -0.1949
 5693TIP3    H138570   5.295   1.567   6.295 -1.1014 -0.4438  0.8499
 5693TIP3    H238571   5.295   1.701   6.365  1.5336 -0.7540  1.5539
 5694TIP3   OH238572   6.488   2.382   0.299 -0.4524  0.7231  0.1454
 5694TIP3    H138573   6.502   2.440   0.224 -0.0365  2.1548  1.3042
 5694TIP3    H238574   6.450   2.438   0.366  1.5343  0.0808  1.8921
 5695TIP3   OH238575   5.056   1.997  12.384 -0.6813 -0.1304  0.3424
 5695TIP3    H138576   4.989   2.000  12.316  0.7158 -0.5279 -1.1136
 5695TIP3    H238577   5.126   1.944  12.346 -0.5716 -1.9008  2.7825
 5696TIP3   OH238578   3.216   6.124  13.041 -0.0711  0.1985  0.0165
 5696TIP3    H138579   3.135   6.175  13.049 -0.6938 -0.5091 -1.4476
 5696TIP3    H238580   3.283   6.179  13.082 -1.3568  0.5647  1.7607
 5697TIP3   OH238581   1.932   5.302   3.203 -0.5569 -0.7169 -0.3089
 5697TIP3    H138582   2.013   5.341   3.235 -1.8425  0.8336  1.2155
 5697TIP3    H238583   1.871   5.376   3.197 -1.2476 -1.4049 -3.6904
 5698TIP3   OH238584   1.314   0.136  11.237  0.6221 -0.3537 -1.2734
 5698TIP3    H138585   1.262   0.082  11.178 -2.4325  2.5204 -1.5299
 5698TIP3    H238586   1.257   0.150  11.313  2.3734  0.3055 -0.0191
 5699TIP3   OH238587   3.083   1.795   1.955  0.3629 -0.6046 -0.0837
 5699TIP3    H138588   2.997   1.757   1.972  1.5940 -2.9268  1.6154
 5699TIP3    H238589   3.066   1.887   1.936 -2.2714 -0.2914  2.9795
 5700TIP3   OH238590   5.934   1.560   3.760 -0.1466 -0.3537  0.3690
 5700TIP3    H138591   5.979   1.641   3.734 -2.0304  0.1714 -1.5706
 5700TIP3    H238592   6.003   1.505   3.798  1.9655  0.7362 -1.6224
 5701TIP3   OH238593   4.238   3.664  17.294 -0.2923  0.4327  0.1406
 5701TIP3    H138594   4.276   3.679  17.207 -1.1938  1.1046 -0.1458
 5701TIP3    H238595   4.223   3.751  17.329 -0.4339  0.1646  0.7594
 5702TIP3   OH238596   1.912   4.762  15.704 -0.6850  0.1918 -0.1656
 5702TIP3    H138597   1.852   4.701  15.748  0.9373 -0.3019  1.4761
 5702TIP3    H238598   1.998   4.741  15.740  0.5833  0.6061 -2.7290
 5703TIP3   OH238599   5.627   0.249   4.617 -0.3198  0.2726  0.1771
 5703TIP3    H138600   5.703   0.234   4.673 -1.2831 -0.1029  1.4317
 5703TIP3    H238601   5.552   0.235   4.674 -1.4133 -2.1333 -1.6541
 5704TIP3   OH238602   5.520   0.572   3.068  0.2271  0.3913 -0.2628
 5704TIP3    H138603   5.487   0.653   3.107 -1.0913 -0.0466 -0.4277
 5704TIP3    H238604   5.443   0.530   3.029  1.0499 -0.4760 -1.0314
 5705TIP3   OH238605   4.643   4.083  14.438  0.0245  0.4240  0.4304
 5705TIP3    H138606   4.612   4.116  14.523  1.4455  0.1377  1.0888
 5705TIP3    H238607   4.641   4.159  14.381 -0.0363  0.8483  0.9826
 5706TIP3   OH238608   0.593   6.031  13.395 -0.5366 -0.7844 -0.6584
 5706TIP3    H138609   0.574   6.020  13.302  0.1005  0.9590 -1.0288
 5706TIP3    H238610   0.681   6.068  13.398 -0.9810  0.2885  0.5675
 5707TIP3   OH238611   1.354   5.131  12.685 -0.0604 -0.0600 -0.4361
 5707TIP3    H138612   1.446   5.116  12.663 -0.2545 -0.6181 -0.8865
 5707TIP3    H238613   1.308   5.054  12.653 -0.6033 -0.0898  0.3792
 5708TIP3   OH238614   6.636   6.123   0.865  0.0842  0.4080 -0.1965
 5708TIP3    H138615   6.579   6.083   0.931 -0.2554  0.9312 -0.1625
 5708TIP3    H238616   6.638   6.060   0.794  0.5049 -0.1943  0.3369
 5709TIP3   OH238617   3.001   0.795  16.223  0.1074 -0.4166 -0.2114
 5709TIP3    H138618   2.931   0.849  16.186 -1.1443 -1.6617  0.2244
 5709TIP3    H238619   3.061   0.780  16.150 -2.4855 -3.1100 -2.0578
 5710TIP3   OH238620   3.178   6.126  10.817  0.0732  0.3289  0.2316
 5710TIP3    H138621   3.215   6.181  10.748  1.3304  0.7662  1.2038
 5710TIP3    H238622   3.172   6.185  10.893 -0.0816 -0.4613  0.8404
 5711TIP3   OH238623   6.302   6.133   5.134 -0.2940  0.2419  0.0434
 5711TIP3    H138624   6.345   6.218   5.124 -0.0988  0.1327 -0.0570
 5711TIP3    H238625   6.292   6.100   5.044  0.4106 -0.2227  0.1234
 5712TIP3   OH238626   5.200   5.886  12.024  0.4062 -0.5184 -0.1699
 5712TIP3    H138627   5.156   5.918  11.945 -0.3620 -0.0771  0.4288
 5712TIP3    H238628   5.285   5.855  11.992  0.7910  1.2000 -0.9323
 5713TIP3   OH238629   1.829   0.278   5.974  0.2612  0.0534 -0.3609
 5713TIP3    H138630   1.882   0.232   6.039 -1.2736  0.3519  1.1742
 5713TIP3    H238631   1.749   0.226   5.967  0.0508  0.4986 -1.3802
 5714TIP3   OH238632   1.053   3.219  11.091 -0.4999  0.0164  0.1587
 5714TIP3    H138633   0.973   3.271  11.097 -1.4856 -1.4220  0.1564
 5714TIP3    H238634   1.099   3.255  11.015 -0.6130  1.5396  0.7765
 5715TIP3   OH238635   4.196   0.911  13.585  0.4438  0.2686  0.1451
 5715TIP3    H138636   4.187   0.895  13.679 -1.4612  2.1679  0.3509
 5715TIP3    H238637   4.125   0.971  13.563  1.3729  0.5896 -2.3584
 5716TIP3   OH238638   3.358   3.841   6.224  0.1010  0.1074 -0.3276
 5716TIP3    H138639   3.415   3.782   6.275 -0.1717 -1.0527 -1.3211
 5716TIP3    H238640   3.419   3.892   6.171  0.3367  0.6746  0.4711
 5717TIP3   OH238641   3.944   5.380  15.797 -0.5819  0.2988  0.5241
 5717TIP3    H138642   3.994   5.390  15.878 -0.0163  0.0858  0.2045
 5717TIP3    H238643   3.870   5.324  15.822  0.5761 -1.3171  0.5076
 5718TIP3   OH238644   3.032   4.544  14.814 -0.2271  0.0411 -0.5658
 5718TIP3    H138645   3.034   4.581  14.726  1.7686  0.9150 -0.2098
 5718TIP3    H238646   3.113   4.574  14.855  0.1587 -2.4393  0.7161
 5719TIP3   OH238647   1.814   5.750  17.168  0.0040  0.4779  0.0195
 5719TIP3    H138648   1.855   5.710  17.091 -1.7868 -0.4353 -0.5191
 5719TIP3    H238649   1.879   5.740  17.238  1.7180  1.4174 -1.3473
 5720TIP3   OH238650   0.449   1.056  16.665 -0.4426  0.0028  0.3137
 5720TIP3    H138651   0.518   1.117  16.690 -0.8711  1.4100 -1.6606
 5720TIP3    H238652   0.487   0.969  16.677  1.0086  0.7009  0.9823
 5721TIP3   OH238653   3.408   6.114  16.879 -0.1932 -0.6632  0.2373
 5721TIP3    H138654   3.367   6.200  16.868  0.7312 -0.2110  0.2790
 5721TIP3    H238655   3.398   6.094  16.972  1.6570  0.4945  0.7478
 5722TIP3   OH238656   0.938   1.965   2.667 -0.1174  0.1672 -0.1162
 5722TIP3    H138657   1.009   1.902   2.655  0.3477  1.1117 -2.8189
 5722TIP3    H238658   0.869   1.935   2.609 -0.8971  0.7612  0.4789
 5723TIP3   OH238659   4.306   6.594   4.559 -0.1385  0.2203 -0.1020
 5723TIP3    H138660   4.321   6.582   4.653 -1.1145  1.1661  0.2004
 5723TIP3    H238661   4.378   6.650   4.530  0.5010 -0.5589 -0.0618
 5724TIP3   OH238662   3.253   5.391   0.423 -0.0814  0.1822 -0.1532
 5724TIP3    H138663   3.327   5.451   0.432  0.5283 -0.5876  0.1493
 5724TIP3    H238664   3.290   5.305   0.442 -0.6297 -0.4741 -1.9104
 5725TIP3   OH238665   6.588   1.232  13.592 -0.3888 -0.3047 -0.9874
 5725TIP3    H138666   6.498   1.234  13.559 -0.7889  0.8186  0.0800
 5725TIP3    H238667   6.638   1.185  13.525 -1.8815 -1.5032 -1.3078
 5726TIP3   OH238668   2.490   1.553   4.160  0.3585  0.3251 -0.2780
 5726TIP3    H138669   2.457   1.640   4.138 -2.0974 -0.9215 -2.0217
 5726TIP3    H238670   2.424   1.516   4.218  0.4213 -1.0121 -1.0129
 5727TIP3   OH238671   1.712   3.067   1.954  0.2039  0.1910  0.3668
 5727TIP3    H138672   1.746   3.029   2.035  1.8758 -0.9591 -0.8268
 5727TIP3    H238673   1.730   3.002   1.887 -1.8324  0.7842 -0.8536
 5728TIP3   OH238674   5.108   0.643  12.694 -0.5882 -0.2987 -0.2134
 5728TIP3    H138675   5.108   0.594  12.776 -1.3671 -0.8590 -0.5384
 5728TIP3    H238676   5.200   0.646  12.668 -0.1592  0.9302  1.2692
 5729TIP3   OH238677   3.381   4.242   6.021  0.2806  0.6443 -0.7168
 5729TIP3    H138678   3.426   4.171   5.976 -1.8325  0.0667 -2.0231
 5729TIP3    H238679   3.329   4.199   6.089  0.1970  1.0983 -0.4869
 5730TIP3   OH238680   1.206   2.790  12.212  0.2259  0.8021 -0.0349
 5730TIP3    H138681   1.246   2.756  12.132  0.4005  0.3428  0.2400
 5730TIP3    H238682   1.123   2.743  12.219  0.9959 -0.5041  0.9767
 5731TIP3   OH238683   0.853   5.649  13.379 -0.1535 -0.4787 -0.3998
 5731TIP3    H138684   0.792   5.700  13.433 -0.1180 -0.6578 -0.1855
 5731TIP3    H238685   0.934   5.648  13.430 -0.0742 -0.5237 -0.5273
 5732TIP3   OH238686   6.340   3.285   0.825 -0.3786  0.3534  0.2798
 5732TIP3    H138687   6.328   3.232   0.746  0.9195  2.0872 -1.1896
 5732TIP3    H238688   6.433   3.308   0.824 -0.1528 -0.2154  2.8028
 5733TIP3   OH238689   6.401   3.678   0.443  0.1643  0.1962 -0.2609
 5733TIP3    H138690   6.485   3.701   0.483  0.3386  0.4239 -0.7484
 5733TIP3    H238691   6.359   3.620   0.506  0.2231  0.9402  0.4789
 5734TIP3   OH238692   3.059   0.816   2.334  0.0661  0.4817  0.5532
 5734TIP3    H138693   3.121   0.888   2.335  1.1215 -0.3750 -0.5865
 5734TIP3    H238694   3.104   0.746   2.287  0.3338 -2.0636  4.2316
 5735TIP3   OH238695   1.416   1.503  16.892 -0.1889 -0.0547 -0.7457
 5735TIP3    H138696   1.482   1.502  16.962 -1.0967  0.2069  0.1361
 5735TIP3    H238697   1.402   1.411  16.870 -0.3154 -0.1740 -0.1746
 5736TIP3   OH238698   4.168   1.809  15.833 -0.3100 -0.0472 -0.1628
 5736TIP3    H138699   4.166   1.769  15.920 -1.3062  0.1932 -0.0565
 5736TIP3    H238700   4.260   1.828  15.816 -0.1823  0.6272  1.1775
 5737TIP3   OH238701   3.541   4.339   0.979  0.1018 -0.5204 -0.0870
 5737TIP3    H138702   3.536   4.418   0.924 -1.1636  1.3445  2.4839
 5737TIP3    H238703   3.460   4.292   0.961 -0.0384 -0.2247 -0.2291
 5738TIP3   OH238704   5.232   2.879   2.137  0.3586 -0.2261 -0.0650
 5738TIP3    H138705   5.198   2.828   2.064  1.8415  1.2808 -1.9297
 5738TIP3    H238706   5.324   2.853   2.143  0.2755 -0.2842  1.2709
 5739TIP3   OH238707   5.077   3.266  16.456  0.0451  0.9026 -0.4553
 5739TIP3    H138708   4.984   3.244  16.447  0.2649 -0.6026  0.7177
 5739TIP3    H238709   5.078   3.338  16.519 -0.2387 -0.2988  0.9805
 5740TIP3   OH238710   5.159   3.482   2.967  0.6211  0.4528 -0.2001
 5740TIP3    H138711   5.144   3.388   2.959  0.0064  0.4570  0.8096
 5740TIP3    H238712   5.074   3.522   2.944  0.4098  0.6865  0.9546
 5741TIP3   OH238713   3.494   3.142   0.650  0.0255 -0.0305 -0.9582
 5741TIP3    H138714   3.520   3.127   0.559 -1.0420  0.6993 -1.3912
 5741TIP3    H238715   3.515   3.233   0.666 -1.5354  0.3791 -1.0928
 5742TIP3   OH238716   6.637   0.945   4.591  0.4939 -0.4113 -0.6268
 5742TIP3    H138717   6.653   0.966   4.499 -1.2327  1.5026 -0.5637
 5742TIP3    H238718   6.557   0.892   4.589 -0.1098  0.4528 -0.2111
 5743TIP3   OH238719   6.296   3.705  15.051 -0.2947 -0.6242 -0.1073
 5743TIP3    H138720   6.376   3.754  15.069  0.2550 -0.7625 -2.0021
 5743TIP3    H238721   6.323   3.614  15.050 -0.3861 -0.6519 -1.0912
 5744TIP3   OH238722   5.231   1.804  17.198  0.5975 -0.0844 -0.8679
 5744TIP3    H138723   5.189   1.821  17.282 -0.9324 -1.2025 -1.3598
 5744TIP3    H238724   5.298   1.738  17.217  0.6161  0.0559 -0.4469
 5745TIP3   OH238725   0.674   4.091   0.939 -0.2306 -0.0269 -0.4061
 5745TIP3    H138726   0.596   4.135   0.904 -0.7756  0.5257  1.4115
 5745TIP3    H238727   0.717   4.158   0.992 -0.1518 -1.1796  1.0456
 5746TIP3   OH238728   4.545   2.712  11.592  0.3984  0.7833  0.3169
 5746TIP3    H138729   4.589   2.750  11.516 -1.0693 -1.1840 -1.6459
 5746TIP3    H238730   4.471   2.665  11.555 -0.9728  0.5705  3.1089
 5747TIP3   OH238731   2.866   6.025  11.359  0.2143 -0.3781 -0.2480
 5747TIP3    H138732   2.916   5.970  11.419 -0.8921 -0.0651  1.0096
 5747TIP3    H238733   2.906   6.010  11.273  0.7592 -2.1401  0.2780
 5748TIP3   OH238734   0.742   4.747  17.026 -0.2984 -0.1383  0.4600
 5748TIP3    H138735   0.681   4.817  17.003  1.4903  0.2846 -3.8528
 5748TIP3    H238736   0.703   4.667  16.990 -0.1836 -0.6172  1.3489
 5749TIP3   OH238737   0.946   6.139  10.241  0.7265 -0.5051 -0.2530
 5749TIP3    H138738   0.926   6.098  10.158 -0.8696  0.4258 -0.3853
 5749TIP3    H238739   0.986   6.070  10.294  2.5443 -0.8868 -2.0311
 5750TIP3   OH238740   0.029   2.715   2.364 -0.2776 -0.0562 -0.1080
 5750TIP3    H138741   0.047   2.629   2.326 -2.9208 -0.6285 -0.2682
 5750TIP3    H238742   0.111   2.740   2.408  1.3877 -1.4648 -2.1771
 5751TIP3   OH238743   1.408   6.536   2.416  0.0857  0.0837  0.0448
 5751TIP3    H138744   1.335   6.509   2.360 -1.8772  2.1668  1.4362
 5751TIP3    H238745   1.380   6.619   2.454  2.4643  0.0798  2.0563
 5752TIP3   OH238746   0.695   2.725   3.610  0.4404 -0.1861  0.5607
 5752TIP3    H138747   0.735   2.783   3.675 -0.0631 -0.2821  0.9638
 5752TIP3    H238748   0.603   2.751   3.608  0.6978  0.7614 -1.1372
 5753TIP3   OH238749   6.448   0.128   1.799 -0.2895 -0.2303  0.0361
 5753TIP3    H138750   6.390   0.053   1.784  0.3532 -0.7849  0.2845
 5753TIP3    H238751   6.491   0.142   1.715  0.2389 -0.7062  0.2193
 5754TIP3   OH238752   1.616   0.418   4.767  0.3665  0.2865  0.1028
 5754TIP3    H138753   1.625   0.460   4.852  0.0771 -0.5141  0.5485
 5754TIP3    H238754   1.607   0.325   4.788  0.0882  0.1030 -0.7924
 5755TIP3   OH238755   5.725   1.203  13.220 -0.0229 -0.2429  0.1561
 5755TIP3    H138756   5.644   1.187  13.171 -0.1149  0.0830  0.2050
 5755TIP3    H238757   5.788   1.231  13.154  0.0401 -0.4578  0.1244
 5756TIP3   OH238758   0.597   3.002   3.288  0.1488 -0.1924  0.1876
 5756TIP3    H138759   0.630   2.915   3.267 -0.6341 -0.5633  0.4194
 5756TIP3    H238760   0.672   3.060   3.281  0.7736 -0.9614  0.4460
 5757TIP3   OH238761   0.490   1.230   4.009  0.3056  0.7394 -0.4402
 5757TIP3    H138762   0.556   1.277   3.959 -1.8181  1.0732 -3.1914
 5757TIP3    H238763   0.412   1.286   4.004 -0.7063 -0.4375  1.1341
 5758TIP3   OH238764   1.623   5.771   0.028  0.1430  0.1246 -0.8304
 5758TIP3    H138765   1.687   5.738  -0.035 -0.0357  0.9291 -1.4521
 5758TIP3    H238766   1.673   5.827   0.087  1.1459 -3.6529  2.3311
 5759TIP3   OH238767   2.671   1.405   0.341  0.0149 -0.0518  0.2505
 5759TIP3    H138768   2.603   1.472   0.350 -0.0444 -0.0885  0.0807
 5759TIP3    H238769   2.656   1.368   0.254  1.0694  0.8361 -0.3290
 5760TIP3   OH238770   2.476   4.923  15.706  0.0771 -0.2090  0.3992
 5760TIP3    H138771   2.439   4.909  15.793 -1.2705  0.3385 -0.0580
 5760TIP3    H238772   2.400   4.921  15.647  0.9733 -0.7572 -0.7932
 5761TIP3   OH238773   2.268   4.303   1.987 -0.0291 -0.1547  0.8389
 5761TIP3    H138774   2.313   4.230   2.032  1.6491  0.6241  0.5195
 5761TIP3    H238775   2.201   4.261   1.934  0.9213 -1.4984  0.6366
 5762TIP3   OH238776   5.612   6.817   6.656  0.1851  0.7480 -0.3726
 5762TIP3    H138777   5.666   6.752   6.611 -0.3063 -1.1166  1.5650
 5762TIP3    H238778   5.666   6.846   6.730 -0.3379  1.0574 -0.1049
 5763TIP3   OH238779   1.698   0.008  16.711  0.1899  0.1262  0.0005
 5763TIP3    H138780   1.671   0.064  16.639 -1.1243  0.6792  0.8805
 5763TIP3    H238781   1.650   0.042  16.787  1.3562 -0.5783  1.0902
 5764TIP3   OH238782   4.227   1.227  17.131 -0.8121 -0.3316  0.2562
 5764TIP3    H138783   4.225   1.321  17.149  0.5723 -0.6315  2.3432
 5764TIP3    H238784   4.255   1.220  17.040 -1.5249  1.2727 -0.1209
 5765TIP3   OH238785   1.456   2.408  17.317 -0.5657  0.0681  0.8203
 5765TIP3    H138786   1.461   2.499  17.344  0.5446  0.7762 -1.5255
 5765TIP3    H238787   1.363   2.385  17.328 -0.5406  0.8565  3.1402
 5766TIP3   OH238788   3.904   0.274  13.669  0.4118  0.3768 -0.0007
 5766TIP3    H138789   3.890   0.324  13.588 -0.0434  2.5253  1.3307
 5766TIP3    H238790   3.825   0.221  13.678  1.1301 -1.1277 -1.7157
 5767TIP3   OH238791   3.766   2.694   3.549 -0.0296 -0.8395 -0.6739
 5767TIP3    H138792   3.807   2.730   3.470  1.3466 -1.2261 -0.1613
 5767TIP3    H238793   3.725   2.770   3.591  2.2243  0.0930  0.0245
 5768TIP3   OH238794   2.578   4.660  15.721  0.6292  0.0476  0.0209
 5768TIP3    H138795   2.560   4.754  15.716  1.9217  0.2419 -1.8545
 5768TIP3    H238796   2.527   4.630  15.796 -0.8282  2.0073 -0.1127
 5769TIP3   OH238797   2.372   3.840  11.275 -0.5552  0.5092 -0.2256
 5769TIP3    H138798   2.405   3.911  11.219 -0.1125  1.2714  0.9706
 5769TIP3    H238799   2.357   3.881  11.360  1.1440 -1.1333  0.9526
 5770TIP3   OH238800   2.971   6.087   4.648  0.1772 -0.0429 -0.0596
 5770TIP3    H138801   3.031   6.031   4.598  2.0715  1.7313  0.0889
 5770TIP3    H238802   2.977   6.056   4.738  1.1965  0.3379  0.0166
 5771TIP3   OH238803   2.009   0.329   4.603 -0.2754  0.1000 -0.5046
 5771TIP3    H138804   2.052   0.331   4.518  1.5102 -0.0793  0.3420
 5771TIP3    H238805   2.042   0.406   4.649 -1.4595  0.3740 -0.0621
 5772TIP3   OH238806   3.371   2.577  16.348 -0.1359 -0.2493  0.2112
 5772TIP3    H138807   3.318   2.644  16.392  0.2910  0.9501 -1.0253
 5772TIP3    H238808   3.434   2.627  16.296  0.6071 -1.6307 -0.2626
 5773TIP3   OH238809   5.967   3.530   4.697 -0.2174  0.2495  0.6635
 5773TIP3    H138810   5.890   3.554   4.748 -0.4718  0.8413  0.0170
 5773TIP3    H238811   6.023   3.483   4.759 -1.7916 -1.6297  0.7580
 5774TIP3   OH238812   6.135   0.488  16.110  0.1724 -0.2527  0.2528
 5774TIP3    H138813   6.046   0.473  16.140 -0.5566  0.0239 -1.6372
 5774TIP3    H238814   6.170   0.553  16.171 -1.0044 -0.1662  0.8617
 5775TIP3   OH238815   5.844   2.311  13.184  0.0236 -0.8362  0.8137
 5775TIP3    H138816   5.845   2.386  13.243  0.1509 -0.7197  0.6628
 5775TIP3    H238817   5.752   2.284  13.181 -0.2808  0.2666 -0.3438
 5776TIP3   OH238818   3.575   2.698  14.117 -0.4825 -0.9158 -0.3933
 5776TIP3    H138819   3.522   2.702  14.197 -0.4375  0.2808 -0.4006
 5776TIP3    H238820   3.603   2.789  14.103  1.1962 -1.4471 -0.6449
 5777TIP3   OH238821   0.194   4.868   5.363  0.4529  0.1467 -0.4746
 5777TIP3    H138822   0.169   4.792   5.415  1.5615  0.8123  1.0887
 5777TIP3    H238823   0.111   4.908   5.338 -0.1147 -0.5782  0.1953
 5778TIP3   OH238824   4.925   2.343  16.069 -0.1093 -0.2463 -0.2207
 5778TIP3    H138825   4.988   2.280  16.105  0.3501  0.1919 -0.2399
 5778TIP3    H238826   4.897   2.304  15.987  0.9356  0.0260 -0.7235
 5779TIP3   OH238827   2.266   1.020   4.296  0.2042 -0.3449  0.1289
 5779TIP3    H138828   2.317   0.940   4.305 -1.8174 -2.0917 -2.5136
 5779TIP3    H238829   2.201   1.001   4.229  0.0249  3.7446 -1.1793
 5780TIP3   OH238830   5.286   3.486   1.708 -0.2019  0.5471  0.0597
 5780TIP3    H138831   5.278   3.495   1.802 -0.4437 -0.3858  0.1358
 5780TIP3    H238832   5.199   3.506   1.673 -0.4704 -0.4352  0.1478
 5781TIP3   OH238833   1.434   2.360  17.017 -0.4895  0.1466  0.1666
 5781TIP3    H138834   1.491   2.353  17.094  2.4050  0.6126 -1.7748
 5781TIP3    H238835   1.433   2.454  16.997  0.4929 -0.1369 -1.4380
 5782TIP3   OH238836   4.996   2.404  12.638  0.7269 -0.2225 -0.2271
 5782TIP3    H138837   4.913   2.364  12.611  1.0268 -0.1936 -1.2382
 5782TIP3    H238838   5.063   2.350  12.596  1.2084  0.0979  0.1199
 5783TIP3   OH238839   0.175   1.951   2.675 -0.2796  0.2766  0.5575
 5783TIP3    H138840   0.232   2.005   2.620  0.7722  0.2853  1.6103
 5783TIP3    H238841   0.087   1.966   2.640  0.3032  0.5731 -0.8607
 5784TIP3   OH238842   5.078   6.680   4.250 -0.2557  0.4960 -0.5099
 5784TIP3    H138843   5.144   6.749   4.243  0.5601  0.1131  2.2391
 5784TIP3    H238844   5.037   6.695   4.335 -0.2788 -2.2107  0.0250
 5785TIP3   OH238845   1.781   0.459   0.410  0.0789 -0.2291  0.6781
 5785TIP3    H138846   1.867   0.477   0.449  1.0324  1.8695 -2.0435
 5785TIP3    H238847   1.724   0.446   0.485  2.2924  0.7784  2.6926
 5786TIP3   OH238848   1.416   0.359   3.491  0.2078  0.4174 -0.1327
 5786TIP3    H138849   1.332   0.394   3.523 -0.8719 -1.1879 -1.0450
 5786TIP3    H238850   1.438   0.289   3.553  0.3979  0.2384 -0.4005
 5787TIP3   OH238851   6.125   5.088  15.697  0.2404 -0.1974 -0.6005
 5787TIP3    H138852   6.202   5.110  15.750 -0.0561  0.7652 -0.5551
 5787TIP3    H238853   6.064   5.048  15.758  1.4001 -2.7935 -0.9740
 5788TIP3   OH238854   2.790   2.026  13.609  0.0014 -0.0100 -0.3815
 5788TIP3    H138855   2.719   2.066  13.659 -0.8083 -1.4188 -0.3376
 5788TIP3    H238856   2.870   2.066  13.642 -0.6384  0.1983  0.9480
 5789TIP3   OH238857   3.692   1.212   0.392  0.0277 -0.2109 -0.3178
 5789TIP3    H138858   3.692   1.123   0.356 -1.5920 -0.2832 -0.2099
 5789TIP3    H238859   3.711   1.268   0.317  1.0405 -0.6370 -0.3897
 5790TIP3   OH238860   5.740   0.891  11.702 -0.4631  0.2146  0.0416
 5790TIP3    H138861   5.812   0.880  11.763  0.0722  1.3301 -0.3642
 5790TIP3    H238862   5.728   0.804  11.663 -0.0790 -0.2369  0.8997
 5791TIP3   OH238863   6.305   6.140  12.084 -0.3048  0.2741 -0.2460
 5791TIP3    H138864   6.372   6.143  12.016  0.5968 -0.4308  0.5717
 5791TIP3    H238865   6.243   6.074  12.054 -0.7054  0.9861 -1.0459
 5792TIP3   OH238866   5.939   0.795  12.779 -0.1258 -0.0567 -0.0643
 5792TIP3    H138867   5.866   0.837  12.826 -0.5474 -0.4110 -0.3908
 5792TIP3    H238868   5.903   0.774  12.693  0.0837 -1.0275  0.0666
 5793TIP3   OH238869   5.365   5.958  11.449 -0.1930  0.0842  0.0380
 5793TIP3    H138870   5.324   5.953  11.363  0.6623 -0.4243 -0.3523
 5793TIP3    H238871   5.368   6.051  11.469  0.2185  0.2593 -0.7945
 5794TIP3   OH238872   3.280   4.106   1.363 -0.1626 -0.3771 -0.2304
 5794TIP3    H138873   3.343   4.152   1.308 -0.1474 -0.1998 -0.0648
 5794TIP3    H238874   3.328   4.029   1.395 -0.4572 -0.9858 -1.2052
 5795TIP3   OH238875   1.219   3.386   4.005 -0.2499  0.1990  0.1875
 5795TIP3    H138876   1.225   3.456   4.070  1.5042  0.3738 -0.1125
 5795TIP3    H238877   1.185   3.429   3.927 -0.4365  0.4217  0.3876
 5796TIP3   OH238878   3.358   4.597   3.876 -0.0519  0.0008  0.3926
 5796TIP3    H138879   3.450   4.594   3.850 -0.5245 -1.0475 -1.2889
 5796TIP3    H238880   3.354   4.541   3.954  0.9739  1.3188  1.4481
 5797TIP3   OH238881   6.777   2.242  11.104  0.1455 -0.2824  0.0610
 5797TIP3    H138882   6.863   2.249  11.063 -0.3764 -0.1093 -1.0449
 5797TIP3    H238883   6.794   2.205  11.191  1.2084 -1.3672 -0.5873
 5798TIP3   OH238884   0.294   1.954   1.952  0.4585 -0.0725 -0.5521
 5798TIP3    H138885   0.244   1.882   1.990 -0.0329  0.1873 -0.7058
 5798TIP3    H238886   0.232   2.027   1.946  1.5521  1.2262  2.0177
 5799TIP3   OH238887   2.484   1.932   0.756  0.1376 -0.1262 -0.3436
 5799TIP3    H138888   2.528   1.949   0.839 -0.0247 -0.6670 -0.1417
 5799TIP3    H238889   2.434   1.852   0.771 -0.1343 -0.0630 -0.8705
 5800TIP3   OH238890   4.485   4.842   2.641  0.0312  0.3460 -0.4048
 5800TIP3    H138891   4.560   4.900   2.629 -0.8413  1.2299 -1.8721
 5800TIP3    H238892   4.436   4.880   2.713 -0.3865  1.3125 -1.1752
 5801TIP3   OH238893   1.971   5.134  16.922  0.1057 -0.3580 -0.2607
 5801TIP3    H138894   2.057   5.169  16.945 -0.8170  0.8000  1.6881
 5801TIP3    H238895   1.954   5.068  16.988 -0.9075  0.1327 -0.0134
 5802TIP3   OH238896   6.452   2.438  12.212  0.2572  0.1128 -0.4023
 5802TIP3    H138897   6.467   2.482  12.296 -0.8287  0.7686 -0.5238
 5802TIP3    H238898   6.357   2.421  12.211  0.5141 -1.4216 -0.7674
 5803TIP3   OH238899   0.541   2.046   4.524  0.2153  1.0689 -0.3380
 5803TIP3    H138900   0.471   2.010   4.470  0.2490  0.7003 -0.1437
 5803TIP3    H238901   0.596   2.095   4.463  0.2717  0.6262 -0.6475
 5804TIP3   OH238902   3.758   1.070  12.086 -0.0195  0.1899 -0.5914
 5804TIP3    H138903   3.812   1.003  12.126  0.9503 -0.0155 -2.1522
 5804TIP3    H238904   3.798   1.153  12.113 -0.2873  0.1016  0.0818
 5805TIP3   OH238905   4.274   0.974  11.524  0.3058 -0.3179  0.2192
 5805TIP3    H138906   4.346   0.957  11.463 -1.9821  0.4388 -2.9620
 5805TIP3    H238907   4.288   1.064  11.554  1.8088 -0.9174  1.4637
 5806TIP3   OH238908   1.087   2.317  10.650  0.1290 -0.0269  0.0411
 5806TIP3    H138909   1.027   2.357  10.713 -1.9747 -0.4685 -1.5610
 5806TIP3    H238910   1.079   2.223  10.665  0.7167 -0.0740  0.0676
 5807TIP3   OH238911   5.242   1.522  11.626  0.0936 -0.5697  0.1828
 5807TIP3    H138912   5.331   1.516  11.661 -0.2311 -1.5918  0.8792
 5807TIP3    H238913   5.240   1.459  11.554  0.0566 -0.2197 -0.1265
 5808TIP3   OH238914   6.275   6.779  14.217  0.0726 -0.5009  0.6152
 5808TIP3    H138915   6.252   6.872  14.214 -1.8432 -0.9484 -0.8117
 5808TIP3    H238916   6.192   6.735  14.236  0.6039 -2.0166 -0.4096
 5809TIP3   OH238917   2.351   4.825   5.183 -0.2103  0.2075  0.3213
 5809TIP3    H138918   2.317   4.799   5.268 -0.1185 -1.6511 -0.1773
 5809TIP3    H238919   2.343   4.747   5.129  4.0740 -0.2197 -0.0457
 5810TIP3   OH238920   0.565   4.847  13.238 -0.5767 -0.5111  0.2017
 5810TIP3    H138921   0.473   4.856  13.215 -0.2802 -0.5985 -1.1003
 5810TIP3    H238922   0.611   4.905  13.177  0.3348 -1.5226 -0.1166
 5811TIP3   OH238923   6.153   2.775  13.452 -0.2675 -0.2612 -0.2914
 5811TIP3    H138924   6.098   2.799  13.526  0.6558  1.0371  0.0068
 5811TIP3    H238925   6.238   2.815  13.470  0.3807 -1.0340 -1.4173
 5812TIP3   OH238926   3.683   3.404  15.469 -0.2898  0.0590 -0.0915
 5812TIP3    H138927   3.641   3.351  15.401  0.4186  1.5321 -1.7578
 5812TIP3    H238928   3.765   3.433  15.429  0.5733  0.2877  1.7313
 5813TIP3   OH238929   1.362   5.574   2.050 -0.3150  0.0126 -0.0100
 5813TIP3    H138930   1.272   5.606   2.059  0.0135  0.8442  0.3213
 5813TIP3    H238931   1.408   5.642   2.002  0.0594 -0.5830 -0.5245
 5814TIP3   OH238932   0.803   1.950  15.371 -0.5493  1.0476  0.4711
 5814TIP3    H138933   0.752   1.872  15.391  0.0082  0.8683  1.2511
 5814TIP3    H238934   0.893   1.926  15.392 -0.6091  2.5464  2.8383
 5815TIP3   OH238935   5.360   3.128  15.096 -0.3116  0.9364  0.3308
 5815TIP3    H138936   5.338   3.070  15.169 -1.3043 -0.5055 -1.0409
 5815TIP3    H238937   5.380   3.212  15.137 -1.9938  0.5060  2.1840
 5816TIP3   OH238938   1.757   1.098  10.656  0.3047 -0.0406  0.1643
 5816TIP3    H138939   1.821   1.165  10.629 -0.1034  0.1868 -0.2550
 5816TIP3    H238940   1.734   1.053  10.576 -0.3385  0.1228  0.2516
 5817TIP3   OH238941   1.197   4.247   0.553 -0.2676 -0.3308 -0.3188
 5817TIP3    H138942   1.177   4.266   0.461 -1.5939 -1.8408 -0.3917
 5817TIP3    H238943   1.126   4.289   0.602  0.9379  1.2604  0.1269
 5818TIP3   OH238944   3.538   2.745   3.151 -0.2929  0.4486 -0.6470
 5818TIP3    H138945   3.547   2.792   3.069  0.1057  1.4962 -0.0228
 5818TIP3    H238946   3.451   2.769   3.183 -0.4343  0.0703 -0.7399
 5819TIP3   OH238947   6.440   0.215  17.252  0.1739  0.1627  0.5145
 5819TIP3    H138948   6.505   0.256  17.310 -0.7237  1.4307  0.6543
 5819TIP3    H238949   6.383   0.167  17.312 -0.1090  0.5754  0.5781
 5820TIP3   OH238950   1.325   5.130  10.945  0.4421 -0.1355  0.5100
 5820TIP3    H138951   1.366   5.202  10.994  0.7401  0.1024 -0.0860
 5820TIP3    H238952   1.260   5.094  11.006  0.9380  0.0374  1.1495
 5821TIP3   OH238953   2.308   5.547   3.885 -0.2009 -0.0418  0.2706
 5821TIP3    H138954   2.277   5.468   3.930  1.2335  0.5378  2.4316
 5821TIP3    H238955   2.393   5.565   3.925  0.9542  0.8739 -2.3416
 5822TIP3   OH238956   3.907   5.939  15.417 -0.2128 -0.0771 -0.2579
 5822TIP3    H138957   3.885   5.888  15.339  1.2259 -0.8287 -0.2021
 5822TIP3    H238958   3.989   5.901  15.449 -1.6421 -1.0027  2.6769
 5823TIP3   OH238959   0.327   6.321   2.049 -0.1482 -0.0357  0.0311
 5823TIP3    H138960   0.283   6.388   1.997 -0.2205  0.8023  1.1470
 5823TIP3    H238961   0.404   6.297   1.997 -0.2458  0.7426 -0.4838
 5824TIP3   OH238962   2.425   4.478   2.912  0.0762  0.0419  0.7052
 5824TIP3    H138963   2.520   4.462   2.914 -0.0562 -0.8818  0.3366
 5824TIP3    H238964   2.409   4.513   2.824  0.1872  1.0815  1.0801
 5825TIP3   OH238965   0.273   6.233  12.420 -0.4038 -0.3767  0.7325
 5825TIP3    H138966   0.228   6.175  12.482 -1.0351 -1.9105 -1.0292
 5825TIP3    H238967   0.257   6.192  12.334  0.3730  1.6634 -0.4548
 5826TIP3   OH238968   2.444   4.832   0.246 -0.0799  0.5043  0.1067
 5826TIP3    H138969   2.474   4.880   0.322  3.9830 -1.1119 -0.2297
 5826TIP3    H238970   2.412   4.749   0.281 -1.0848  0.9241  0.2158
 5827TIP3   OH238971   3.155   6.019   4.205 -0.1584 -0.3465 -0.2304
 5827TIP3    H138972   3.111   5.995   4.124 -0.3650  0.4449 -0.3553
 5827TIP3    H238973   3.192   5.936   4.237  0.9260 -0.4792 -1.7292
 5828TIP3   OH238974   3.280   2.271  13.086 -0.1204  0.4661 -0.0814
 5828TIP3    H138975   3.268   2.185  13.046 -1.0915  0.6006 -0.1019
 5828TIP3    H238976   3.373   2.291  13.073 -0.5540  0.9935 -3.3124
 5829TIP3   OH238977   0.747   5.693   4.175 -0.2778  0.0194 -0.4686
 5829TIP3    H138978   0.682   5.715   4.108 -1.1873 -0.1854  0.3193
 5829TIP3    H238979   0.706   5.622   4.225  0.1548  0.5248  0.6266
 5830TIP3   OH238980   4.373   4.469   5.223  0.0684 -0.5833  0.1461
 5830TIP3    H138981   4.302   4.476   5.159 -2.3448 -2.7220  2.3245
 5830TIP3    H238982   4.453   4.482   5.173 -1.7253 -0.8337 -3.0185
 5831TIP3   OH238983   1.913   0.288  13.700  0.2751  0.3475  0.1310
 5831TIP3    H138984   1.958   0.216  13.656 -1.8099 -1.5656  0.9446
 5831TIP3    H238985   1.821   0.277  13.678 -0.0855  3.0790 -0.0600
 5832TIP3   OH238986   0.849   1.756  12.852  0.0034 -0.7880 -0.2478
 5832TIP3    H138987   0.926   1.768  12.797 -0.5582 -0.6301 -1.0141
 5832TIP3    H238988   0.864   1.672  12.896  0.8849 -0.4650  0.0773
 5833TIP3   OH238989   5.193   1.538   3.706 -0.7331 -0.0177  0.1311
 5833TIP3    H138990   5.215   1.622   3.666 -1.6630  0.4758  0.6263
 5833TIP3    H238991   5.171   1.560   3.797 -0.1080 -0.9189  0.5122
 5834TIP3   OH238992   6.822   5.838  11.067 -0.7615  0.6464 -0.2846
 5834TIP3    H138993   6.821   5.751  11.106 -1.3561  0.2619 -1.1156
 5834TIP3    H238994   6.732   5.870  11.078 -1.6500 -0.4613 -3.3882
 5835TIP3   OH238995   1.048   4.944   4.531  0.1419  0.1465 -0.3093
 5835TIP3    H138996   1.040   5.035   4.558 -2.1208 -0.1637  0.3027
 5835TIP3    H238997   1.098   4.902   4.601 -0.6949  0.5181  0.5435
 5836TIP3   OH238998   6.153   3.216  12.047 -0.1219 -0.2391 -0.0185
 5836TIP3    H138999   6.146   3.311  12.037 -0.2485 -0.2902 -0.4294
 5836TIP3    H239000   6.243   3.196  12.024  0.1007 -0.1404  0.7359
 5837TIP3   OH239001   5.985   4.993  11.583  0.1784 -0.4003  0.1923
 5837TIP3    H139002   6.055   5.054  11.606 -0.3391  0.2775  0.0072
 5837TIP3    H239003   6.027   4.929  11.526  0.0594  1.7643 -2.5459
 5838TIP3   OH239004   5.750   2.646  10.530  0.2925  0.3819  0.0441
 5838TIP3    H139005   5.781   2.601  10.608  2.8039  1.1348 -0.4314
 5838TIP3    H239006   5.707   2.577  10.478 -0.6872 -0.2816  1.6717
 5839TIP3   OH239007   0.324   3.085  13.700 -0.1045 -0.4072  0.9782
 5839TIP3    H139008   0.404   3.134  13.721  0.1509 -0.2248 -0.3258
 5839TIP3    H239009   0.350   2.993  13.703  0.5368 -0.3220 -0.7399
 5840TIP3   OH239010   4.542   2.453   0.181  0.6309  0.1228 -0.0420
 5840TIP3    H139011   4.507   2.504   0.254  1.4724 -0.6347  0.9055
 5840TIP3    H239012   4.629   2.489   0.166  0.7512 -0.2312 -0.1887
 5841TIP3   OH239013   3.896   1.740  16.147  0.4758  0.6612  0.2295
 5841TIP3    H139014   3.979   1.771  16.180  0.0092  1.8014  0.3757
 5841TIP3    H239015   3.834   1.810  16.166 -0.5022 -0.1181  0.0397
 5842TIP3   OH239016   2.385   3.727   4.272 -0.0458  0.3710 -0.0229
 5842TIP3    H139017   2.315   3.663   4.283  0.3802 -0.0583  0.2518
 5842TIP3    H239018   2.465   3.678   4.292  0.4196  0.6003 -1.2753
 5843TIP3   OH239019   3.346   5.265   0.893  0.8106 -0.5904  0.4138
 5843TIP3    H139020   3.349   5.342   0.835  1.3047 -0.4309  0.6464
 5843TIP3    H239021   3.350   5.302   0.981  1.2658 -0.8916  0.5215
 5844TIP3   OH239022   0.239   5.854   0.551  0.5196 -0.3947  0.0145
 5844TIP3    H139023   0.170   5.861   0.618  1.6365 -0.0114  1.1541
 5844TIP3    H239024   0.302   5.793   0.587  0.8531 -0.6701 -0.9883
 5845TIP3   OH239025   1.928   4.765   4.189 -0.8792 -0.6226 -0.1916
 5845TIP3    H139026   1.846   4.813   4.176 -0.5084 -0.0478 -0.4641
 5845TIP3    H239027   1.975   4.815   4.255  0.0490  0.1207 -1.3695
 5846TIP3   OH239028   5.471   4.972  15.904  0.4675  0.3024 -0.6169
 5846TIP3    H139029   5.521   5.049  15.875  2.3556 -0.9637 -0.9279
 5846TIP3    H239030   5.381   4.992  15.881  0.6488  3.0289  0.6508
 5847TIP3   OH239031   5.507   2.778  13.837  0.5326 -0.2697  0.1654
 5847TIP3    H139032   5.479   2.860  13.797  1.6949 -0.1865 -0.5299
 5847TIP3    H239033   5.575   2.804  13.900  1.6517 -0.7719 -0.8021
 5848TIP3   OH239034   2.867   3.070  15.774  0.0672  0.5232 -0.3853
 5848TIP3    H139035   2.809   3.106  15.707  0.2143 -0.1385 -0.8757
 5848TIP3    H239036   2.818   2.996  15.811 -1.6474  3.0241  2.8757
 5849TIP3   OH239037   6.426   3.011  16.774 -0.6536 -0.1333 -0.0637
 5849TIP3    H139038   6.383   3.084  16.729  1.4245  0.0249 -2.0152
 5849TIP3    H239039   6.437   3.041  16.864 -2.1837  0.8564 -0.1696
 5850TIP3   OH239040   5.747   5.374   4.533 -0.5598  0.5516 -0.4793
 5850TIP3    H139041   5.758   5.423   4.614 -2.5922  0.5219 -0.1383
 5850TIP3    H239042   5.799   5.423   4.469  2.1207 -0.1169  1.0158
 5851TIP3   OH239043   6.319   4.703  11.459  0.4956  0.4521  0.6795
 5851TIP3    H139044   6.385   4.670  11.520  0.7510 -1.1985 -0.4196
 5851TIP3    H239045   6.237   4.663  11.489  0.7922 -1.2330 -0.6108
 5852TIP3   OH239046   0.265   1.202  15.183  0.3144 -0.0823  0.2558
 5852TIP3    H139047   0.255   1.242  15.097 -0.4342 -1.0193 -0.1112
 5852TIP3    H239048   0.268   1.276  15.244 -0.7788  0.5595 -0.4343
 5853TIP3   OH239049   4.929   3.158  15.008 -0.5403  0.0483  0.1901
 5853TIP3    H139050   5.009   3.107  14.999 -0.6063 -0.2497  1.1725
 5853TIP3    H239051   4.859   3.098  14.981 -0.5242 -0.0414  0.3461
 5854TIP3   OH239052   4.569   0.689  15.817  0.6552  0.1989  0.2466
 5854TIP3    H139053   4.516   0.688  15.738  1.9513 -1.6591 -0.7040
 5854TIP3    H239054   4.515   0.645  15.883  0.6502 -0.9269 -0.4748
 5855TIP3   OH239055   0.268   2.492   0.101 -0.6541 -0.1459  0.3446
 5855TIP3    H139056   0.361   2.482   0.081 -0.8380 -1.3221  0.0426
 5855TIP3    H239057   0.233   2.544   0.028 -0.7470 -1.9819 -0.9789
 5856TIP3   OH239058   4.774   6.538   3.756 -0.0193  0.0231 -0.1458
 5856TIP3    H139059   4.737   6.463   3.710 -1.5938  0.3167  0.5616
 5856TIP3    H239060   4.784   6.606   3.689 -0.9129 -0.0323 -0.3574
 5857TIP3   OH239061   2.596   5.490   3.136 -0.1356 -0.7964  0.2341
 5857TIP3    H139062   2.519   5.450   3.176  0.5798 -0.3767  2.1341
 5857TIP3    H239063   2.651   5.416   3.111 -1.3140 -1.1150 -1.5632
 5858TIP3   OH239064   4.899   2.360   6.900 -1.3280 -0.0960  0.4091
 5858TIP3    H139065   4.919   2.425   6.833 -0.5967 -0.6274  0.1034
 5858TIP3    H239066   4.849   2.408   6.966  2.7992  1.9679  2.3758
 5859TIP3   OH239067   3.989   3.641   1.207  0.0203 -0.3365 -0.8866
 5859TIP3    H139068   3.910   3.631   1.154 -0.2204 -1.2226 -0.3755
 5859TIP3    H239069   4.044   3.566   1.184 -0.6398 -1.4674  1.0268
 5860TIP3   OH239070   3.919   1.022   1.937  0.6271 -0.1763 -0.2775
 5860TIP3    H139071   3.947   0.931   1.939 -0.4598 -0.5212 -0.6421
 5860TIP3    H239072   3.830   1.021   1.973  1.0238  0.8974  0.8069
 5861TIP3   OH239073   2.804   2.131   1.614 -0.4461  0.1388  0.8881
 5861TIP3    H139074   2.863   2.203   1.640 -0.3510  0.6103 -0.5303
 5861TIP3    H239075   2.717   2.170   1.616 -0.5337 -0.0760  1.3435
 5862TIP3   OH239076   6.705   5.844   4.234 -0.1759  0.7859  0.1602
 5862TIP3    H139077   6.797   5.839   4.210 -0.0134 -0.0818  0.8750
 5862TIP3    H239078   6.679   5.753   4.248 -0.9694  1.0625  0.5891
 5863TIP3   OH239079   2.660   4.486   2.474  0.6421  0.0491  0.1147
 5863TIP3    H139080   2.684   4.568   2.518  1.2864 -0.8767  1.5687
 5863TIP3    H239081   2.645   4.424   2.546 -0.4703 -0.9424 -0.9399
 5864TIP3   OH239082   3.600   1.048   3.600  0.0938  0.2350 -0.0373
 5864TIP3    H139083   3.630   1.003   3.678 -1.6000  3.6169  2.8644
 5864TIP3    H239084   3.516   1.008   3.579  0.5996 -0.7460 -0.2360
 5865TIP3   OH239085   2.760   2.970   3.598  0.3274  0.0744 -0.2003
 5865TIP3    H139086   2.841   2.930   3.631 -0.1808 -0.3344  0.5774
 5865TIP3    H239087   2.738   2.920   3.519  1.3336  0.7986 -0.9745
 5866TIP3   OH239088   0.606   0.247   5.131  0.1451 -0.1131 -0.3716
 5866TIP3    H139089   0.642   0.158   5.137  0.3052  0.0285  0.9145
 5866TIP3    H239090   0.681   0.302   5.109  0.1040 -0.2356 -0.8462
 5867TIP3   OH239091   3.567   1.490  11.887 -0.4311 -0.2266 -0.2013
 5867TIP3    H139092   3.577   1.563  11.825  0.0430 -1.1771 -1.2747
 5867TIP3    H239093   3.619   1.419  11.849  0.8446 -0.4910  1.8715
 5868TIP3   OH239094   4.874   0.857   4.084 -0.2638  0.1799  0.1346
 5868TIP3    H139095   4.817   0.795   4.040  0.8226  0.4029 -1.6927
 5868TIP3    H239096   4.820   0.935   4.096 -1.4633 -0.8681  1.9520
 5869TIP3   OH239097   6.546   4.133  12.297 -0.1231 -0.0324 -0.0754
 5869TIP3    H139098   6.604   4.072  12.342  0.2415 -0.1643 -0.7019
 5869TIP3    H239099   6.486   4.163  12.364  0.7304  0.1775  0.6136
 5870TIP3   OH239100   6.639   6.276  10.719  0.8308  0.0389  0.1841
 5870TIP3    H139101   6.732   6.256  10.711  0.7027 -0.7570  0.5602
 5870TIP3    H239102   6.600   6.237  10.640  0.7366 -0.1729  0.3345
 5871TIP3   OH239103   3.476   0.374  13.434  0.3456  0.1974  0.0127
 5871TIP3    H139104   3.515   0.452  13.473 -1.7951  0.5680  1.6257
 5871TIP3    H239105   3.396   0.406  13.392 -1.4133 -1.2417  2.0355
 5872TIP3   OH239106   4.006   4.651   3.304 -0.0285  0.8627 -0.1974
 5872TIP3    H139107   4.057   4.725   3.339 -2.0307  2.3146 -0.2081
 5872TIP3    H239108   3.920   4.660   3.344 -0.3411 -1.5429 -0.1652
 5873TIP3   OH239109   5.208   2.967  10.735 -0.6594 -0.0372 -0.0668
 5873TIP3    H139110   5.123   2.948  10.695 -1.5435  1.9308  0.7295
 5873TIP3    H239111   5.247   3.033  10.678 -1.0562  1.3218  1.1776
 5874TIP3   OH239112   1.327   5.274   0.967  0.5936  0.4355  0.3120
 5874TIP3    H139113   1.331   5.291   1.061 -1.8942  1.3195  0.3447
 5874TIP3    H239114   1.267   5.200   0.958 -0.9514  1.7312 -0.6260
 5875TIP3   OH239115   6.272   4.419  15.086 -0.1131 -0.5724 -0.5834
 5875TIP3    H139116   6.255   4.456  14.999 -0.0133  1.0339  0.0621
 5875TIP3    H239117   6.345   4.358  15.071 -0.1933 -0.4375 -1.6518
 5876TIP3   OH239118   2.608   5.879   0.817 -0.2011  0.0711 -0.1087
 5876TIP3    H139119   2.535   5.830   0.780  1.2874 -1.0464 -1.7296
 5876TIP3    H239120   2.606   5.963   0.773  0.0812 -0.3335 -0.9031
 5877TIP3   OH239121   2.162   1.730   4.368  0.1497 -0.1261  0.0923
 5877TIP3    H139122   2.257   1.721   4.368  0.3209  1.2465 -1.6059
 5877TIP3    H239123   2.133   1.696   4.284 -0.7972  0.0552  0.3239
 5878TIP3   OH239124   1.050   2.351   6.450 -0.4045  0.0859  0.4987
 5878TIP3    H139125   1.128   2.406   6.457  1.1446 -2.0083  0.8181
 5878TIP3    H239126   0.987   2.391   6.510  0.6950  1.3977  0.8371
 5879TIP3   OH239127   3.445   1.295   0.831  0.1277  0.0234 -0.5946
 5879TIP3    H139128   3.536   1.320   0.811  0.5832 -1.0059  0.0932
 5879TIP3    H239129   3.454   1.221   0.891 -1.1840  0.7211  0.4845
 5880TIP3   OH239130   5.196   5.171  15.385  0.0268  0.1689  0.6016
 5880TIP3    H139131   5.233   5.097  15.434 -0.5967 -0.0868  0.6982
 5880TIP3    H239132   5.260   5.188  15.316  0.2027 -0.4410  0.6026
 5881TIP3   OH239133   5.673   1.775   1.169  0.0082  0.0290 -0.5193
 5881TIP3    H139134   5.601   1.794   1.229  0.0868  1.5271 -0.8522
 5881TIP3    H239135   5.752   1.796   1.219  0.1773 -0.8476 -0.4164
 5882TIP3   OH239136   0.897   2.840   5.822  0.2494  0.1333  0.0060
 5882TIP3    H139137   0.973   2.837   5.880  0.6949  2.3227 -0.3825
 5882TIP3    H239138   0.899   2.755   5.777  1.1880 -0.7127  1.5426
 5883TIP3   OH239139   4.675   1.019   5.005  0.2424  0.2662  0.0665
 5883TIP3    H139140   4.713   1.076   4.938  0.0173  1.5685  0.9956
 5883TIP3    H239141   4.716   1.048   5.087 -0.6594 -0.2033  0.7019
 5884TIP3   OH239142   2.135   6.008   4.085  0.4087 -0.5766  0.4619
 5884TIP3    H139143   2.079   5.956   4.143  1.2275 -2.4149 -0.3096
 5884TIP3    H239144   2.222   6.004   4.125  1.5668 -3.9428 -1.9376
 5885TIP3   OH239145   2.658   0.223   2.761  0.0092  0.0693  0.1134
 5885TIP3    H139146   2.577   0.239   2.713 -0.1051 -0.2439  0.1969
 5885TIP3    H239147   2.727   0.260   2.705 -0.1008 -0.4905 -0.4013
 5886TIP3   OH239148   6.077   0.064   4.965 -0.1736  0.4488 -0.1218
 5886TIP3    H139149   6.030  -0.013   4.997  1.4575 -0.1447  0.9637
 5886TIP3    H239150   6.072   0.127   5.036 -2.5954  1.9507 -1.4667
 5887TIP3   OH239151   3.755   1.491  12.128  0.1504  0.3965 -0.3019
 5887TIP3    H139152   3.691   1.444  12.181  0.8900 -0.7415 -0.3936
 5887TIP3    H239153   3.704   1.525  12.054 -0.2260 -1.1362 -0.7772
 5888TIP3   OH239154   0.742   1.892   2.470 -0.1657  0.2904  0.5091
 5888TIP3    H139155   0.674   1.957   2.454 -0.3588 -0.2618 -1.0064
 5888TIP3    H239156   0.817   1.922   2.419 -0.4840 -1.0174 -0.7977
 5889TIP3   OH239157   2.957   4.872  14.675  0.1090 -0.7833 -0.3555
 5889TIP3    H139158   2.871   4.895  14.639  1.1415  1.1168 -1.7825
 5889TIP3    H239159   2.993   4.810  14.611  0.5365 -0.1045 -0.7886
 5890TIP3   OH239160   3.084   4.538   0.621 -0.5301  0.1037 -0.2896
 5890TIP3    H139161   3.069   4.632   0.626  2.0966  0.5342  2.4264
 5890TIP3    H239162   3.026   4.502   0.689  0.5032  0.1530  0.6462
 5891TIP3   OH239163   6.795   4.670  11.979  0.1516 -0.3884  0.5450
 5891TIP3    H139164   6.708   4.638  11.957  0.5935 -0.9689 -0.4229
 5891TIP3    H239165   6.803   4.754  11.935 -0.0071 -0.2159  0.8417
 5892TIP3   OH239166   0.196   2.394  11.782  0.5084 -0.6135 -0.6970
 5892TIP3    H139167   0.250   2.316  11.793  1.6139  0.2154 -0.0665
 5892TIP3    H239168   0.108   2.366  11.808  1.0633 -1.4166  0.4015
 5893TIP3   OH239169   2.559   4.243  15.950  0.0559  0.0064  0.3147
 5893TIP3    H139170   2.633   4.295  15.984  0.5280 -0.5289  0.1143
 5893TIP3    H239171   2.525   4.198  16.027  1.9406 -2.2260 -0.0647
 5894TIP3   OH239172   5.562   0.174   5.286  0.4155 -0.1199  0.1427
 5894TIP3    H139173   5.489   0.165   5.346  0.1157  0.4654 -0.1239
 5894TIP3    H239174   5.625   0.229   5.333 -0.3412  1.3728 -0.5176
 5895TIP3   OH239175   4.232   0.969   1.893  0.4980  0.8832 -0.2216
 5895TIP3    H139176   4.158   0.909   1.890  1.0318  0.1590  0.4398
 5895TIP3    H239177   4.283   0.948   1.815  0.6995  0.4376  0.0230
 5896TIP3   OH239178   5.348   3.209  16.096  0.0421  0.0083 -0.3398
 5896TIP3    H139179   5.342   3.284  16.155 -0.9660 -0.7933  0.5856
 5896TIP3    H239180   5.277   3.151  16.122  0.9885 -1.4277 -0.8364
 5897TIP3   OH239181   5.835   0.822   3.616  0.1190 -0.3087  0.0920
 5897TIP3    H139182   5.827   0.916   3.597 -1.3575 -0.3382  0.4546
 5897TIP3    H239183   5.745   0.789   3.611  0.8147 -2.1167 -1.9997
 5898TIP3   OH239184   1.762   1.762  15.271  0.2029 -0.3678 -0.2989
 5898TIP3    H139185   1.756   1.710  15.351  1.5285 -0.8676 -0.4977
 5898TIP3    H239186   1.841   1.815  15.283 -0.5755  0.8773 -0.5280
 5899TIP3   OH239187   3.498   3.005   5.948  0.3172 -0.0494 -0.2378
 5899TIP3    H139188   3.440   3.073   5.983  0.0591  0.2391 -1.1883
 5899TIP3    H239189   3.456   2.922   5.972 -1.1564  0.1466 -1.9031
 5900TIP3   OH239190   6.336   3.547   0.906  0.3407  0.3945 -0.1697
 5900TIP3    H139191   6.311   3.545   0.999  0.9405  1.6768  0.0421
 5900TIP3    H239192   6.346   3.455   0.882 -0.9258 -0.0035  0.7228
 5901TIP3   OH239193   6.281   5.703  11.421  0.3604  0.4958 -0.0249
 5901TIP3    H139194   6.334   5.646  11.366 -2.6084 -1.2839 -1.2969
 5901TIP3    H239195   6.343   5.742  11.483  3.0974 -1.2017 -1.5192
 5902TIP3   OH239196   0.805   6.350   2.064  0.0677 -0.4354 -0.1304
 5902TIP3    H139197   0.850   6.295   2.000 -0.2658 -1.2309  0.2982
 5902TIP3    H239198   0.872   6.372   2.128  0.1104 -0.6889 -0.0856
 5903TIP3   OH239199   2.674   1.115   4.605  0.5026 -1.0685  0.9179
 5903TIP3    H139200   2.614   1.144   4.674  1.1824  0.5054  0.8727
 5903TIP3    H239201   2.669   1.183   4.538  3.5274  0.0124  1.6223
 5904TIP3   OH239202   0.778   2.369  11.288 -0.2643 -0.3142  0.3827
 5904TIP3    H139203   0.757   2.381  11.196  1.8636 -0.3353 -0.1614
 5904TIP3    H239204   0.759   2.276  11.305 -1.7658 -0.0343  0.3073
 5905TIP3   OH239205   6.200   5.119  13.800  0.0624 -0.5430 -0.3187
 5905TIP3    H139206   6.263   5.070  13.746  0.0131 -0.5063 -0.4114
 5905TIP3    H239207   6.130   5.056  13.817  1.4047 -1.5133  2.1656
 5906TIP3   OH239208   6.180   6.019  15.036  0.7384 -0.4204 -0.0855
 5906TIP3    H139209   6.264   6.065  15.035 -0.2977  1.6120 -0.9511
 5906TIP3    H239210   6.136   6.052  15.114  0.6283 -1.2380  0.1992
 5907TIP3   OH239211   5.150   2.452  11.783 -0.1253  0.2332 -0.3375
 5907TIP3    H139212   5.153   2.358  11.763 -0.3810  0.4455 -1.3931
 5907TIP3    H239213   5.218   2.464  11.849 -0.7147 -0.8537  0.5007
 5908TIP3   OH239214   2.547   5.390   1.352  0.1401  0.0633  0.3404
 5908TIP3    H139215   2.463   5.428   1.326  0.4270  0.5762  0.1642
 5908TIP3    H239216   2.534   5.366   1.444 -0.3636 -0.3262  0.1735
 5909TIP3   OH239217   6.044   4.236  13.276 -0.1099  0.3388  0.0977
 5909TIP3    H139218   6.123   4.276  13.240 -0.9943 -0.1036 -2.4798
 5909TIP3    H239219   6.056   4.142  13.264  0.5131 -0.1050  3.1503
 5910TIP3   OH239220   6.586   2.973   4.705 -0.3558 -0.4237  0.0352
 5910TIP3    H139221   6.590   3.069   4.705  0.8966 -0.4695  0.1570
 5910TIP3    H239222   6.587   2.950   4.612  2.3442 -0.3925 -0.0187
 5911TIP3   OH239223   1.364   5.538  12.162 -0.7440  0.3656 -0.1703
 5911TIP3    H139224   1.385   5.582  12.245 -0.2411  0.3336 -0.2801
 5911TIP3    H239225   1.284   5.582  12.133 -0.0257  1.5189 -0.4852
 5912TIP3   OH239226   6.516   0.434   2.846  0.4875 -0.0536  0.4080
 5912TIP3    H139227   6.595   0.470   2.805  1.1530 -0.6862  1.1047
 5912TIP3    H239228   6.519   0.467   2.936 -2.0088  3.0131 -0.4426
 5913TIP3   OH239229   3.582   3.514   1.298  0.3504 -0.3387 -0.7422
 5913TIP3    H139230   3.551   3.575   1.366  1.1033 -0.8661  0.1044
 5913TIP3    H239231   3.638   3.452   1.346  1.3460 -0.3953 -1.9414
 5914TIP3   OH239232   6.774   0.983  12.376  0.4176  0.5391 -0.0760
 5914TIP3    H139233   6.715   1.031  12.435  1.6634 -0.0386  1.7109
 5914TIP3    H239234   6.728   0.901  12.359 -0.2707  1.0029 -0.5201
 5915TIP3   OH239235   1.103   5.977   4.721  0.1480  0.2333 -0.4472
 5915TIP3    H139236   1.186   5.986   4.768 -0.7657  0.8849  1.0823
 5915TIP3    H239237   1.045   5.933   4.783 -0.6271 -0.3751 -1.5646
 5916TIP3   OH239238   2.259   6.537  12.956 -0.2826  0.4250  0.2443
 5916TIP3    H139239   2.197   6.608  12.966 -0.7256 -0.0286  0.8103
 5916TIP3    H239240   2.206   6.457  12.958  0.2612  0.0505  0.2324
 5917TIP3   OH239241   4.068   3.416   1.030  0.4388  0.1194 -0.2000
 5917TIP3    H139242   4.131   3.356   1.071  0.8200  0.5325 -0.1642
 5917TIP3    H239243   4.122   3.474   0.976  0.1013  0.5493 -0.0855
 5918TIP3   OH239244   5.697   1.775   3.312  0.0177 -0.6120 -0.2809
 5918TIP3    H139245   5.733   1.711   3.250  0.6289 -0.0102 -0.5626
 5918TIP3    H239246   5.605   1.785   3.286 -0.7615 -3.0889  1.2112
 5919TIP3   OH239247   6.752   3.680  16.653  0.2435 -0.2856  0.1760
 5919TIP3    H139248   6.789   3.599  16.616 -0.5049 -0.5782  0.0476
 5919TIP3    H239249   6.697   3.714  16.583  1.5715  1.0484 -0.2611
 5920TIP3   OH239250   4.851   0.024   2.496 -0.0027  0.2075 -0.1347
 5920TIP3    H139251   4.756   0.031   2.491 -0.0182  0.2349  0.1828
 5920TIP3    H239252   4.880   0.020   2.405 -0.2148  1.4323 -0.2791
 5921TIP3   OH239253   4.026   1.786  17.247  0.1790  0.0259  0.5016
 5921TIP3    H139254   4.001   1.722  17.313  2.6291  0.6978  2.2390
 5921TIP3    H239255   4.047   1.865  17.296 -0.5149  1.4554 -1.3723
 5922TIP3   OH239256   4.646   4.110  13.947 -0.0800 -0.2339 -0.3841
 5922TIP3    H139257   4.704   4.125  13.873 -1.1423 -0.5852 -1.3189
 5922TIP3    H239258   4.687   4.038  13.996  0.7329  0.1406 -0.5036
 5923TIP3   OH239259   1.290   2.730  15.872  0.4098 -0.3513 -0.0676
 5923TIP3    H139260   1.273   2.638  15.850  1.8315 -0.2828 -1.6924
 5923TIP3    H239261   1.221   2.779  15.827 -0.9265 -0.6567  1.5967
 5924TIP3   OH239262   0.101   6.508   2.956  0.5158 -0.0611 -0.7352
 5924TIP3    H139263   0.166   6.498   3.025  0.7289  2.7877 -0.4039
 5924TIP3    H239264   0.119   6.436   2.895  2.8856 -0.3315  0.1781
 5925TIP3   OH239265   4.754   4.245   3.651 -0.0694 -0.5937  0.0033
 5925TIP3    H139266   4.661   4.270   3.644 -0.4291 -1.5251  1.0679
 5925TIP3    H239267   4.799   4.301   3.588 -1.0794  1.2912  0.8787
 5926TIP3   OH239268   0.042   4.900  11.835 -0.1879 -0.0890  0.1357
 5926TIP3    H139269   0.074   4.972  11.890 -0.1598  0.4867 -0.6145
 5926TIP3    H239270  -0.004   4.943  11.763 -1.0174 -0.8557  0.1940
 5927TIP3   OH239271   6.701   5.718   1.466 -0.0281 -0.0737 -0.2188
 5927TIP3    H139272   6.699   5.622   1.465 -0.5306 -0.0800 -1.8019
 5927TIP3    H239273   6.745   5.740   1.548 -1.1819 -1.6179  0.8771
 5928TIP3   OH239274   2.732   2.109   0.772 -0.2848  0.1731  0.2136
 5928TIP3    H139275   2.697   2.175   0.833 -1.0758 -1.3762  1.5350
 5928TIP3    H239276   2.668   2.107   0.701  0.0014  1.1552 -0.0834
 5929TIP3   OH239277   2.296   5.912   2.220  0.0810  0.3121 -0.4342
 5929TIP3    H139278   2.222   5.970   2.205 -0.9405 -1.0089 -0.6046
 5929TIP3    H239279   2.304   5.908   2.316 -0.4910 -0.0840 -0.4058
 5930TIP3   OH239280   6.144   3.481  12.018  0.1368  0.2873  0.4391
 5930TIP3    H139281   6.137   3.553  12.082  0.5350  1.3212 -0.6469
 5930TIP3    H239282   6.171   3.524  11.937  1.7173 -1.2770  0.0873
 5931TIP3   OH239283   0.097   4.540  12.564 -0.2447 -0.2651 -0.5367
 5931TIP3    H139284   0.121   4.496  12.645 -0.6434 -0.0001 -0.2726
 5931TIP3    H239285   0.179   4.576  12.531  0.0161 -0.8569 -0.5493
 5932TIP3   OH239286   3.943   3.893  12.196  0.4493 -0.2103  0.8820
 5932TIP3    H139287   3.867   3.907  12.139 -0.0779  0.3855  1.7191
 5932TIP3    H239288   3.925   3.810  12.240  0.6750 -0.4745  0.4901
 5933TIP3   OH239289   6.820   1.356  13.731  0.3161 -0.1470  0.0242
 5933TIP3    H139290   6.798   1.340  13.639 -1.0123  2.0704 -0.0899
 5933TIP3    H239291   6.739   1.385  13.771  1.3008  0.7140  1.4846
 5934TIP3   OH239292   5.771   2.317  11.833 -0.2616 -0.1688  0.2192
 5934TIP3    H139293   5.778   2.311  11.928 -0.3677  0.4528  0.2725
 5934TIP3    H239294   5.798   2.231  11.801  0.0261 -0.2976  0.7966
 5935TIP3   OH239295   2.077   2.910  17.026  0.2044  0.5204  0.2451
 5935TIP3    H139296   2.151   2.864  16.986  0.9213  0.1527  1.8963
 5935TIP3    H239297   2.029   2.948  16.952  1.2632 -0.3942 -0.9525
 5936TIP3   OH239298   4.468   0.608   3.535 -0.2286  0.4927  0.5710
 5936TIP3    H139299   4.463   0.649   3.621  1.8334  0.3298  0.8210
 5936TIP3    H239300   4.437   0.518   3.549  0.4175  0.3674  1.2168
 5937TIP3   OH239301   4.741   2.444   3.404 -0.0440 -0.2064 -0.0610
 5937TIP3    H139302   4.790   2.376   3.451  0.2832 -0.0445 -0.1612
 5937TIP3    H239303   4.656   2.448   3.448  0.1617 -0.2400  0.3449
 5938TIP3   OH239304   0.692   1.496  14.373  0.6795  0.0951 -0.0075
 5938TIP3    H139305   0.660   1.461  14.290  1.2854 -0.1233 -0.1601
 5938TIP3    H239306   0.716   1.587  14.353 -0.7026  0.5523  0.3379
 5939TIP3   OH239307   2.352   2.239  13.828  0.1221  0.2473 -0.4760
 5939TIP3    H139308   2.439   2.213  13.796 -0.2542  0.4819 -1.7694
 5939TIP3    H239309   2.363   2.328  13.859  0.2679  0.4161 -1.0013
 5940TIP3   OH239310   6.446   0.509   4.613 -0.4621 -0.4094  0.1668
 5940TIP3    H139311   6.480   0.508   4.703  1.5509  1.1615 -0.4877
 5940TIP3    H239312   6.524   0.508   4.558 -1.6305 -0.6643 -1.5640
 5941TIP3   OH239313   6.389   3.876   4.315 -0.4972  0.0258  0.3668
 5941TIP3    H139314   6.409   3.950   4.372  3.2350  0.0115 -0.6936
 5941TIP3    H239315   6.370   3.916   4.230 -1.2065 -0.1686  0.4239
 5942TIP3   OH239316   0.894   0.851   2.057  0.5101 -0.4003  0.0231
 5942TIP3    H139317   0.924   0.890   1.974 -0.1530  0.0048 -0.0350
 5942TIP3    H239318   0.841   0.920   2.097 -0.4025 -1.1322  0.0772
 5943TIP3   OH239319   0.121   6.099  15.953 -0.6590  0.0610 -0.0224
 5943TIP3    H139320   0.083   6.147  16.026 -0.8327 -1.9794  1.3073
 5943TIP3    H239321   0.188   6.043  15.993  1.4007  1.0657 -1.8546
 5944TIP3   OH239322   2.646   5.109  15.394  0.4504 -0.1681 -0.0382
 5944TIP3    H139323   2.672   5.021  15.418  0.0349 -0.1849  0.3570
 5944TIP3    H239324   2.660   5.113  15.299 -0.6445 -1.0538 -0.2633
 5945TIP3   OH239325   4.945   1.158  17.253 -0.1819 -0.2578 -0.4723
 5945TIP3    H139326   4.978   1.122  17.170  0.6247 -0.0968 -0.2271
 5945TIP3    H239327   4.926   1.250  17.233 -1.6456 -0.6334 -0.9328
 5946TIP3   OH239328   3.852   6.086   4.032  0.2158 -0.2133  0.3002
 5946TIP3    H139329   3.903   6.008   4.052  1.5894  0.5995  0.1000
 5946TIP3    H239330   3.764   6.054   4.016  0.5728 -1.6268  1.0071
 5947TIP3   OH239331   4.697   0.123   3.131 -0.2463 -0.0994  0.0134
 5947TIP3    H139332   4.750   0.046   3.153 -0.8115 -0.7979 -1.0149
 5947TIP3    H239333   4.607   0.096   3.148 -0.5430 -0.0415 -1.4060
 5948TIP3   OH239334   4.314   0.208   5.091 -0.5768 -0.4004  0.3763
 5948TIP3    H139335   4.339   0.178   5.004  1.1722 -0.1485  0.7503
 5948TIP3    H239336   4.249   0.144   5.121 -0.8118 -0.7830 -0.8851
 5949TIP3   OH239337   4.907   6.787  15.823 -0.2634 -0.1556  0.3344
 5949TIP3    H139338   4.974   6.839  15.779 -0.0416  1.3947  2.3725
 5949TIP3    H239339   4.881   6.722  15.758  0.7320  1.3757 -1.7059
 5950TIP3   OH239340   6.740   1.989  11.940  0.1693  0.5093 -0.0951
 5950TIP3    H139341   6.716   2.072  11.981 -2.1083 -0.3238  0.3898
 5950TIP3    H239342   6.705   1.995  11.852 -0.5223 -0.1469  0.1288
 5951TIP3   OH239343   1.848   1.499  13.022  0.5261  0.5829  0.0602
 5951TIP3    H139344   1.789   1.455  13.082  0.6115  0.0151 -0.2641
 5951TIP3    H239345   1.791   1.555  12.969  0.2765  0.0812 -0.2130
 5952TIP3   OH239346   5.969   4.029  14.834  0.0554  0.0762  0.5527
 5952TIP3    H139347   6.052   4.008  14.877 -0.3239 -1.0769  0.7314
 5952TIP3    H239348   5.953   3.955  14.775 -1.7736 -0.6481  1.8842
 5953TIP3   OH239349   2.632   1.184   5.558  0.0293  0.3924  0.1939
 5953TIP3    H139350   2.541   1.210   5.552  0.2389  0.9758 -0.6240
 5953TIP3    H239351   2.633   1.092   5.531 -0.2516  0.5306 -0.2988
 5954TIP3   OH239352   2.577   2.893   0.377  0.0853 -0.1119 -0.4020
 5954TIP3    H139353   2.517   2.920   0.446 -0.6443 -0.8790 -0.7192
 5954TIP3    H239354   2.664   2.905   0.414 -0.2223  1.7666 -0.2092
 5955TIP3   OH239355   5.197   6.111   2.614  0.1955 -0.1745 -0.1737
 5955TIP3    H139356   5.138   6.186   2.611  0.6819  0.2216  0.0323
 5955TIP3    H239357   5.258   6.131   2.685  0.1710 -0.8864  0.0626
 5956TIP3   OH239358   1.060   4.172   0.902 -0.3007 -0.2156  0.0423
 5956TIP3    H139359   1.020   4.230   0.837 -1.9151 -1.2000  0.1034
 5956TIP3    H239360   1.028   4.085   0.879 -0.4109 -0.6673  1.7698
 5957TIP3   OH239361   5.746   6.283   1.300 -0.5423  0.1178 -0.3910
 5957TIP3    H139362   5.780   6.347   1.237 -0.1927  0.8820  0.5500
 5957TIP3    H239363   5.823   6.236   1.330 -0.4693  0.9083  0.7100
 5958TIP3   OH239364   2.181   2.539  11.353  0.0774  0.3830 -0.0919
 5958TIP3    H139365   2.188   2.591  11.273  0.7871  1.5852  0.7134
 5958TIP3    H239366   2.253   2.571  11.408  0.3031 -1.2199  0.5826
 5959TIP3   OH239367   1.808   3.781  14.550 -0.0484  0.5806  0.1740
 5959TIP3    H139368   1.833   3.779  14.642 -1.4680 -0.6585  0.5726
 5959TIP3    H239369   1.730   3.727  14.545  0.2300  0.2798 -1.8442
 5960TIP3   OH239370   6.321   1.252   2.718  0.2194  0.2355  0.4787
 5960TIP3    H139371   6.395   1.216   2.767 -0.3290 -0.7831  0.5916
 5960TIP3    H239372   6.279   1.175   2.679  0.8397  1.0265 -1.9303
 5961TIP3   OH239373   4.087   1.917   2.972  0.1723  0.5200 -0.0874
 5961TIP3    H139374   4.055   1.874   3.051 -0.3959  0.0582 -0.5646
 5961TIP3    H239375   4.163   1.866   2.945  1.1737  1.4385  0.8741
 5962TIP3   OH239376   5.919   0.391  13.134  0.7636 -0.3619  0.0452
 5962TIP3    H139377   5.967   0.430  13.060 -0.8936 -1.0789 -1.4882
 5962TIP3    H239378   5.842   0.351  13.094  0.7847 -2.5151  1.9438
 5963TIP3   OH239379   6.539   0.213   5.852 -0.0434 -0.3809 -0.1982
 5963TIP3    H139380   6.537   0.208   5.947  0.8031  3.0087  0.1001
 5963TIP3    H239381   6.449   0.199   5.825 -0.2997 -1.3605  1.0711
 5964TIP3   OH239382   4.186   0.291  14.150 -0.1378 -0.0444 -0.3606
 5964TIP3    H139383   4.180   0.206  14.194 -1.1949  0.4669  0.5323
 5964TIP3    H239384   4.128   0.348  14.200  0.5416  1.2137 -0.9503
 5965TIP3   OH239385   1.013   6.795  14.062  0.4933 -0.0543  0.3774
 5965TIP3    H139386   0.936   6.812  14.117  0.8863  1.5253  0.5010
 5965TIP3    H239387   1.087   6.800  14.122  0.9512  1.9915 -0.2899
 5966TIP3   OH239388   3.416   3.836  11.788 -0.4001  0.0674  0.4324
 5966TIP3    H139389   3.463   3.912  11.754 -0.0235 -1.1116 -1.8974
 5966TIP3    H239390   3.329   3.868  11.808 -0.3903  1.0210 -0.9803
 5967TIP3   OH239391   1.233   5.589   4.921 -0.0108 -0.2434 -0.1825
 5967TIP3    H139392   1.315   5.622   4.886  0.7908  0.1159  1.8905
 5967TIP3    H239393   1.244   5.591   5.016 -1.5196 -2.4791  0.1452
 5968TIP3   OH239394   0.674   4.608  16.371 -0.0372  0.6185 -0.3190
 5968TIP3    H139395   0.746   4.545  16.369 -1.6757 -1.3240 -0.2828
 5968TIP3    H239396   0.708   4.684  16.323  1.3772 -0.9631 -1.9776
 5969TIP3   OH239397   1.978   4.147   3.381 -0.3575 -0.1991  0.3390
 5969TIP3    H139398   1.949   4.191   3.461 -0.9192  1.6412 -0.8094
 5969TIP3    H239399   1.898   4.137   3.329  0.1671 -0.3288 -0.4661
 5970TIP3   OH239400   2.422   6.715  14.566  0.0474 -0.4945  0.2083
 5970TIP3    H139401   2.454   6.625  14.571 -0.7989 -0.7727  0.7331
 5970TIP3    H239402   2.381   6.732  14.650  0.1362  0.3692  0.0971
 5971TIP3   OH239403   5.882   5.754  14.497  0.4612  0.1204 -0.2503
 5971TIP3    H139404   5.968   5.762  14.456  0.9639 -0.8034  0.6012
 5971TIP3    H239405   5.895   5.787  14.586  0.5229 -2.1182  0.6226
 5972TIP3   OH239406   5.898   1.188   2.844 -0.1218  0.8674 -0.2483
 5972TIP3    H139407   5.898   1.196   2.748  1.4727 -0.8322 -0.4266
 5972TIP3    H239408   5.984   1.219   2.871  0.3891 -1.0078  0.3823
 5973TIP3   OH239409   2.931   1.222  11.363 -0.0119  0.0341  0.2057
 5973TIP3    H139410   2.991   1.218  11.290 -0.3143  1.4206 -0.1405
 5973TIP3    H239411   2.979   1.268  11.432 -0.3626  0.3600  0.2364
 5974TIP3   OH239412   4.374   1.706   5.965 -0.3948 -0.4986 -0.1307
 5974TIP3    H139413   4.392   1.649   5.890 -1.2672 -0.8426 -0.0958
 5974TIP3    H239414   4.284   1.736   5.951 -0.7952 -1.0598  1.0774
 5975TIP3   OH239415   6.272   6.700  16.216  0.2770  0.0284  0.0969
 5975TIP3    H139416   6.350   6.720  16.268  0.4328 -0.6354  0.1245
 5975TIP3    H239417   6.234   6.623  16.259 -2.1264  2.0478  1.9930
 5976TIP3   OH239418   4.408   4.192   5.047 -0.2085 -0.3405 -0.5313
 5976TIP3    H139419   4.443   4.106   5.073 -0.6003 -0.8036 -1.4663
 5976TIP3    H239420   4.330   4.203   5.101  1.2175  0.6146  1.4303
 5977TIP3   OH239421   1.151   4.309   3.152 -0.0122  0.1868  0.1550
 5977TIP3    H139422   1.243   4.303   3.177  0.1519  2.0631  0.0960
 5977TIP3    H239423   1.111   4.232   3.192  2.1806 -2.8950 -2.9386
 5978TIP3   OH239424   3.306   3.967   0.280 -0.5045 -0.1070 -0.2491
 5978TIP3    H139425   3.367   3.978   0.207 -1.2419  1.5423 -0.6589
 5978TIP3    H239426   3.358   3.982   0.358 -0.2625  0.7253 -0.5687
 5979TIP3   OH239427   1.518   5.601  16.505  0.5425 -0.2761  0.1024
 5979TIP3    H139428   1.593   5.588  16.565 -0.1138  2.1384  1.6029
 5979TIP3    H239429   1.517   5.695  16.489 -1.0724 -0.5126 -1.4445
 5980TIP3   OH239430   3.355   4.967   3.120 -0.0282 -0.1038  0.9944
 5980TIP3    H139431   3.385   4.879   3.143 -0.3148 -0.1639  1.1393
 5980TIP3    H239432   3.426   5.003   3.068  0.1614 -0.3628  1.0693
 5981TIP3   OH239433   2.086   6.304  11.337 -0.0601  0.4125 -0.4254
 5981TIP3    H139434   2.037   6.222  11.340 -2.3347  1.7258  1.6532
 5981TIP3    H239435   2.166   6.286  11.386 -0.4543 -0.5822 -0.1311
 5982TIP3   OH239436   3.318   0.193  13.594 -1.1481 -0.2697 -0.6024
 5982TIP3    H139437   3.395   0.215  13.541 -0.2701 -1.5646  0.0530
 5982TIP3    H239438   3.325   0.249  13.671  0.4051 -1.8138  0.4866
 5983TIP3   OH239439   5.203   1.231   0.535  0.4526 -0.3521 -0.0375
 5983TIP3    H139440   5.218   1.252   0.627  1.7706  0.5698 -0.4424
 5983TIP3    H239441   5.211   1.136   0.531  0.0088 -0.4418  0.8568
 5984TIP3   OH239442   2.743   6.280  13.670  0.6124  0.5956  0.4359
 5984TIP3    H139443   2.673   6.330  13.629  1.1721 -0.1749 -1.5497
 5984TIP3    H239444   2.779   6.339  13.737 -1.7041  1.1021  1.3437
 5985TIP3   OH239445   5.923   0.422   4.805 -0.1220 -0.1609 -0.2335
 5985TIP3    H139446   5.929   0.328   4.820 -1.2931 -0.2812 -0.4246
 5985TIP3    H239447   5.883   0.430   4.718  0.0437  0.5115 -0.2543
 5986TIP3   OH239448   6.217   5.168  15.994 -0.5671  0.0244  0.2326
 5986TIP3    H139449   6.139   5.220  15.980  0.3397  1.5157  0.4960
 5986TIP3    H239450   6.200   5.119  16.074 -1.9472 -1.1475 -0.7211
 5987TIP3   OH239451   5.855   2.374   5.811  0.2603  0.5988  0.3145
 5987TIP3    H139452   5.786   2.314   5.782 -0.0008  0.8101  0.4911
 5987TIP3    H239453   5.808   2.445   5.855  0.7219 -0.7513  3.2112
 5988TIP3   OH239454   0.423   6.174  15.108  0.2134 -0.1441 -0.5198
 5988TIP3    H139455   0.387   6.163  15.196  1.6293 -0.1711  0.0856
 5988TIP3    H239456   0.351   6.151  15.050 -0.2943 -1.6853  0.6411
 5989TIP3   OH239457   2.228   1.936   5.594  0.4891  0.2294 -0.1836
 5989TIP3    H139458   2.160   1.870   5.579 -2.6090  3.2134 -0.2949
 5989TIP3    H239459   2.246   1.931   5.688  1.5662 -1.7433 -0.4183
 5990TIP3   OH239460   0.034   2.217   0.986  0.1358  0.6311  0.3456
 5990TIP3    H139461   0.122   2.190   0.963  0.2341  0.6385  0.6981
 5990TIP3    H239462  -0.021   2.142   0.965  0.2195  0.6434  0.0843
 5991TIP3   OH239463   6.642   4.391  16.329  0.2626  0.4650  0.6128
 5991TIP3    H139464   6.727   4.374  16.289 -0.4110  0.4107 -0.9068
 5991TIP3    H239465   6.648   4.481  16.361  0.6807  0.7181 -0.1370
 5992TIP3   OH239466   0.973   0.080   2.218 -0.1094 -0.5162 -0.2687
 5992TIP3    H139467   0.994   0.144   2.151  0.0139 -1.1473 -0.8470
 5992TIP3    H239468   1.005  -0.003   2.183  0.5839 -0.7516  0.8789
 5993TIP3   OH239469   0.422   1.426   5.105 -0.0579  0.1850  0.7769
 5993TIP3    H139470   0.483   1.352   5.115 -0.8329 -0.4387  1.0119
 5993TIP3    H239471   0.411   1.459   5.194  0.6530  0.9051  0.6133
 5994TIP3   OH239472   5.027   2.606  13.469  0.1835  0.2194  0.1101
 5994TIP3    H139473   4.945   2.638  13.431  0.8432  1.4809 -0.3229
 5994TIP3    H239474   5.041   2.662  13.546  0.9525  0.4492 -0.1902
 5995TIP3   OH239475   3.727   3.804  17.090  0.6162  0.0435 -0.7667
 5995TIP3    H139476   3.639   3.773  17.069  0.4016  1.6647 -2.5795
 5995TIP3    H239477   3.758   3.744  17.158 -3.3193  1.6473  2.9312
 5996TIP3   OH239478   4.292   6.057   1.389  0.4447 -0.1395 -0.3494
 5996TIP3    H139479   4.281   6.146   1.354 -2.0529 -0.1496  0.2143
 5996TIP3    H239480   4.261   6.000   1.318  3.0422 -0.6981 -1.1268
 5997TIP3   OH239481   1.862   1.836  12.810 -0.5589  0.5485  0.2165
 5997TIP3    H139482   1.886   1.821  12.719  1.5490 -0.1198  0.8410
 5997TIP3    H239483   1.792   1.772  12.827  0.0299 -0.3093 -0.5292
 5998TIP3   OH239484   4.261   6.429  16.365 -0.0887  0.4830 -0.2596
 5998TIP3    H139485   4.297   6.414  16.452 -0.5170 -0.2672 -0.2014
 5998TIP3    H239486   4.173   6.463  16.382 -0.0880  0.5542 -0.3983
 5999TIP3   OH239487   1.152   5.618   2.959  0.1276 -0.0578  0.0365
 5999TIP3    H139488   1.090   5.682   2.923  1.6425  1.9125  0.7262
 5999TIP3    H239489   1.222   5.671   2.998  2.0497 -2.1482 -0.3113
 6000TIP3   OH239490   1.559   6.403   3.827 -0.4291  0.5094 -0.0274
 6000TIP3    H139491   1.564   6.373   3.918 -0.1089  1.6742  0.3498
 6000TIP3    H239492   1.638   6.366   3.786  0.4518  1.5584  0.6663
 6001TIP3   OH239493   4.143   3.958  15.311  0.7473  0.6291 -0.2082
 6001TIP3    H139494   4.209   3.914  15.365 -0.3441  0.6914  1.2266
 6001TIP3    H239495   4.184   3.963  15.224  1.5832 -1.7341 -0.0498
 6002TIP3   OH239496   0.967   4.926   5.151  0.2900  0.1122 -0.3157
 6002TIP3    H139497   0.950   4.919   5.058  1.2399 -0.6200 -0.4440
 6002TIP3    H239498   0.888   4.895   5.193  0.4201 -1.0074 -0.8840
 6003TIP3   OH239499   4.514   5.942   2.525 -0.6210 -0.4454  0.3712
 6003TIP3    H139500   4.567   5.864   2.543 -0.9354 -0.6344  0.4852
 6003TIP3    H239501   4.536   6.003   2.595  0.0736 -0.1962 -0.0473
 6004TIP3   OH239502   5.338   5.087  14.986  0.1488  0.2721 -0.0869
 6004TIP3    H139503   5.293   5.161  14.944  1.0496  0.0778 -1.4708
 6004TIP3    H239504   5.267   5.036  15.025 -0.3685  2.9437  2.9126
 6005TIP3   OH239505   4.035   2.312   3.923  0.5745  0.0039  0.1430
 6005TIP3    H139506   4.001   2.314   4.013 -0.1060 -0.1010 -0.1051
 6005TIP3    H239507   4.043   2.219   3.903  0.8071  0.0278  0.1253
 6006TIP3   OH239508   0.805   4.161   4.572  0.1434  0.0406 -0.3296
 6006TIP3    H139509   0.863   4.174   4.647 -0.6665  2.7439 -0.0613
 6006TIP3    H239510   0.864   4.140   4.499  1.0520 -1.2814  0.7458
 6007TIP3   OH239511   5.250   6.411   3.284  0.0270 -0.2850 -0.0006
 6007TIP3    H139512   5.276   6.325   3.317  1.7785  0.0835 -0.3196
 6007TIP3    H239513   5.194   6.447   3.352 -1.8215 -2.1690 -0.4172
 6008TIP3   OH239514   4.318   5.699  13.649  0.0728 -0.7462  0.3106
 6008TIP3    H139515   4.233   5.741  13.635  0.4511  0.1558  0.6402
 6008TIP3    H239516   4.300   5.605  13.639 -0.9126 -0.5548  0.1477
 6009TIP3   OH239517   0.103   4.449   0.362 -0.1230 -0.1457  0.3663
 6009TIP3    H139518   0.130   4.440   0.271 -0.6728  0.6947  0.1100
 6009TIP3    H239519   0.097   4.359   0.395  0.5495 -0.4315 -0.2828
 6010TIP3   OH239520   5.903   4.957   3.495  1.1605  0.5022  1.1026
 6010TIP3    H139521   5.854   4.921   3.421  2.1201  0.0789  0.6495
 6010TIP3    H239522   5.967   5.016   3.455  1.8466  0.0829  1.5546
 6011TIP3   OH239523   4.142   6.631   3.258  0.2969  0.0435 -0.0914
 6011TIP3    H139524   4.229   6.635   3.298 -0.9097 -0.4762  2.7561
 6011TIP3    H239525   4.143   6.547   3.211  0.9143 -0.6013  1.0154
 6012TIP3   OH239526   2.172   5.145   0.427  0.3185 -0.1927 -0.0182
 6012TIP3    H139527   2.138   5.056   0.417 -0.6782  0.1240  0.3539
 6012TIP3    H239528   2.266   5.138   0.411  0.1373 -1.1820 -0.7009
 6013TIP3   OH239529   2.318   5.882   4.499 -0.1066  0.1173 -0.5878
 6013TIP3    H139530   2.226   5.900   4.514  0.0252 -0.5803  1.3752
 6013TIP3    H239531   2.364   5.955   4.542  0.2688 -0.0483 -0.7043
 6014TIP3   OH239532   0.393   3.504  13.830 -0.4637 -0.4761  0.3001
 6014TIP3    H139533   0.434   3.543  13.753 -0.0582 -0.3393  0.5878
 6014TIP3    H239534   0.405   3.568  13.900 -0.1280 -0.9433  0.6780
 6015TIP3   OH239535   6.154   4.620  13.764 -0.5848 -0.0414  0.6973
 6015TIP3    H139536   6.081   4.569  13.729 -1.9864  0.7327  2.2895
 6015TIP3    H239537   6.229   4.562  13.758 -1.1977 -0.7025 -1.4484
 6016TIP3   OH239538   2.762   3.209  12.411 -0.0786  0.4053  0.1362
 6016TIP3    H139539   2.820   3.272  12.452 -0.0696 -0.9517  2.4238
 6016TIP3    H239540   2.807   3.125  12.420 -1.9385 -0.5716  1.2831
 6017TIP3   OH239541   4.410   6.474   0.587 -0.1360  0.5412 -0.3106
 6017TIP3    H139542   4.390   6.506   0.675  1.0595 -0.3662  0.3318
 6017TIP3    H239543   4.480   6.531   0.556 -1.3576  1.6193 -1.1993
 6018TIP3   OH239544   0.882   4.743   1.925  0.0446 -0.7691 -0.3100
 6018TIP3    H139545   0.935   4.762   1.847  0.7722  0.5319  0.4632
 6018TIP3    H239546   0.946   4.719   1.992 -0.5656 -1.7531 -0.0626
 6019TIP3   OH239547   2.478   3.760  15.559  0.0855  0.1794 -0.2667
 6019TIP3    H139548   2.528   3.835  15.590  0.1739  0.0659 -0.1380
 6019TIP3    H239549   2.386   3.785  15.573  0.1465 -0.2357  0.9222
 6020TIP3   OH239550   3.058   3.528  13.160  0.0868  0.0923 -0.1169
 6020TIP3    H139551   3.017   3.545  13.075 -0.4098 -0.8389 -0.0756
 6020TIP3    H239552   3.004   3.575  13.223 -0.2182 -0.1454 -0.1973
 6021TIP3   OH239553   2.554   5.287   3.404  0.1011  0.2039 -0.0838
 6021TIP3    H139554   2.527   5.350   3.471 -0.0224 -0.3441  0.3899
 6021TIP3    H239555   2.647   5.273   3.421 -0.0152 -0.2297  0.2326
 6022TIP3   OH239556   0.873   4.318  11.744  0.1904  0.5028 -0.1685
 6022TIP3    H139557   0.857   4.298  11.652 -1.8231  1.3582 -0.0484
 6022TIP3    H239558   0.965   4.345  11.747  0.6896 -0.8490 -1.6621
 6023TIP3   OH239559   1.018   3.875  11.404 -0.0810  0.2946 -0.1082
 6023TIP3    H139560   1.096   3.831  11.369 -0.5891  0.6447 -1.7975
 6023TIP3    H239561   0.945   3.821  11.372 -0.5719  0.3083  0.9513
 6024TIP3   OH239562   3.805   2.659   2.809  0.0343 -0.1801  0.1263
 6024TIP3    H139563   3.830   2.577   2.852 -2.3813 -0.7919  0.4946
 6024TIP3    H239564   3.887   2.692   2.772  0.9932 -3.1119 -0.6387
 6025TIP3   OH239565   5.862   2.557  10.771 -0.3229  0.7534  0.5234
 6025TIP3    H139566   5.895   2.635  10.815  0.5975  0.9643 -0.4806
 6025TIP3    H239567   5.906   2.484  10.814  1.1307  1.0024 -0.4685
 6026TIP3   OH239568   4.550   1.542   1.498 -0.4537 -0.2111  0.1427
 6026TIP3    H139569   4.469   1.494   1.485  0.3690 -1.5165 -0.3845
 6026TIP3    H239570   4.603   1.522   1.421  0.7878 -0.2815  0.9721
 6027TIP3   OH239571   6.769   0.077   1.027 -0.3539  0.5166  0.3053
 6027TIP3    H139572   6.770   0.165   0.988  0.3504 -0.1445 -1.2946
 6027TIP3    H239573   6.707   0.028   0.973 -0.6391 -0.0199  1.1027
 6028TIP3   OH239574   4.072   4.354  10.543  0.0596 -0.0902 -0.2434
 6028TIP3    H139575   4.039   4.276  10.589 -0.8176  0.0911 -0.5582
 6028TIP3    H239576   3.994   4.405  10.523  0.6410  0.9382  0.0639
 6029TIP3   OH239577   6.240   5.989  16.757  0.6176  0.3010  0.4195
 6029TIP3    H139578   6.160   5.996  16.809  1.4306  0.3677  1.6846
 6029TIP3    H239579   6.311   5.994  16.820  1.6117 -1.7233 -0.4461
 6030TIP3   OH239580   3.963   6.514  12.787 -0.0233  0.4612  0.0628
 6030TIP3    H139581   4.029   6.492  12.852 -1.2560  0.1400  1.2579
 6030TIP3    H239582   3.891   6.553  12.838 -0.0406  2.5238 -1.3823
 6031TIP3   OH239583   5.296   1.525   1.190  0.0005 -0.1870  0.4777
 6031TIP3    H139584   5.222   1.584   1.189  0.7850  0.8248  0.8826
 6031TIP3    H239585   5.265   1.446   1.145 -1.0720  0.4995 -0.0059
 6032TIP3   OH239586   3.269   0.997   0.414 -0.3519 -0.3263  0.3263
 6032TIP3    H139587   3.196   1.015   0.472 -1.6448 -1.0723 -0.9974
 6032TIP3    H239588   3.345   1.036   0.458 -1.5686  0.7069  1.6120
 6033TIP3   OH239589   6.649   1.365  13.981 -0.2855  0.3621 -0.7031
 6033TIP3    H139590   6.556   1.369  13.957 -0.5005  1.2626  0.1881
 6033TIP3    H239591   6.674   1.274  13.965 -1.5698 -0.1311 -0.0589
 6034TIP3   OH239592   2.292   5.714   3.050  0.2517  0.1636 -0.2889
 6034TIP3    H139593   2.244   5.730   2.969 -1.1211 -0.9949  0.2617
 6034TIP3    H239594   2.296   5.618   3.057 -0.0335  0.2419  1.2341
 6035TIP3   OH239595   3.889   0.664  14.465 -0.0401  0.2876  0.5344
 6035TIP3    H139596   3.856   0.652  14.554 -1.5614  1.3686  0.1707
 6035TIP3    H239597   3.917   0.756  14.463 -1.2037  0.6481 -0.4227
 6036TIP3   OH239598   4.111   2.221   1.910  0.7007 -0.2624  0.2917
 6036TIP3    H139599   4.160   2.228   1.992  2.1329 -0.9091 -0.4743
 6036TIP3    H239600   4.109   2.310   1.875  1.8867 -0.3212  0.0383
 6037TIP3   OH239601   3.179   6.109   2.195 -0.2231  0.2951 -0.1355
 6037TIP3    H139602   3.168   6.014   2.202 -1.7877  0.3088 -1.7722
 6037TIP3    H239603   3.211   6.124   2.106  0.9911  1.2547  0.4345
 6038TIP3   OH239604   0.734   1.301   3.874 -0.1466 -0.1017 -0.2755
 6038TIP3    H139605   0.827   1.299   3.894 -0.2578 -0.7445  0.2183
 6038TIP3    H239606   0.730   1.322   3.781  0.4204  1.8549  0.1010
 6039TIP3   OH239607   4.156   0.125   0.704  0.3462 -0.2310 -0.1993
 6039TIP3    H139608   4.237   0.135   0.754  0.4397 -0.3659 -0.3231
 6039TIP3    H239609   4.135   0.032   0.710  1.4230 -0.6337 -2.0468
 6040TIP3   OH239610   5.275   0.244   1.003  0.5325  0.6945  0.1734
 6040TIP3    H139611   5.204   0.250   1.068  0.8206  0.8331  0.4789
 6040TIP3    H239612   5.235   0.201   0.928  0.6371 -1.0215  1.0605
 6041TIP3   OH239613   3.095   3.662   0.579  0.0998  0.6827  0.1274
 6041TIP3    H139614   3.122   3.658   0.487 -1.0184  0.0700 -0.1880
 6041TIP3    H239615   3.178   3.661   0.628  0.7022  0.8375 -0.8551
 6042TIP3   OH239616   6.758   6.164  13.707  0.2674 -0.9644 -0.2372
 6042TIP3    H139617   6.794   6.077  13.694 -0.1084 -1.1412 -0.1061
 6042TIP3    H239618   6.687   6.152  13.769  0.6729 -0.4568  0.3502
 6043TIP3   OH239619   2.276   0.643  15.488 -0.5089 -0.8685 -0.0601
 6043TIP3    H139620   2.266   0.598  15.404 -1.1709  0.6531 -0.8362
 6043TIP3    H239621   2.189   0.678  15.507  0.1046  0.6026  0.1816
 6044TIP3   OH239622   4.088   2.759  12.995  0.4513 -0.3341 -0.2440
 6044TIP3    H139623   4.183   2.770  12.988  0.4080  0.0438 -0.2751
 6044TIP3    H239624   4.074   2.665  12.982  0.8243 -0.4004 -0.1907
 6045TIP3   OH239625   0.587   6.204   4.953 -0.1259 -0.3515 -0.3790
 6045TIP3    H139626   0.493   6.195   4.938 -0.0665 -0.1064 -0.8867
 6045TIP3    H239627   0.598   6.293   4.985  0.1784  0.3143 -2.2749
 6046TIP3   OH239628   2.614   4.699  13.338  0.0026 -0.1641  0.4719
 6046TIP3    H139629   2.668   4.778  13.337  1.1979 -0.9549  0.5340
 6046TIP3    H239630   2.632   4.657  13.422 -0.0570 -0.8699  0.1451
 6047TIP3   OH239631   1.808   0.901  10.868  0.1231  0.1389  0.5734
 6047TIP3    H139632   1.860   0.964  10.918 -0.0219  0.1756  0.6775
 6047TIP3    H239633   1.785   0.947  10.788  2.7195 -0.8237 -0.8443
 6048TIP3   OH239634   4.395   6.360  14.048  0.5501  0.3979  0.0186
 6048TIP3    H139635   4.398   6.445  14.091  4.1505 -0.8013  2.6229
 6048TIP3    H239636   4.475   6.356  13.997 -0.0960 -1.0545 -0.9602
 6049TIP3   OH239637   2.449   3.102  16.299 -0.0842  0.1093  0.3577
 6049TIP3    H139638   2.447   3.015  16.260 -0.2650  0.9537 -1.6447
 6049TIP3    H239639   2.542   3.126  16.300 -0.0740  0.0615  0.4870
 6050TIP3   OH239640   3.911   3.552  12.393 -0.5794  0.3245 -0.1314
 6050TIP3    H139641   3.994   3.599  12.396  0.4619 -1.3565 -0.9436
 6050TIP3    H239642   3.848   3.610  12.436  1.6401  0.3422  3.4238
 6051TIP3   OH239643   2.549   2.993   3.787 -0.0930 -0.2624  0.1611
 6051TIP3    H139644   2.597   2.956   3.713 -0.8165  0.4891 -0.7032
 6051TIP3    H239645   2.597   2.962   3.864  2.7981  1.7880 -0.6650
 6052TIP3   OH239646   0.268   5.292   4.413  0.1529 -0.1690 -0.1638
 6052TIP3    H139647   0.186   5.331   4.384  0.0319  0.2214  0.6955
 6052TIP3    H239648   0.334   5.328   4.354 -0.3003 -0.5803 -0.9376
 6053TIP3   OH239649   4.237   5.200   5.827  0.0516 -0.0442 -0.1709
 6053TIP3    H139650   4.249   5.294   5.833 -1.2420  0.1183 -0.0092
 6053TIP3    H239651   4.146   5.188   5.800 -0.0091 -1.2567  0.5007
 6054TIP3   OH239652   2.532   0.583  14.868 -0.0048  0.3711  0.2610
 6054TIP3    H139653   2.454   0.529  14.858 -0.6995  1.4828 -0.6214
 6054TIP3    H239654   2.606   0.523  14.855 -0.7349 -0.4814 -0.0030
 6055TIP3   OH239655   0.039   4.697  16.117 -0.3970 -0.0451  0.0865
 6055TIP3    H139656   0.047   4.792  16.115 -0.6274  0.1037  2.7117
 6055TIP3    H239657  -0.034   4.678  16.059  0.3830  1.2482 -1.3826
 6056TIP3   OH239658   5.214   2.716  17.275  0.6696 -0.0134 -0.4519
 6056TIP3    H139659   5.147   2.708  17.206  0.1026 -0.4047  0.1362
 6056TIP3    H239660   5.187   2.793  17.325  1.0493  0.2345 -0.6247
 6057TIP3   OH239661   2.506   0.223  11.510 -0.2492  0.1990 -0.1623
 6057TIP3    H139662   2.556   0.305  11.518 -0.3384  0.3381 -0.9636
 6057TIP3    H239663   2.425   0.241  11.558  0.4693 -0.0405  1.1716
 6058TIP3   OH239664   4.079   4.005   5.291 -0.3270  0.1628 -0.2999
 6058TIP3    H139665   4.048   4.084   5.247 -3.0517  0.8391  2.5079
 6058TIP3    H239666   4.144   4.037   5.354 -1.7443  0.2854  1.1366
 6059TIP3   OH239667   1.742   6.499   1.433 -0.4350 -0.2588 -0.1361
 6059TIP3    H139668   1.733   6.590   1.460  1.6789  0.0358 -0.3085
 6059TIP3    H239669   1.690   6.450   1.498  0.2927  0.8787  1.3634
 6060TIP3   OH239670   6.067   4.135   4.316  0.4582  0.3123 -0.4440
 6060TIP3    H139671   5.986   4.097   4.349 -0.2181  1.4432 -0.7584
 6060TIP3    H239672   6.125   4.060   4.302 -0.6054 -0.5274 -0.4335
 6061TIP3   OH239673   3.326   6.559  13.205 -0.4439  0.3916 -0.2444
 6061TIP3    H139674   3.287   6.645  13.191 -1.4278  0.0870  0.4935
 6061TIP3    H239675   3.370   6.566  13.289 -2.7258 -0.5281  1.1147
 6062TIP3   OH239676   2.276   4.238  15.039 -0.7408 -0.3089  0.3607
 6062TIP3    H139677   2.342   4.306  15.054 -0.2647 -0.7729  0.3895
 6062TIP3    H239678   2.194   4.278  15.069 -0.7609  0.8439 -1.1059
 6063TIP3   OH239679   6.491   0.364  11.028 -1.0024  0.3020  0.0675
 6063TIP3    H139680   6.402   0.354  11.062 -0.8684  2.0436  1.0318
 6063TIP3    H239681   6.479   0.372  10.933 -1.9157  0.7923  0.2036
 6064TIP3   OH239682   5.056   1.702   1.142  0.2846 -0.5666 -0.0249
 6064TIP3    H139683   5.027   1.687   1.232  0.8214 -1.7242 -0.0162
 6064TIP3    H239684   5.089   1.791   1.141  0.0303 -0.4581  0.8615
 6065TIP3   OH239685   6.469   0.907  13.704 -0.6116 -0.2817  0.3592
 6065TIP3    H139686   6.427   0.956  13.774  0.7596 -0.0026  1.0202
 6065TIP3    H239687   6.412   0.918  13.629 -1.5044  0.4037  1.1183
 6066TIP3   OH239688   0.757   2.044   0.339 -0.0461 -0.5113 -0.1728
 6066TIP3    H139689   0.732   2.136   0.346  0.1568 -0.3297 -1.5553
 6066TIP3    H239690   0.830   2.034   0.400  0.2209  0.3557 -0.3420
 6067TIP3   OH239691   5.043   1.598  16.833 -0.5485  0.6564  1.3034
 6067TIP3    H139692   4.970   1.659  16.822 -0.1297  1.0202  0.3924
 6067TIP3    H239693   5.039   1.543  16.755  1.4421  2.0916  0.0956
 6068TIP3   OH239694   0.235   6.096  17.242 -0.2086  0.0551  0.0588
 6068TIP3    H139695   0.168   6.123  17.179  0.0413  0.8967  0.1362
 6068TIP3    H239696   0.188   6.044  17.307 -0.6021 -0.1924 -0.4162
 6069TIP3   OH239697   1.396   2.976   4.382 -0.1257 -0.2642 -0.4077
 6069TIP3    H139698   1.427   3.013   4.465  2.3228 -1.6422 -0.6035
 6069TIP3    H239699   1.335   2.907   4.407 -1.2212  0.8568  0.1106
 6070TIP3   OH239700   0.465   5.814  14.086 -0.0862  0.6246 -0.1382
 6070TIP3    H139701   0.554   5.799  14.119 -0.4117 -0.4267  0.3138
 6070TIP3    H239702   0.464   5.906  14.060  0.7705  0.9720  0.9922
 6071TIP3   OH239703   6.638   1.627  16.714 -0.0008 -0.6868  0.5875
 6071TIP3    H139704   6.682   1.546  16.739  0.1194 -0.9623 -0.4707
 6071TIP3    H239705   6.550   1.600  16.686 -0.0032 -0.4334  0.3432
 6072TIP3   OH239706   3.726   2.727   0.464  0.7087 -0.0837  0.0840
 6072TIP3    H139707   3.728   2.775   0.546 -1.3150  0.8842 -0.3645
 6072TIP3    H239708   3.779   2.779   0.404  1.9208 -0.6236  0.6473
 6073TIP3   OH239709   6.382   5.432  12.672 -0.4657 -0.2521  0.1334
 6073TIP3    H139710   6.430   5.438  12.755 -2.0083 -0.5777  1.0851
 6073TIP3    H239711   6.397   5.343  12.643  0.7148  0.0861 -0.3657
 6074TIP3   OH239712   0.867   2.646  13.123  0.0137  0.1637  0.3162
 6074TIP3    H139713   0.812   2.598  13.186  0.6829 -0.9986  0.0497
 6074TIP3    H239714   0.939   2.680  13.176 -1.5511  2.8240  0.9171
 6075TIP3   OH239715   2.389   4.912  14.509 -0.9027 -0.1100  0.2592
 6075TIP3    H139716   2.386   4.952  14.422  0.6630 -0.6394 -0.0828
 6075TIP3    H239717   2.381   4.986  14.569  0.1380  0.5359 -0.3602
 6076TIP3   OH239718   0.505   0.469   0.949 -0.0589  0.3797 -0.3822
 6076TIP3    H139719   0.569   0.397   0.956 -1.0697 -0.4976  0.0836
 6076TIP3    H239720   0.435   0.445   1.009 -1.1606  0.9853 -1.3829
 6077TIP3   OH239721   2.468   5.731  10.708 -0.4836  0.5830  0.4912
 6077TIP3    H139722   2.516   5.728  10.625 -0.1902  1.9073  0.5885
 6077TIP3    H239723   2.396   5.792  10.691 -1.0010  0.0987  0.9229
 6078TIP3   OH239724   5.986   5.595  14.734 -0.4096  0.0777  0.6226
 6078TIP3    H139725   5.933   5.524  14.771 -0.4034 -0.0187  0.4495
 6078TIP3    H239726   5.929   5.672  14.738  0.8133  1.0063  4.3110
 6079TIP3   OH239727   1.995   1.778  16.230 -0.3749  0.3494  0.0701
 6079TIP3    H139728   2.011   1.738  16.315 -2.6933 -0.3157  0.2456
 6079TIP3    H239729   2.034   1.866  16.238 -0.4126  0.2469  1.7546
 6080TIP3   OH239730   2.090   2.645   3.261  0.0299  0.4371  0.3168
 6080TIP3    H139731   2.072   2.709   3.192  0.3467 -0.5975 -0.7725
 6080TIP3    H239732   2.097   2.696   3.341 -0.9111  1.6181 -0.3262
 6081TIP3   OH239733   1.781   4.606  10.930  0.2870  0.1760 -0.0900
 6081TIP3    H139734   1.741   4.598  11.016  0.7346  1.3283  0.2470
 6081TIP3    H239735   1.747   4.688  10.895  0.9949  0.2901 -0.5274
 6082TIP3   OH239736   5.565   1.253  14.577  0.4573 -0.7682 -0.7119
 6082TIP3    H139737   5.483   1.205  14.561  0.0239  0.2942 -1.8893
 6082TIP3    H239738   5.599   1.272  14.489  1.4841 -0.3861 -0.2442
 6083TIP3   OH239739   2.305   1.557  16.670 -0.1831 -0.4623 -0.6095
 6083TIP3    H139740   2.377   1.519  16.619 -0.6105 -2.6994  0.3210
 6083TIP3    H239741   2.348   1.617  16.731  0.8049 -1.0613 -0.6902
 6084TIP3   OH239742   2.388   3.878  15.919  0.1061 -0.1075 -0.1184
 6084TIP3    H139743   2.440   3.938  15.972  0.0008 -0.8782  0.8791
 6084TIP3    H239744   2.422   3.791  15.940  0.4549 -0.4066 -1.7633
 6085TIP3   OH239745   3.811   0.957   0.795  0.0256  0.1111  0.1482
 6085TIP3    H139746   3.767   1.032   0.755 -0.2763  0.6704  1.4783
 6085TIP3    H239747   3.832   0.900   0.721  0.7619  1.7362 -0.9904
 6086TIP3   OH239748   3.874   5.198  15.123 -0.3492  0.2960  0.1208
 6086TIP3    H139749   3.934   5.201  15.048  0.5494  0.8485  0.8454
 6086TIP3    H239750   3.787   5.205  15.084  0.0637 -0.1436 -0.9230
 6087TIP3   OH239751   4.451   1.547   0.328 -0.1845 -0.5387 -0.2080
 6087TIP3    H139752   4.525   1.521   0.382 -0.6221  0.4228  0.9196
 6087TIP3    H239753   4.408   1.465   0.304  0.7892 -1.0534 -0.2094
 6088TIP3   OH239754   1.676   5.487   2.156 -0.2409  0.2424  0.4432
 6088TIP3    H139755   1.631   5.555   2.206 -1.6278 -0.9274  0.8684
 6088TIP3    H239756   1.627   5.480   2.074 -0.7738 -0.9080  0.8273
 6089TIP3   OH239757   4.687   0.451  14.200 -0.1074  0.0167 -0.1705
 6089TIP3    H139758   4.618   0.392  14.170  0.9256 -1.8791  1.0033
 6089TIP3    H239759   4.658   0.480  14.286  0.8590 -1.4246  0.6827
 6090TIP3   OH239760   6.633   0.446   2.203  0.8183 -0.9700 -0.3469
 6090TIP3    H139761   6.565   0.510   2.179  0.6791 -0.8507  0.3532
 6090TIP3    H239762   6.624   0.377   2.138 -0.2610 -1.1573 -0.0173
 6091TIP3   OH239763   0.354   6.173   2.277 -0.6131  0.4101  0.2518
 6091TIP3    H139764   0.404   6.238   2.327 -0.3049  0.3088  0.0751
 6091TIP3    H239765   0.335   6.217   2.194  0.4931 -0.0974 -0.2794
 6092TIP3   OH239766   4.467   1.828   0.248 -0.4428  0.3036 -0.1106
 6092TIP3    H139767   4.442   1.742   0.282  1.0040 -1.1855 -2.5192
 6092TIP3    H239768   4.522   1.866   0.317  0.3474 -1.4942  0.3214
 6093TIP3   OH239769   1.880   3.579  13.851  0.2925 -0.3949  0.0615
 6093TIP3    H139770   1.796   3.622  13.865  0.3832  0.3156 -1.4191
 6093TIP3    H239771   1.867   3.523  13.775  0.6768 -1.6891  0.9029
 6094TIP3   OH239772   2.664   1.493  14.180  0.2734  0.2606  0.3158
 6094TIP3    H139773   2.698   1.561  14.122  1.1601 -0.5856 -0.1937
 6094TIP3    H239774   2.680   1.526  14.268 -2.8101  2.4407  0.2222
 6095TIP3   OH239775   6.789   3.314  15.613  0.4283 -0.0639  0.8826
 6095TIP3    H139776   6.802   3.405  15.638 -0.6383  0.0519  1.0786
 6095TIP3    H239777   6.870   3.270  15.638  2.1839  1.3209 -1.8282
 6096TIP3   OH239778   1.381   6.096  12.446  0.0644  0.4239 -0.4789
 6096TIP3    H139779   1.402   6.040  12.372  0.9329  0.6507 -0.4109
 6096TIP3    H239780   1.447   6.075  12.512 -0.8404  0.0355  0.3469
 6097TIP3   OH239781   5.978   4.388  14.523  0.7652  0.8535  0.2231
 6097TIP3    H139782   6.007   4.455  14.461 -1.9340  1.9985  0.0660
 6097TIP3    H239783   5.886   4.374  14.501  0.6314 -1.1856  1.8366
 6098TIP3   OH239784   6.506   4.252   6.002  0.2054 -0.3584  0.5107
 6098TIP3    H139785   6.537   4.236   6.091  0.6701 -1.1862  0.2043
 6098TIP3    H239786   6.565   4.202   5.946  0.1869  0.5022 -0.3021
 6099TIP3   OH239787   6.213   2.284  17.105  0.3494 -0.0944 -0.1657
 6099TIP3    H139788   6.144   2.325  17.053  0.7934  0.0614 -0.6382
 6099TIP3    H239789   6.184   2.193  17.116 -0.4973  0.2540  0.6357
 6100TIP3   OH239790   3.992   4.775   6.854  0.6105  0.7696 -0.3035
 6100TIP3    H139791   3.934   4.738   6.921 -0.8405 -0.2435 -2.0251
 6100TIP3    H239792   4.064   4.712   6.849  0.6599  0.7807  0.2110
 6101TIP3   OH239793   6.686   4.841   4.709  0.0449  0.0959 -0.0041
 6101TIP3    H139794   6.729   4.817   4.627  0.2166 -1.2490  0.4609
 6101TIP3    H239795   6.654   4.758   4.744  0.5654  0.5509  1.6143
 6102TIP3   OH239796   3.029   0.326   2.064  0.1880  0.2247  0.8119
 6102TIP3    H139797   3.080   0.251   2.034  0.2373  0.8470 -0.7495
 6102TIP3    H239798   3.009   0.306   2.156  2.4290 -0.4673  1.2195
 6103TIP3   OH239799   4.479   2.974  13.676 -0.6308  0.2877 -0.1474
 6103TIP3    H139800   4.484   3.010  13.765  0.5778 -0.4173  0.1017
 6103TIP3    H239801   4.496   2.881  13.687  1.0159  0.4064 -1.2387
 6104TIP3   OH239802   0.710   6.137  10.940  0.3128  0.5832  0.1247
 6104TIP3    H139803   0.709   6.177  10.853 -1.0491  1.2224  0.3900
 6104TIP3    H239804   0.617   6.123  10.961  0.6938 -1.6915  0.5383
 6105TIP3   OH239805   4.840   6.051   4.619 -0.1715 -0.4581  0.0544
 6105TIP3    H139806   4.824   6.032   4.712  0.9423 -0.9087  0.1677
 6105TIP3    H239807   4.811   6.142   4.608 -0.0882 -0.3212  0.9022
 6106TIP3   OH239808   4.381   6.185   0.573 -0.1524 -0.2916  0.4597
 6106TIP3    H139809   4.413   6.274   0.562 -0.1119 -0.2576  0.8475
 6106TIP3    H239810   4.424   6.153   0.653 -0.0749 -0.6977  0.2620
 6107TIP3   OH239811   1.607   0.324  15.771 -0.0287 -0.9911  0.0096
 6107TIP3    H139812   1.662   0.357  15.699  0.6015 -1.3033  0.3381
 6107TIP3    H239813   1.564   0.247  15.734  0.6587 -1.4297  0.1027
 6108TIP3   OH239814   3.079   2.399   5.175 -0.2957 -0.2333  0.3840
 6108TIP3    H139815   3.012   2.331   5.180 -0.4844 -0.1324 -0.5356
 6108TIP3    H239816   3.138   2.370   5.105 -2.1525  2.0160 -2.3643
 6109TIP3   OH239817   2.286   3.109   6.567 -0.1286  0.1131 -0.1356
 6109TIP3    H139818   2.380   3.100   6.551  0.0243 -0.0378  0.8207
 6109TIP3    H239819   2.280   3.155   6.651 -0.9170  1.8402 -1.0840
 6110TIP3   OH239820   5.682   6.507  14.925 -0.1312  0.0904 -0.0112
 6110TIP3    H139821   5.671   6.599  14.900  0.9167  0.3152  0.2921
 6110TIP3    H239822   5.693   6.510  15.020  2.6222 -0.0270 -0.2460
 6111TIP3   OH239823   4.814   6.586   2.610  0.3254 -0.2100  0.2658
 6111TIP3    H139824   4.853   6.563   2.694 -1.1142  1.5603  1.4974
 6111TIP3    H239825   4.781   6.675   2.622 -2.4247 -0.8947 -1.2396
 6112TIP3   OH239826   0.065   3.612  15.904 -0.3218  0.3890 -0.5279
 6112TIP3    H139827   0.126   3.596  15.977 -0.9270  0.3980 -0.0120
 6112TIP3    H239828   0.031   3.525  15.883  0.0035  0.3586 -0.9431
 6113TIP3   OH239829   1.489   4.813   2.867  0.0846  0.1640 -0.0719
 6113TIP3    H139830   1.488   4.904   2.897  1.6789 -0.1136  0.9259
 6113TIP3    H239831   1.576   4.801   2.829  0.0351 -1.0534  0.1796
 6114TIP3   OH239832   5.512   0.960   4.416 -0.4624  0.6163  0.9389
 6114TIP3    H139833   5.435   0.905   4.428  0.1473 -0.1976  1.2293
 6114TIP3    H239834   5.477   1.046   4.394 -1.4271 -0.3442 -1.6803
 6115TIP3   OH239835   5.192   0.363   0.619 -0.3145 -0.5627 -0.0783
 6115TIP3    H139836   5.254   0.350   0.548 -1.0735  0.0491 -0.8672
 6115TIP3    H239837   5.112   0.320   0.590 -0.5188 -0.6563  0.5881
 6116TIP3   OH239838   5.080   6.274  16.893 -0.4190  0.4768  0.3962
 6116TIP3    H139839   5.108   6.340  16.831  0.1673  1.0138  1.2142
 6116TIP3    H239840   5.148   6.274  16.960 -1.9646  1.2606  2.0320
 6117TIP3   OH239841   0.427   2.947   6.662 -0.2705 -0.3658  0.1183
 6117TIP3    H139842   0.397   2.943   6.571  0.1987  0.1857 -0.0738
 6117TIP3    H239843   0.498   2.883   6.666  0.4126  0.3558 -0.1957
 6118TIP3   OH239844   1.962   0.053  13.577 -0.0097  0.3737  0.5759
 6118TIP3    H139845   1.875   0.025  13.548  0.3899  0.0001 -0.2913
 6118TIP3    H239846   2.003  -0.026  13.611  0.1329  0.4657  0.6182
 6119TIP3   OH239847   2.672   5.432  11.742  0.2466  0.3841 -0.3280
 6119TIP3    H139848   2.750   5.398  11.785  0.3169  0.5922 -0.2935
 6119TIP3    H239849   2.625   5.479  11.810 -0.2859 -0.3614 -0.1608
 6120TIP3   OH239850   0.072   5.590   3.964 -0.2795  0.4932 -0.5468
 6120TIP3    H139851   0.018   5.527   4.012  2.4980 -1.9980 -0.4192
 6120TIP3    H239852   0.149   5.603   4.020  0.1678  2.5120 -1.5159
 6121TIP3   OH239853   4.346   5.533   3.871  0.1904 -0.2839 -0.7164
 6121TIP3    H139854   4.352   5.614   3.922 -0.0691 -0.4138 -0.4741
 6121TIP3    H239855   4.415   5.541   3.805  0.0524  0.2138 -0.8067
 6122TIP3   OH239856   2.206   6.174   3.571 -0.0351 -0.5816  0.0786
 6122TIP3    H139857   2.160   6.235   3.628  1.0461 -0.2836  0.6597
 6122TIP3    H239858   2.278   6.140   3.625  0.8713 -0.4697 -1.0243
 6123TIP3   OH239859   4.670   4.022  12.718  0.4391  0.4205 -0.2311
 6123TIP3    H139860   4.755   4.048  12.755 -0.3849  1.6723  0.8865
 6123TIP3    H239861   4.617   4.102  12.723 -0.3417  0.1109 -2.3990
 6124TIP3   OH239862   5.347   1.735   2.491 -0.1655 -0.0741 -0.2487
 6124TIP3    H139863   5.272   1.683   2.519 -0.0889 -0.6142 -1.0142
 6124TIP3    H239864   5.418   1.671   2.480 -0.1687  0.1258 -1.5530
 6125TIP3   OH239865   2.499   2.749   4.028  0.1255  0.0624 -0.4184
 6125TIP3    H139866   2.558   2.675   4.019 -0.6253 -0.4968 -0.9166
 6125TIP3    H239867   2.412   2.713   4.007 -0.5381  0.6399  1.1821
 6126TIP3   OH239868   5.426   3.794  14.287 -0.4784 -0.0306  0.3002
 6126TIP3    H139869   5.441   3.880  14.327  1.2380 -0.3005  0.3528
 6126TIP3    H239870   5.355   3.808  14.224 -0.2860  1.4107  0.3650
 6127TIP3   OH239871   6.622   5.037  16.714  0.2656 -0.6849  0.1396
 6127TIP3    H139872   6.568   5.059  16.638 -1.0871  0.7731  1.4357
 6127TIP3    H239873   6.577   4.964  16.755  0.1913 -0.5507  0.3016
 6128TIP3   OH239874   5.651   5.035   0.409  0.1492 -0.5053 -0.2777
 6128TIP3    H139875   5.698   5.057   0.489 -0.1564  1.0715 -0.5193
 6128TIP3    H239876   5.682   4.946   0.388  0.5472 -0.7795  1.3295
 6129TIP3   OH239877   3.615   4.336  15.563  0.0327 -0.0102  0.0964
 6129TIP3    H139878   3.684   4.401  15.551 -0.6710  0.5383 -1.1324
 6129TIP3    H239879   3.534   4.386  15.569 -0.5178 -0.7332 -0.8463
 6130TIP3   OH239880   1.959   2.330   5.785 -0.0874  0.1945  0.0157
 6130TIP3    H139881   2.025   2.335   5.716  2.3125 -1.0635  2.0702
 6130TIP3    H239882   1.917   2.245   5.772 -1.1764  0.8728 -1.1193
 6131TIP3   OH239883   6.483   2.755  14.478  0.4883  0.8481 -0.0770
 6131TIP3    H139884   6.459   2.791  14.393  0.8843 -0.8448 -0.9544
 6131TIP3    H239885   6.577   2.773  14.486  1.0338 -1.1564 -1.2021
 6132TIP3   OH239886   2.110   0.034   2.284 -0.3800  0.4524 -0.4030
 6132TIP3    H139887   2.020   0.014   2.311 -0.5773 -0.4656 -1.6238
 6132TIP3    H239888   2.146  -0.051   2.258 -0.4035  1.2718 -3.4630
 6133TIP3   OH239889   2.691   6.681   4.035  0.7124 -0.3925  0.1006
 6133TIP3    H139890   2.663   6.740   3.965  1.5667 -1.1599 -0.9036
 6133TIP3    H239891   2.747   6.617   3.992  0.8081 -1.2104  1.3960
 6134TIP3   OH239892   1.663   3.862  10.717 -0.2462  0.0372  0.4599
 6134TIP3    H139893   1.716   3.892  10.643  0.5779  1.4870  1.5736
 6134TIP3    H239894   1.579   3.839  10.678  0.5371 -0.3835 -1.0803
 6135TIP3   OH239895   4.661   4.348   4.846  0.6000 -0.4854  0.4012
 6135TIP3    H139896   4.582   4.297   4.828  1.0268 -1.2360  0.6068
 6135TIP3    H239897   4.683   4.387   4.762 -0.2913  0.1806  0.4584
 6136TIP3   OH239898   3.030   1.060   6.150  0.2279  0.1618 -0.3650
 6136TIP3    H139899   3.009   0.976   6.192  0.0141  0.0835 -0.6228
 6136TIP3    H239900   2.955   1.116   6.171 -0.3965 -0.1974 -1.5047
 6137TIP3   OH239901   3.108   6.612  14.062 -0.0247 -0.2232 -0.7055
 6137TIP3    H139902   3.019   6.605  14.027 -0.2203  0.2683 -0.3151
 6137TIP3    H239903   3.165   6.597  13.986 -0.3263 -5.1965 -0.2565
 6138TIP3   OH239904   4.518   0.037   2.109 -0.5716  0.7639  0.3586
 6138TIP3    H139905   4.518   0.061   2.201  0.8992  1.8128  0.1346
 6138TIP3    H239906   4.495   0.117   2.063 -2.6853 -0.0825 -0.1779
 6139TIP3   OH239907   1.927   5.042   5.224  0.1476 -0.0074 -0.1469
 6139TIP3    H139908   1.866   4.969   5.233 -0.9016  1.0533  1.8957
 6139TIP3    H239909   1.876   5.120   5.246  1.1702  1.4467 -2.5026
 6140TIP3   OH239910   1.873   5.161  11.737  0.7375 -0.1452  0.0413
 6140TIP3    H139911   1.870   5.105  11.660 -0.1870  0.3856 -0.3232
 6140TIP3    H239912   1.937   5.228  11.715  1.2195 -0.5664  0.1424
 6141TIP3   OH239913   3.083   0.689  11.019 -0.4183 -0.3426  0.4287
 6141TIP3    H139914   3.017   0.632  10.979 -0.6394 -0.1688  0.5442
 6141TIP3    H239915   3.103   0.753  10.951 -0.3182 -0.4364  0.3699
 6142TIP3   OH239916   4.789   1.208  14.849  0.2237 -0.7662 -0.1295
 6142TIP3    H139917   4.755   1.241  14.766  0.3699 -0.9974 -0.2820
 6142TIP3    H239918   4.779   1.282  14.909 -0.5862 -0.8487 -0.1577
 6143TIP3   OH239919   4.119   3.921   2.687 -0.0575 -0.0723  0.5826
 6143TIP3    H139920   4.206   3.896   2.719 -0.1834 -1.7967 -0.2834
 6143TIP3    H239921   4.075   3.959   2.763  1.3556  0.5808  1.1010
 6144TIP3   OH239922   5.979   3.893  11.648  0.0297  0.2190  0.1583
 6144TIP3    H139923   5.943   3.977  11.619 -0.3359 -0.1384 -0.4389
 6144TIP3    H239924   6.040   3.916  11.718 -1.0058  0.8766  0.8721
 6145TIP3   OH239925   4.211   4.380  14.501 -0.2974  0.0197 -0.5442
 6145TIP3    H139926   4.131   4.426  14.528  1.1321  2.0771  0.4361
 6145TIP3    H239927   4.244   4.431  14.427  0.2945 -0.6174 -0.7274
 6146TIP3   OH239928   0.006   2.632   3.525  0.8749  0.1262 -0.2748
 6146TIP3    H139929   0.006   2.563   3.458  2.9851  0.3807 -0.5991
 6146TIP3    H239930   0.021   2.585   3.607  2.6037  0.1646 -0.5290
 6147TIP3   OH239931   4.925   6.117   2.847  0.2529  0.1378  0.1736
 6147TIP3    H139932   4.888   6.120   2.758  2.3237  0.3681 -0.7191
 6147TIP3    H239933   4.929   6.024   2.867 -0.3079  0.0856  0.0800
 6148TIP3   OH239934   1.449   6.290  15.837 -0.3233  0.2465 -0.2712
 6148TIP3    H139935   1.525   6.294  15.779 -0.8334  2.2162 -0.8592
 6148TIP3    H239936   1.461   6.208  15.885  0.1808 -1.4539 -3.0370
 6149TIP3   OH239937   4.829   5.944  11.333  0.3825  0.5655 -0.1850
 6149TIP3    H139938   4.798   5.966  11.245  0.9671  0.4388 -0.4222
 6149TIP3    H239939   4.924   5.951  11.328  0.4015  1.1162  0.5837
 6150TIP3   OH239940   1.062   1.093  16.357  0.6842  0.8237 -0.1099
 6150TIP3    H139941   1.022   1.010  16.331 -0.5920  1.4366 -0.1597
 6150TIP3    H239942   1.148   1.068  16.391  0.5117 -0.4675 -0.5700
 6151TIP3   OH239943   1.794   3.429   5.525 -0.1368 -0.4344 -0.3420
 6151TIP3    H139944   1.868   3.376   5.556 -0.6279  0.2126  2.2203
 6151TIP3    H239945   1.742   3.369   5.471  0.8534 -1.7052  0.0633
 6152TIP3   OH239946   5.204   2.843  14.185  0.4655  0.3066 -0.5006
 6152TIP3    H139947   5.198   2.749  14.204  0.6312  0.4292  0.2050
 6152TIP3    H239948   5.121   2.879  14.214 -0.3399  0.1311 -2.4377
 6153TIP3   OH239949   4.854   6.477   5.673  0.9873 -0.0088  0.4979
 6153TIP3    H139950   4.773   6.524   5.694  1.7906  2.3629 -1.3181
 6153TIP3    H239951   4.918   6.509   5.737  1.2547  0.5169 -0.0287
 6154TIP3   OH239952   0.888   5.524   2.424 -0.4134 -0.6863  0.2886
 6154TIP3    H139953   0.979   5.498   2.440  0.2476  0.8116 -0.7386
 6154TIP3    H239954   0.891   5.574   2.342 -2.2082 -0.7764  0.1190
 6155TIP3   OH239955   3.938   4.017  15.483  0.2648 -0.3388 -0.7865
 6155TIP3    H139956   4.003   3.992  15.417 -0.6747 -0.4932 -1.6709
 6155TIP3    H239957   3.853   4.002  15.441 -0.3702  1.9873 -0.4911
 6156TIP3   OH239958   3.653   4.369   5.441 -0.0044 -0.0403 -0.4844
 6156TIP3    H139959   3.642   4.463   5.424 -0.9252 -0.1998 -0.7777
 6156TIP3    H239960   3.708   4.366   5.519  0.3595  0.7397 -0.6953
 6157TIP3   OH239961   3.534   4.568   2.385 -0.1171 -0.1429 -0.0341
 6157TIP3    H139962   3.518   4.509   2.459  0.1655  0.9975  0.9568
 6157TIP3    H239963   3.625   4.553   2.361  0.1495  0.3457  0.6461
 6158TIP3   OH239964   4.191   4.317   4.496  0.2200 -0.2224 -0.2856
 6158TIP3    H139965   4.237   4.395   4.527  1.2772 -0.6116 -0.8237
 6158TIP3    H239966   4.216   4.309   4.404 -1.2517 -0.2333 -0.7056
 6159TIP3   OH239967   0.866   3.963  12.993 -0.0915 -0.1398 -0.3701
 6159TIP3    H139968   0.940   4.016  12.966  0.4757 -1.1922 -0.9658
 6159TIP3    H239969   0.849   3.906  12.918 -0.4562 -1.0097  0.3544
 6160TIP3   OH239970   1.127   4.424   4.070  0.4690 -0.2636  0.0694
 6160TIP3    H139971   1.217   4.396   4.083  1.2247  1.2983 -1.2961
 6160TIP3    H239972   1.134   4.499   4.010 -1.7941 -0.6083 -0.7410
 6161TIP3   OH239973   4.314   5.114  14.284 -0.4966 -0.1234 -0.8178
 6161TIP3    H139974   4.356   5.158  14.358 -0.0997  0.7199 -1.5309
 6161TIP3    H239975   4.284   5.030  14.320  0.2229  0.0126  0.1402
 6162TIP3   OH239976   5.009   5.377   0.711  0.1689  0.4404  0.4388
 6162TIP3    H139977   4.994   5.395   0.618 -0.7317 -2.3186 -0.0295
 6162TIP3    H239978   5.049   5.457   0.744  0.2570  1.6215 -2.2492
 6163TIP3   OH239979   0.206   5.425  13.592 -0.0633  0.5164  0.6868
 6163TIP3    H139980   0.116   5.429  13.625 -0.1232  0.3926  0.5392
 6163TIP3    H239981   0.207   5.348  13.534  0.6226 -0.6166  2.1480
 6164TIP3   OH239982   2.893   6.591   6.944 -0.0400  0.4665  0.1022
 6164TIP3    H139983   2.871   6.664   6.887  1.5784  0.6687 -0.3094
 6164TIP3    H239984   2.978   6.560   6.912 -0.2863 -1.0410  0.8157
 6165TIP3   OH239985   4.344   5.203   3.679  0.0647 -0.3078  0.3618
 6165TIP3    H139986   4.421   5.177   3.729  0.7942  0.3601 -0.3699
 6165TIP3    H239987   4.275   5.213   3.744  0.6559 -0.6936  1.0619
 6166TIP3   OH239988   5.587   5.861  11.580 -0.1775 -0.2246 -0.5458
 6166TIP3    H139989   5.615   5.948  11.610 -0.1748 -0.8124  1.3054
 6166TIP3    H239990   5.509   5.877  11.528  0.6133  0.9936 -1.4085
 6167TIP3   OH239991   2.620   0.697   5.309  0.1734 -0.2401 -0.3880
 6167TIP3    H139992   2.671   0.623   5.343  0.1069  0.1715  0.6251
 6167TIP3    H239993   2.629   0.765   5.376 -1.0362  0.1302 -0.5845
 6168TIP3   OH239994   0.466   3.518  14.529 -0.2008  0.5708 -0.1998
 6168TIP3    H139995   0.453   3.523  14.624  2.2970 -2.3187  0.4594
 6168TIP3    H239996   0.388   3.472  14.497 -0.4229  0.3197  0.6684
 6169TIP3   OH239997   6.812   1.010  13.006 -0.5988 -0.2028  0.2804
 6169TIP3    H139998   6.806   0.976  13.095  1.4494  0.1897  0.6316
 6169TIP3    H239999   6.884   0.960  12.967 -0.4276  0.7328 -0.6217
 6170TIP3   OH240000   6.170   0.224  12.396 -0.0583  0.3202  0.5645
 6170TIP3    H140001   6.207   0.140  12.368  0.0960 -0.4351  2.8284
 6170TIP3    H240002   6.246   0.276  12.422 -0.2719  0.5939  0.6466
 6171TIP3   OH240003   3.385   0.968   0.913  0.2166 -0.2080 -0.1807
 6171TIP3    H140004   3.351   0.950   0.825  0.3398  0.5952 -0.3949
 6171TIP3    H240005   3.438   0.890   0.934 -0.7555 -0.9294 -0.3280
 6172TIP3   OH240006   4.421   3.332  16.770 -0.1998  0.2446 -0.0542
 6172TIP3    H140007   4.419   3.388  16.847  0.1555  0.2955 -0.0796
 6172TIP3    H240008   4.436   3.244  16.804  0.3964  0.3268 -0.0893
 6173TIP3   OH240009   5.612   0.722  17.278 -0.9959  0.4473  0.3782
 6173TIP3    H140010   5.554   0.727  17.202  0.0312 -1.1673 -0.5974
 6173TIP3    H240011   5.668   0.647  17.259  0.7984  1.3860  1.6987
 6174TIP3   OH240012   5.665   1.919  13.219 -0.2101  0.3369  0.2821
 6174TIP3    H140013   5.681   1.901  13.126 -0.0160 -0.6093  0.4876
 6174TIP3    H240014   5.605   1.850  13.247  1.1652 -0.5200  1.2889
 6175TIP3   OH240015   3.613   3.948  14.688  0.2095  0.5005  0.5667
 6175TIP3    H140016   3.639   4.026  14.736  2.6920  0.5094 -0.6580
 6175TIP3    H240017   3.659   3.876  14.731 -1.5919 -0.2771  1.3147
 6176TIP3   OH240018   1.035   5.638   0.914  0.4143  0.1189  0.6385
 6176TIP3    H140019   1.017   5.713   0.971  0.5517  1.1662 -0.6252
 6176TIP3    H240020   1.032   5.675   0.825  0.0536 -1.4751 -0.0482
 6177TIP3   OH240021   2.329   2.513   5.577 -0.0114 -0.1702 -0.7125
 6177TIP3    H140022   2.263   2.444   5.582  0.7529 -0.8744 -0.1430
 6177TIP3    H240023   2.345   2.523   5.483 -1.8239  0.9065 -0.9492
 6178TIP3   OH240024   0.408   3.332  13.471 -0.2010 -0.1990  0.5416
 6178TIP3    H140025   0.478   3.327  13.405 -1.1954 -0.7319 -0.4938
 6178TIP3    H240026   0.452   3.312  13.553  1.0693  0.4799  0.0576
 6179TIP3   OH240027   4.328   4.892   0.768 -0.1221  0.2420 -0.3103
 6179TIP3    H140028   4.378   4.947   0.708 -1.0602  0.8730 -0.5391
 6179TIP3    H240029   4.327   4.806   0.727  0.4625  0.3142 -0.4786
 6180TIP3   OH240030   0.307   4.675  11.864  0.3485 -0.3770 -0.6168
 6180TIP3    H140031   0.328   4.694  11.772 -0.2712  0.0785 -0.6735
 6180TIP3    H240032   0.224   4.721  11.879 -0.1073 -1.3396 -0.1385
 6181TIP3   OH240033   6.433   5.720  12.808 -0.3139  0.0038 -0.4341
 6181TIP3    H140034   6.463   5.699  12.719 -0.2390 -0.2375 -0.3527
 6181TIP3    H240035   6.399   5.809  12.801 -0.0076  0.1060 -0.6314
 6182TIP3   OH240036   4.092   5.127  15.654  0.1551  0.3273  0.2501
 6182TIP3    H140037   4.010   5.114  15.701  0.4511 -0.6111  0.5247
 6182TIP3    H240038   4.155   5.149  15.721  0.1845  0.8107  0.0660
 6183TIP3   OH240039   0.942   6.192  17.115 -0.5843  0.6832 -0.1502
 6183TIP3    H140040   0.872   6.131  17.138  0.6771 -0.5142  0.6817
 6183TIP3    H240041   0.896   6.269  17.081 -2.2688 -0.2733 -0.1727
 6184TIP3   OH240042   4.630   6.058   2.746 -0.1701 -0.2455 -0.0373
 6184TIP3    H140043   4.605   6.150   2.752 -0.8207 -0.5080  2.0081
 6184TIP3    H240044   4.700   6.057   2.680 -1.0866  1.4704 -1.1320
 6185TIP3   OH240045   6.417   1.834   5.749 -0.4022  0.1383 -0.2195
 6185TIP3    H140046   6.381   1.766   5.806  1.2198 -1.1752 -0.6995
 6185TIP3    H240047   6.439   1.788   5.668 -2.2289  1.8741 -1.8218
 6186TIP3   OH240048   3.135   4.166   3.186  0.2759 -0.0756  0.0677
 6186TIP3    H140049   3.044   4.195   3.186  0.5611  0.8900 -0.9670
 6186TIP3    H240050   3.142   4.110   3.263 -1.3293 -0.6109 -0.1326
 6187TIP3   OH240051   2.567   1.156  16.234  0.9576 -0.1152  0.3847
 6187TIP3    H140052   2.607   1.242  16.220  0.4389 -0.0333 -0.7135
 6187TIP3    H240053   2.503   1.171  16.303  0.6903  0.4504  0.0238
 6188TIP3   OH240054   2.926   0.400  17.145  0.2973  0.0152 -0.7250
 6188TIP3    H140055   2.852   0.405  17.205  1.7273  2.0934  1.0513
 6188TIP3    H240056   2.986   0.338  17.186  1.2501  1.3897  0.0313
 6189TIP3   OH240057   5.987   4.766  11.879 -0.2127 -0.0857 -0.3168
 6189TIP3    H140058   5.996   4.832  11.810 -1.6575 -0.4169 -0.8332
 6189TIP3    H240059   5.916   4.798  11.934  1.3818  0.5546  1.5047
 6190TIP3   OH240060   6.245   2.772  16.441 -0.7834  0.4285  0.4255
 6190TIP3    H140061   6.278   2.775  16.351  0.8113 -0.5153  0.9577
 6190TIP3    H240062   6.151   2.759  16.430 -0.5031 -0.6130 -1.1067
 6191TIP3   OH240063   0.669   0.025  12.924 -0.2701 -0.6673  0.0011
 6191TIP3    H140064   0.688  -0.062  12.959 -0.3264  0.1346  2.1376
 6191TIP3    H240065   0.573   0.030  12.924 -0.2776 -0.7216 -0.4854
 6192TIP3   OH240066   1.778   6.699   4.013  0.0219  0.1788  0.2980
 6192TIP3    H140067   1.738   6.631   4.067 -1.3970  0.2221 -0.6426
 6192TIP3    H240068   1.711   6.767   4.005  0.0805  0.0680 -1.6640
 6193TIP3   OH240069   3.861   2.443   3.758  0.3084 -0.3794  0.6506
 6193TIP3    H140070   3.934   2.385   3.781  1.2013 -0.1467 -1.3533
 6193TIP3    H240071   3.902   2.521   3.723 -0.9109  0.2619  0.5988
 6194TIP3   OH240072   1.229   1.326   5.418 -0.2667  0.2845  0.6306
 6194TIP3    H140073   1.178   1.315   5.338  3.1095  1.9399 -1.9835
 6194TIP3    H240074   1.213   1.417   5.444  1.0225  0.7318 -0.0564
 6195TIP3   OH240075   5.275   5.174   5.210  0.5272 -0.3719  0.2305
 6195TIP3    H140076   5.343   5.117   5.175  0.6154  0.0640 -0.3169
 6195TIP3    H240077   5.224   5.201   5.134  0.3509  0.1009  0.5134
 6196TIP3   OH240078   1.574   1.295  11.569 -0.3616  0.1878 -0.0665
 6196TIP3    H140079   1.633   1.363  11.603  2.4966 -2.3261  0.4102
 6196TIP3    H240080   1.493   1.307  11.620 -0.2801  3.5478 -0.4762
 6197TIP3   OH240081   3.344   2.436   0.402 -0.0113  0.1739 -0.0451
 6197TIP3    H140082   3.279   2.434   0.471  0.9388  0.9513  0.9146
 6197TIP3    H240083   3.418   2.385   0.436 -0.5885 -1.9331 -1.6804
 6198TIP3   OH240084   1.073   0.833  14.092 -0.2700  0.6924  0.1509
 6198TIP3    H140085   0.981   0.858  14.099 -0.2540  0.7481  0.1633
 6198TIP3    H240086   1.093   0.793  14.176 -0.4532  0.1111 -0.0804
 6199TIP3   OH240087   0.143   6.782   3.715  0.2210  0.0304 -0.1575
 6199TIP3    H140088   0.146   6.775   3.620 -0.1709 -0.0579 -0.1640
 6199TIP3    H240089   0.109   6.870   3.732 -1.0967 -0.4785 -0.1082
 6200TIP3   OH240090   1.883   0.381   1.358 -0.3198 -0.0068 -0.3227
 6200TIP3    H140091   1.943   0.391   1.432 -0.3273 -2.8606  0.1561
 6200TIP3    H240092   1.865   0.471   1.330  3.1653  1.0458  0.3086
 6201TIP3   OH240093   6.103   0.258  15.837  0.0275 -0.2240 -0.3658
 6201TIP3    H140094   6.119   0.347  15.806 -1.3205 -0.2706 -1.2951
 6201TIP3    H240095   6.153   0.202  15.777  1.0492 -0.0891  0.3526
 6202TIP3   OH240096   1.287   2.191  16.327 -0.0030 -0.2824 -0.5643
 6202TIP3    H140097   1.250   2.266  16.374 -1.4819 -0.4513 -1.3769
 6202TIP3    H240098   1.381   2.211  16.320  0.0445  0.3100  1.3300
 6203TIP3   OH240099   0.271   2.291   4.219  0.2709 -0.6426  0.6511
 6203TIP3    H140100   0.248   2.275   4.127  0.1785 -0.9643  0.7260
 6203TIP3    H240101   0.355   2.246   4.231  0.0779 -0.9594  0.8311
 6204TIP3   OH240102   5.161   3.027  14.920  0.0123  0.8224  0.0034
 6204TIP3    H140103   5.170   2.938  14.955 -1.7563  0.6454  0.1053
 6204TIP3    H240104   5.245   3.068  14.938  0.7594 -0.7278  0.2496
 6205TIP3   OH240105   6.129   1.586  16.104 -0.4570  0.6932  0.1039
 6205TIP3    H140106   6.066   1.590  16.176 -0.3393 -1.5961  0.4238
 6205TIP3    H240107   6.208   1.627  16.138  0.6944 -3.0735  2.6213
 6206TIP3   OH240108   6.647   2.500   6.678 -0.6377 -0.1883 -1.0124
 6206TIP3    H140109   6.557   2.472   6.662 -1.7229  2.2705  0.2716
 6206TIP3    H240110   6.640   2.562   6.751  2.3217 -1.1532  0.2604
 6207TIP3   OH240111   6.696   3.096   5.816  0.1848  0.0185  0.5594
 6207TIP3    H140112   6.773   3.134   5.774 -0.2831  1.4068  0.9178
 6207TIP3    H240113   6.730   3.057   5.897  0.4859  0.7907  0.8097
 6208TIP3   OH240114   0.313   6.072  12.170 -0.5963 -0.3024  0.2775
 6208TIP3    H140115   0.251   6.100  12.102  1.0218  0.7694 -0.8426
 6208TIP3    H240116   0.321   5.977  12.157  0.2113 -0.0345 -1.5694
 6209TIP3   OH240117   0.015   1.768   5.372 -0.0795  0.0789 -0.3962
 6209TIP3    H140118   0.069   1.722   5.436  2.5267  1.8511 -1.1281
 6209TIP3    H240119  -0.037   1.700   5.330 -0.3498 -1.3811  2.1421
 6210TIP3   OH240120   2.006   3.232  12.434  0.1118 -0.0175  0.2069
 6210TIP3    H140121   2.027   3.143  12.406 -0.0934 -0.3019  0.9242
 6210TIP3    H240122   1.914   3.229  12.459 -0.7715  1.1353 -2.5812
 6211TIP3   OH240123   2.490   5.133  16.733  0.1250  0.0289 -0.0725
 6211TIP3    H140124   2.422   5.196  16.759 -0.8581 -0.4962 -1.2571
 6211TIP3    H240125   2.445   5.048  16.734  1.0485 -0.4631  0.1126
 6212TIP3   OH240126   3.483   6.468   1.977  0.3348 -0.0171 -0.0953
 6212TIP3    H140127   3.553   6.430   2.030  0.3853  1.5000  1.0112
 6212TIP3    H240128   3.448   6.395   1.927  0.8105 -1.3871  1.4807
 6213TIP3   OH240129   4.654   3.699  11.691 -0.1625 -0.2723 -0.0095
 6213TIP3    H140130   4.718   3.770  11.692 -1.1828  0.6976 -0.7776
 6213TIP3    H240131   4.659   3.664  11.602  0.6726 -1.4931  0.5078
 6214TIP3   OH240132   4.078   4.628   2.315 -0.1809  0.0949 -0.5021
 6214TIP3    H140133   4.002   4.684   2.296 -1.2259 -1.0410  0.1892
 6214TIP3    H240134   4.149   4.667   2.264 -1.1488  1.3612 -0.9574
 6215TIP3   OH240135   5.689   0.525   2.525  0.3336 -0.4179 -0.4713
 6215TIP3    H140136   5.762   0.479   2.565  1.5095 -1.2631 -3.3326
 6215TIP3    H240137   5.636   0.456   2.485  1.0208  0.4383 -3.0865
 6216TIP3   OH240138   5.452   4.863   1.863 -0.1414 -0.5985  0.3887
 6216TIP3    H140139   5.459   4.890   1.954 -0.0527  0.0311  0.2012
 6216TIP3    H240140   5.526   4.804   1.849  2.3228  2.4031 -0.3386
 6217TIP3   OH240141   1.378   5.973   4.283 -0.0304 -0.0185 -0.0686
 6217TIP3    H140142   1.342   5.895   4.240  2.2648 -0.5391 -1.2071
 6217TIP3    H240143   1.319   5.990   4.356 -1.4744 -1.8833 -0.7330
 6218TIP3   OH240144   1.765   1.582  12.485  0.1583  0.2113  0.4484
 6218TIP3    H140145   1.825   1.527  12.435  1.7636  1.2035  1.2152
 6218TIP3    H240146   1.724   1.638  12.419 -1.1613 -1.5026 -0.2815
 6219TIP3   OH240147   0.890   1.627   3.976  0.4090  0.3341 -0.3662
 6219TIP3    H140148   0.908   1.717   3.947  1.7826  0.1426 -0.1317
 6219TIP3    H240149   0.908   1.573   3.899  0.7302  0.1516 -0.1646
 6220TIP3   OH240150   4.978   4.548   4.481 -0.2232  0.1086  0.3846
 6220TIP3    H140151   5.056   4.493   4.473 -0.0418  0.2775  0.9719
 6220TIP3    H240152   4.990   4.595   4.563  1.0800  3.2472 -1.4042
 6221TIP3   OH240153   3.032   5.462   2.864 -0.5802  0.6956  0.1919
 6221TIP3    H140154   3.074   5.408   2.931  0.7692  0.2967 -0.9164
 6221TIP3    H240155   3.034   5.407   2.785  0.0444  2.0265 -0.7542
 6222TIP3   OH240156   5.021   3.304  10.555 -0.4692 -0.3129 -0.1463
 6222TIP3    H140157   4.954   3.308  10.487  0.2128 -2.4764 -1.0218
 6222TIP3    H240158   4.984   3.246  10.622 -0.0705 -0.3337  0.0610
 6223TIP3   OH240159   0.142   5.840   4.154 -0.2862  0.3583 -0.1574
 6223TIP3    H140160   0.174   5.929   4.142  0.0328  0.2298 -0.2601
 6223TIP3    H240161   0.217   5.784   4.133 -0.3527  0.0787  0.3430
 6224TIP3   OH240162   5.807   5.101   4.514 -0.1599  0.4330 -0.1537
 6224TIP3    H140163   5.763   5.185   4.528 -0.2481  0.4734 -0.6483
 6224TIP3    H240164   5.833   5.073   4.601  0.6252  1.3973 -0.0505
 6225TIP3   OH240165   1.777   4.123   2.875  0.6214  0.1796  0.1837
 6225TIP3    H140166   1.704   4.117   2.813  0.3384 -2.2933  0.6364
 6225TIP3    H240167   1.816   4.209   2.858 -0.7773  0.4895 -1.8918
 6226TIP3   OH240168   5.607   6.311  15.704 -0.2748  0.2904 -0.2020
 6226TIP3    H140169   5.589   6.325  15.611 -0.1916  0.0944 -0.2481
 6226TIP3    H240170   5.615   6.399  15.741  0.8219  0.3622 -0.5940
 6227TIP3   OH240171   2.339   2.868   3.048  0.3102  0.0697  0.3389
 6227TIP3    H140172   2.406   2.933   3.025  0.5040 -0.0324  0.6058
 6227TIP3    H240173   2.270   2.918   3.090  1.8499 -0.2230  3.5477
 6228TIP3   OH240174   6.764   6.227  14.933 -1.0357  0.4677  0.5125
 6228TIP3    H140175   6.728   6.261  15.015 -1.5990  0.2894  0.3453
 6228TIP3    H240176   6.688   6.221  14.875 -1.0466 -1.4419  0.6592
 6229TIP3   OH240177   0.309   1.450  12.750 -0.1676  0.5713  0.5110
 6229TIP3    H140178   0.271   1.494  12.674  0.5644  0.2440 -0.0552
 6229TIP3    H240179   0.308   1.517  12.819  2.7526  2.2656 -0.8602
 6230TIP3   OH240180   1.897   1.590  13.956  0.5699  0.7169  0.3591
 6230TIP3    H140181   1.819   1.559  14.004 -0.7182  1.7941 -0.9517
 6230TIP3    H240182   1.935   1.510  13.919 -0.0650  0.2060  0.7767
 6231TIP3   OH240183   3.982   5.486  13.645  0.3127 -0.8612 -0.5191
 6231TIP3    H140184   4.045   5.495  13.716  0.5638 -0.7469 -0.7583
 6231TIP3    H240185   4.031   5.446  13.573  0.2484 -0.2732 -0.8905
 6232TIP3   OH240186   5.625   6.637  16.078  0.8762  0.2237 -0.1324
 6232TIP3    H140187   5.646   6.578  16.150 -2.9558 -0.5428  0.5559
 6232TIP3    H240188   5.601   6.720  16.120  1.3350  0.6972 -0.7657
 6233TIP3   OH240189   3.664   1.049   4.570  0.0515 -0.2691  0.2364
 6233TIP3    H140190   3.667   1.144   4.584  0.8952 -0.3499  0.6067
 6233TIP3    H240191   3.754   1.019   4.584  0.2249 -0.8542 -1.7918
 6234TIP3   OH240192   3.041   2.353  17.316  0.0303  1.1100 -0.1362
 6234TIP3    H140193   3.054   2.345  17.410  1.0940  1.1953 -0.2567
 6234TIP3    H240194   2.989   2.276  17.292  0.6119  0.5406  0.3813
 6235TIP3   OH240195   3.364   0.225  14.312 -0.0578  0.3170 -0.4151
 6235TIP3    H140196   3.412   0.227  14.395 -0.1598  1.9059 -0.3779
 6235TIP3    H240197   3.286   0.173  14.332  0.0804  0.4075  0.3922
 6236TIP3   OH240198   3.524   2.219  15.136  0.0341  0.4212 -0.2887
 6236TIP3    H140199   3.547   2.288  15.198 -2.4571  0.7227  0.3902
 6236TIP3    H240200   3.450   2.174  15.176  0.1843 -1.2304 -1.7512
 6237TIP3   OH240201   5.498   5.222   4.804  0.3246 -0.7715  0.0167
 6237TIP3    H140202   5.589   5.250   4.808 -0.0994  0.5319  1.4951
 6237TIP3    H240203   5.499   5.147   4.744  2.2325 -0.3514 -0.5551
 6238TIP3   OH240204   1.471   6.368  10.497  0.2317  0.9505  0.4708
 6238TIP3    H140205   1.381   6.401  10.500  0.0021  0.2503  3.0143
 6238TIP3    H240206   1.499   6.386  10.407 -2.5769  0.7681 -0.5570
 6239TIP3   OH240207   5.733   2.253  10.618 -0.6250 -0.0018 -0.2411
 6239TIP3    H140208   5.821   2.220  10.603 -0.5887 -0.4919  0.9891
 6239TIP3    H240209   5.700   2.203  10.692 -0.7254  2.4197  1.4660
 6240TIP3   OH240210   0.417   5.979   2.512 -0.6378  0.4808  0.7276
 6240TIP3    H140211   0.421   5.989   2.417 -0.2339  0.5447  0.7511
 6240TIP3    H240212   0.408   5.885   2.527 -0.0785  0.4122  0.6455
 6241TIP3   OH240213   5.988   3.558  13.592  0.6702  0.2233  0.0149
 6241TIP3    H140214   5.956   3.554  13.502  0.9348  3.0431 -0.3059
 6241TIP3    H240215   6.050   3.631  13.592  1.1589 -0.1040  2.3678
 6242TIP3   OH240216   3.067   6.313  15.395  0.9896  0.1554  0.4428
 6242TIP3    H140217   3.019   6.333  15.315  0.1951  0.1706  0.9143
 6242TIP3    H240218   3.158   6.334  15.375  1.2836 -2.3098 -1.3702
 6243TIP3   OH240219   0.185   5.221   1.175 -0.0082 -0.4998 -0.3057
 6243TIP3    H140220   0.154   5.136   1.141  1.3117 -1.4199  0.6853
 6243TIP3    H240221   0.225   5.200   1.259  0.4999  1.1027 -0.1121
 6244TIP3   OH240222   6.553   0.903   0.723  0.3132 -0.2462 -0.4809
 6244TIP3    H140223   6.614   0.964   0.683 -0.1724  1.0374  0.6635
 6244TIP3    H240224   6.470   0.950   0.725 -0.0888 -0.9597  0.3650
 6245TIP3   OH240225   5.066   6.701   3.707 -0.5079  0.0397 -0.0124
 6245TIP3    H140226   5.067   6.797   3.707 -1.7022  0.0566  0.0133
 6245TIP3    H240227   5.001   6.677   3.773 -0.7426 -0.7815 -0.5261
 6246TIP3   OH240228   6.761   3.139   0.216  0.5179  0.0866 -0.2777
 6246TIP3    H140229   6.737   3.232   0.220 -1.2135 -0.2378 -1.6885
 6246TIP3    H240230   6.695   3.095   0.271  0.7761 -0.3870 -0.3458
 6247TIP3   OH240231   4.848   3.878  14.065  0.5630  0.6893 -0.3503
 6247TIP3    H140232   4.900   3.848  13.990  2.4636  0.6194  0.9140
 6247TIP3    H240233   4.913   3.896  14.133 -1.1932 -1.0141  1.9226
 6248TIP3   OH240234   0.842   1.012  12.223 -0.6134  0.2760  0.1391
 6248TIP3    H140235   0.758   1.057  12.220 -1.0910 -0.4943  1.0990
 6248TIP3    H240236   0.846   0.975  12.312  0.5168 -0.1073 -0.0520
 6249TIP3   OH240237   6.306   5.295  13.336 -0.0151  0.4785  0.4218
 6249TIP3    H140238   6.379   5.253  13.289  1.2941  0.7103  2.1150
 6249TIP3    H240239   6.231   5.237  13.321  0.6748 -0.1209 -0.8526
 6250TIP3   OH240240   4.243   0.362   1.678 -0.3150  0.2079  0.0590
 6250TIP3    H140241   4.199   0.289   1.722  0.5563 -1.3076 -1.4898
 6250TIP3    H240242   4.286   0.410   1.750  1.8165 -2.6916  0.9138
 6251TIP3   OH240243   5.744   6.708   3.119  0.4274  0.2261 -0.4054
 6251TIP3    H140244   5.763   6.707   3.026 -2.2257 -1.0300 -1.0328
 6251TIP3    H240245   5.648   6.710   3.124  0.4814  0.2325  2.2907
 6252TIP3   OH240246   1.480   4.842   5.395 -0.2182 -0.5000 -0.1520
 6252TIP3    H140247   1.397   4.888   5.391  1.2762  2.3310 -1.9859
 6252TIP3    H240248   1.515   4.862   5.482  0.6237  2.5079 -1.0795
 6253TIP3   OH240249   0.426   4.999  11.024  0.1282 -0.3728 -0.2341
 6253TIP3    H140250   0.416   5.032  10.935  0.1055 -1.8327 -0.7870
 6253TIP3    H240251   0.337   5.003  11.061  0.1722  0.4214 -0.1887
 6254TIP3   OH240252   3.486   2.246  14.393 -0.3938  0.5397  0.3479
 6254TIP3    H140253   3.557   2.223  14.453 -2.1522 -1.3950  1.8599
 6254TIP3    H240254   3.408   2.250  14.449 -1.5190  2.5738 -1.2391
 6255TIP3   OH240255   0.434   1.230  12.651 -0.2363 -0.0432 -0.1225
 6255TIP3    H140256   0.385   1.300  12.693  1.4482  0.6462  0.7774
 6255TIP3    H240257   0.482   1.274  12.580  2.1755  0.1511  1.5020
 6256TIP3   OH240258   0.940   6.187   5.014  0.1425 -0.6068  0.0944
 6256TIP3    H140259   0.900   6.133   5.083  1.2463 -0.6707  0.7244
 6256TIP3    H240260   1.021   6.140   4.992  0.1899 -0.1668 -0.6925
 6257TIP3   OH240261   0.005   4.822   1.286  0.7736  0.1630  0.3306
 6257TIP3    H140262  -0.078   4.783   1.313 -0.1325  1.5437 -0.3698
 6257TIP3    H240263   0.037   4.865   1.365  0.7893 -0.2928  0.5777
 6258TIP3   OH240264   2.384   4.427  13.533  0.5641 -0.6355 -0.3831
 6258TIP3    H140265   2.382   4.401  13.441 -0.4851 -0.0675 -0.5411
 6258TIP3    H240266   2.324   4.367  13.577  2.4416 -2.1048  0.3016
 6259TIP3   OH240267   4.542   0.322   2.046 -0.2596 -0.3338  0.0509
 6259TIP3    H140268   4.581   0.288   1.965 -2.7057  0.2294 -1.4787
 6259TIP3    H240269   4.582   0.408   2.057  1.9586 -1.4157  0.9138
 6260TIP3   OH240270   4.480   5.310   0.273  0.0021 -0.5123 -0.4450
 6260TIP3    H140271   4.399   5.324   0.322  1.0514  1.0088  0.9587
 6260TIP3    H240272   4.518   5.231   0.313  0.0567 -0.2217  0.0820
 6261TIP3   OH240273   5.989   1.986  15.711  0.1089  0.4534 -0.0450
 6261TIP3    H140274   6.065   2.003  15.656  0.0191 -0.3068 -0.4206
 6261TIP3    H240275   6.007   1.900  15.751 -0.1587  0.6587  0.5336
 6262TIP3   OH240276   0.166   5.437   6.559 -0.7321 -0.1078 -0.1230
 6262TIP3    H140277   0.145   5.505   6.495 -0.1123 -0.7729 -1.0557
 6262TIP3    H240278   0.261   5.430   6.558 -0.6694  0.2546  1.2978
 6263TIP3   OH240279   5.240   2.950   1.123 -0.2889 -0.1134  0.4988
 6263TIP3    H140280   5.201   2.880   1.071  0.6235 -0.7713  0.6686
 6263TIP3    H240281   5.215   2.929   1.214  0.5228 -0.6087  0.6226
 6264TIP3   OH240282   1.270   6.339  12.315  0.3920 -0.2038 -0.2487
 6264TIP3    H140283   1.313   6.268  12.363  0.4694 -0.4261 -0.6416
 6264TIP3    H240284   1.279   6.315  12.223  0.8346  0.5517 -0.4176
 6265TIP3   OH240285   6.527   6.260  12.680 -0.0945 -0.3864  0.3820
 6265TIP3    H140286   6.436   6.289  12.675  0.4981  1.5405 -0.2052
 6265TIP3    H240287   6.560   6.269  12.590  0.7936 -0.5872  0.6752
 6266TIP3   OH240288   5.940   3.103   3.458 -0.1459  0.7091 -0.7979
 6266TIP3    H140289   5.943   3.167   3.386 -0.7439  0.3008 -1.1965
 6266TIP3    H240290   5.847   3.099   3.482  0.1509  1.5057  0.6131
 6267TIP3   OH240291   0.628   6.297  11.237 -0.5885  0.6755  0.0384
 6267TIP3    H140292   0.546   6.282  11.190 -1.6195  1.0719  1.6467
 6267TIP3    H240293   0.601   6.335  11.320  1.1087 -0.9722  1.4150
 6268TIP3   OH240294   6.337   2.338   4.467 -0.1365  0.3104  0.1709
 6268TIP3    H140295   6.346   2.321   4.561 -1.6733  0.5328  0.3919
 6268TIP3    H240296   6.249   2.374   4.458 -0.8555 -1.7196 -1.6286
 6269TIP3   OH240297   6.067   1.465  14.097 -0.1600 -0.3623  0.0495
 6269TIP3    H140298   6.153   1.467  14.139 -0.1372  1.2629  0.0045
 6269TIP3    H240299   6.025   1.387  14.131  1.4763 -1.4054 -0.2295
 6270TIP3   OH240300   1.372   4.611  16.507 -0.5791  0.5630 -0.1380
 6270TIP3    H140301   1.361   4.602  16.601 -1.0150  0.3472 -0.2063
 6270TIP3    H240302   1.326   4.535  16.470  2.6466 -1.4838 -0.3697
 6271TIP3   OH240303   0.103   1.810  12.809 -0.2197 -0.0347  1.0629
 6271TIP3    H140304   0.113   1.898  12.844  0.3468  0.5866 -0.5602
 6271TIP3    H240305   0.024   1.815  12.755  0.8580  0.0751 -0.5997
 6272TIP3   OH240306   4.833   1.337  16.745  0.1742  0.3269 -0.4538
 6272TIP3    H140307   4.842   1.404  16.678 -0.3029  0.5060 -0.3488
 6272TIP3    H240308   4.739   1.318  16.747  0.1557  0.4477  0.2789
 6273TIP3   OH240309   0.764   6.148  15.299 -0.3762 -0.3117  0.0809
 6273TIP3    H140310   0.817   6.084  15.347  0.7007  2.2750  2.6067
 6273TIP3    H240311   0.675   6.113  15.305  0.1977 -1.7233  1.1707
 6274TIP3   OH240312   0.330   5.048  12.272 -0.7034  0.5695  0.1003
 6274TIP3    H140313   0.337   5.047  12.177  0.5944 -0.7992  0.1656
 6274TIP3    H240314   0.392   5.116  12.300 -2.0542  1.9083 -0.0474
 6275TIP3   OH240315   0.766   5.358   4.710 -0.3375 -0.2087  0.7642
 6275TIP3    H140316   0.803   5.431   4.760  1.4459 -0.1921 -0.4969
 6275TIP3    H240317   0.722   5.401   4.636 -1.7397 -0.3092  1.5010
 6276TIP3   OH240318   6.306   1.229   0.900 -0.1017 -0.3849  0.0675
 6276TIP3    H140319   6.346   1.176   0.831 -0.6025 -0.5290 -0.1138
 6276TIP3    H240320   6.339   1.318   0.884 -1.1434 -0.1853 -1.0837
 6277TIP3   OH240321   2.301   1.744   2.772 -0.0792  0.1309 -0.4526
 6277TIP3    H140322   2.390   1.766   2.746  0.4223 -1.3130 -0.0446
 6277TIP3    H240323   2.247   1.773   2.699  1.0561 -1.7920 -2.1727
 6278TIP3   OH240324   4.982   2.907  14.310 -0.4561  0.2817  1.2315
 6278TIP3    H140325   4.980   2.842  14.380 -0.3373 -1.3914 -0.2613
 6278TIP3    H240326   4.896   2.901  14.269 -0.4754  1.1594  1.1146
 6279TIP3   OH240327   3.790   1.332   2.468  0.0260 -0.3856  0.2660
 6279TIP3    H140328   3.802   1.394   2.396  1.5454 -0.8461  0.0778
 6279TIP3    H240329   3.721   1.370   2.522  1.3918  1.8902  0.5560
 6280TIP3   OH240330   5.726   4.887  13.738  0.3410  0.3776  0.2780
 6280TIP3    H140331   5.671   4.923  13.669  0.8996  1.1215  0.2041
 6280TIP3    H240332   5.752   4.963  13.791  2.3710  0.2692 -0.4668
 6281TIP3   OH240333   3.346   4.157   4.126 -0.0524  0.4574 -0.1958
 6281TIP3    H140334   3.386   4.075   4.154 -1.2369  0.4487  1.6333
 6281TIP3    H240335   3.298   4.135   4.047  2.1243  0.1191 -1.5090
 6282TIP3   OH240336   0.674   0.767  16.989  0.0116  0.1554  0.9464
 6282TIP3    H140337   0.631   0.787  16.906  0.7727 -0.6735  0.3252
 6282TIP3    H240338   0.768   0.767  16.968  0.1576 -1.3487  1.4934
 6283TIP3   OH240339   1.641   5.667  12.542 -0.4011  0.4837  0.2928
 6283TIP3    H140340   1.667   5.613  12.467  0.4464 -0.7742  1.4426
 6283TIP3    H240341   1.632   5.605  12.614 -0.9369  1.6969  1.3079
 6284TIP3   OH240342   4.506   5.992   3.003 -0.2013 -0.7494  0.4227
 6284TIP3    H140343   4.550   6.066   3.043 -0.9587 -0.4737  0.7512
 6284TIP3    H240344   4.526   6.000   2.909 -0.4685 -0.0069  0.4248
 6285TIP3   OH240345   3.554   1.874   3.987 -0.6731  0.5361  0.7016
 6285TIP3    H140346   3.535   1.842   4.075 -2.1564 -0.9399 -0.0792
 6285TIP3    H240347   3.647   1.856   3.974 -0.5693  0.2474  1.7628
 6286TIP3   OH240348   4.464   2.601   0.384  0.3768  0.0422  0.6811
 6286TIP3    H140349   4.400   2.672   0.378 -0.9494 -0.7947  3.4487
 6286TIP3    H240350   4.427   2.540   0.448  3.0268 -1.4895  0.9080
 6287TIP3   OH240351   4.442   6.677  16.145 -0.2945  0.3708  0.1979
 6287TIP3    H140352   4.399   6.591  16.146  1.6081 -0.6958  2.5522
 6287TIP3    H240353   4.536   6.657  16.147  0.2084  2.5124  0.4075
 6288TIP3   OH240354   2.234   2.284  14.388  0.1854 -0.0775  0.2754
 6288TIP3    H140355   2.285   2.227  14.331  1.1069 -0.3398  1.3338
 6288TIP3    H240356   2.291   2.358  14.405 -0.2998  0.2714  0.4045
 6289TIP3   OH240357   1.431   1.347   0.524  0.3485 -0.1567 -0.1663
 6289TIP3    H140358   1.398   1.346   0.434 -1.2790  1.5384  0.3513
 6289TIP3    H240359   1.460   1.257   0.539 -2.3128 -1.3451 -1.3615
 6290TIP3   OH240360   6.286   6.789  10.369 -0.1135 -0.3977  0.6553
 6290TIP3    H140361   6.196   6.783  10.338  0.0748  0.1428 -0.0404
 6290TIP3    H240362   6.338   6.797  10.289  0.6172 -1.3629  1.0119
 6291TIP3   OH240363   1.303   0.200   4.375 -0.0132 -0.2166  0.1307
 6291TIP3    H140364   1.345   0.156   4.302 -1.1453 -0.8381 -0.1774
 6291TIP3    H240365   1.361   0.184   4.450  1.6084  1.1798 -0.7738
 6292TIP3   OH240366   1.004   2.220  14.987 -0.5671  0.7752  0.3333
 6292TIP3    H140367   0.943   2.184  15.052 -0.1631 -0.8273 -0.1280
 6292TIP3    H240368   0.949   2.265  14.924 -1.4089 -1.3396 -0.5275
 6293TIP3   OH240369   1.636   4.241   4.292  0.1416 -0.2531  0.3823
 6293TIP3    H140370   1.670   4.153   4.280 -0.0171 -0.2390 -0.1542
 6293TIP3    H240371   1.641   4.281   4.206 -0.2435  0.1045  0.5239
 6294TIP3   OH240372   4.942   3.531  13.850 -0.0450 -0.0443 -0.0692
 6294TIP3    H140373   4.975   3.469  13.784 -2.2307 -1.8894  0.4494
 6294TIP3    H240374   4.849   3.540  13.829  0.2101  3.3115 -0.2173
 6295TIP3   OH240375   4.162   0.199  13.754  0.3693 -0.2525  0.0107
 6295TIP3    H140376   4.079   0.243  13.735  0.4186  0.1326  0.6339
 6295TIP3    H240377   4.227   0.245  13.701  0.2987 -0.0444  0.1000
 6296TIP3   OH240378   4.646   0.541  12.137 -0.0632  0.3304 -0.3246
 6296TIP3    H140379   4.671   0.557  12.046 -2.1562 -0.9507 -1.2128
 6296TIP3    H240380   4.641   0.446  12.144  1.5014  0.3468  1.6060
 6297TIP3   OH240381   0.222   1.148  11.778  0.3272 -0.3062 -0.2155
 6297TIP3    H140382   0.156   1.092  11.736 -0.4508  0.9671 -0.7517
 6297TIP3    H240383   0.202   1.236  11.746 -0.4821  0.8143  3.0159
 6298TIP3   OH240384   4.500   5.655  15.308 -0.3081  0.0965  0.0518
 6298TIP3    H140385   4.415   5.640  15.267 -0.3179  1.0218 -0.2836
 6298TIP3    H240386   4.489   5.737  15.355  0.4220  0.2444 -0.0318
 6299TIP3   OH240387   6.680   0.995  16.534 -0.0087 -0.2173  0.4470
 6299TIP3    H140388   6.587   0.983  16.551 -0.2343  1.8742  0.9203
 6299TIP3    H240389   6.718   1.017  16.619  0.9596 -1.1468  0.2778
 6300TIP3   OH240390   6.196   1.105   3.804  0.0622  0.1104 -0.1368
 6300TIP3    H140391   6.127   1.087   3.740 -0.2825  1.6267 -0.2265
 6300TIP3    H240392   6.220   1.019   3.838 -0.5695 -0.6157 -1.4503
 6301TIP3   OH240393   4.060   0.842   2.831  0.3238  0.2353 -0.7036
 6301TIP3    H140394   4.061   0.748   2.810  0.9870  0.6049 -2.4806
 6301TIP3    H240395   4.026   0.884   2.752  0.5231  1.5495 -0.1154
 6302TIP3   OH240396   2.970   0.985  16.499  0.3135 -0.2369  0.1762
 6302TIP3    H140397   2.916   0.918  16.457  1.2347 -1.5328  0.9818
 6302TIP3    H240398   2.916   1.064  16.498 -0.6210 -0.8561 -1.2334
 6303TIP3   OH240399   4.548   5.254  15.009  0.0002  0.3123  0.1781
 6303TIP3    H140400   4.619   5.318  15.008 -0.8328  1.2719  0.5994
 6303TIP3    H240401   4.578   5.183  14.953  0.6574  1.3921 -0.8768
 6304TIP3   OH240402   0.656   1.999  14.897  0.6075  0.2490 -0.0966
 6304TIP3    H140403   0.590   1.930  14.896  1.5136 -0.7994  2.3473
 6304TIP3    H240404   0.721   1.971  14.833  0.4417 -0.6497  0.1055
 6305TIP3   OH240405   4.105   5.691   5.323 -0.5452  0.8640 -0.8839
 6305TIP3    H140406   4.115   5.783   5.300 -0.5137  0.2898 -3.4110
 6305TIP3    H240407   4.185   5.650   5.290  0.5806  0.1881  2.2761
 6306TIP3   OH240408   4.984   1.158   3.298  0.0040  0.2118  0.7192
 6306TIP3    H140409   5.078   1.143   3.296  0.2582  1.5478  1.3119
 6306TIP3    H240410   4.953   1.125   3.213  1.4396  2.2759 -0.7140
 6307TIP3   OH240411   3.331   4.698  11.951 -0.2728 -0.0602 -0.2806
 6307TIP3    H140412   3.263   4.720  12.014 -0.4377 -1.5654  0.0893
 6307TIP3    H240413   3.413   4.725  11.993 -0.5674  1.3624 -0.5515
 6308TIP3   OH240414   2.361   0.994  16.777 -0.4979 -0.5089 -0.3708
 6308TIP3    H140415   2.359   0.951  16.863 -1.5008 -1.5249 -0.8774
 6308TIP3    H240416   2.441   0.962  16.736  0.5770  0.8341  0.5770
 6309TIP3   OH240417   5.409   6.295   1.464 -0.2206  0.3302 -0.5448
 6309TIP3    H140418   5.435   6.296   1.556 -1.8467  0.4291 -0.0586
 6309TIP3    H240419   5.357   6.375   1.452  1.0418  0.9981 -1.8945
 6310TIP3   OH240420   2.948   4.559   2.063 -0.0676 -0.0077  0.5161
 6310TIP3    H140421   3.020   4.614   2.094 -0.6213  0.8024  0.3932
 6310TIP3    H240422   2.991   4.487   2.018  0.6619  0.6402  0.1579
 6311TIP3   OH240423   6.572   0.056  11.069  0.3792  0.1528 -0.3934
 6311TIP3    H140424   6.561   0.144  11.034 -1.2642  0.9370  1.8506
 6311TIP3    H240425   6.494   0.008  11.038  0.0375  0.2182  0.3450
 6312TIP3   OH240426   4.376   0.362   0.875 -0.3473  0.3976 -0.1073
 6312TIP3    H140427   4.350   0.404   0.957  1.6742  0.2754  0.6615
 6312TIP3    H240428   4.350   0.271   0.886  0.4398  0.2543  0.6758
 6313TIP3   OH240429   5.435   2.051   4.607  0.8618  0.8556 -0.3944
 6313TIP3    H140430   5.464   1.961   4.618  0.5145  0.9467  1.5183
 6313TIP3    H240431   5.368   2.047   4.539  1.5074 -0.1673 -0.9897
 6314TIP3   OH240432   4.338   2.372   6.529 -0.4078 -0.5533  0.2750
 6314TIP3    H140433   4.330   2.284   6.565 -0.2628 -0.0603  1.5757
 6314TIP3    H240434   4.249   2.407   6.532 -0.7591 -1.1708 -1.7054
 6315TIP3   OH240435   3.099   6.215   3.834 -0.2048  0.0107 -0.3665
 6315TIP3    H140436   3.020   6.253   3.873  0.8187  0.1122  1.7321
 6315TIP3    H240437   3.135   6.160   3.903 -0.0484 -2.5192 -2.3111
 6316TIP3   OH240438   1.343   1.214   3.999  0.1651  0.9758  0.5133
 6316TIP3    H140439   1.264   1.244   4.043  0.6860  1.4513  1.1470
 6316TIP3    H240440   1.312   1.154   3.931 -0.7736  1.6157  0.3626
 6317TIP3   OH240441   5.020   2.675  12.612  0.2304  0.3081 -0.2068
 6317TIP3    H140442   4.925   2.689  12.616  0.2747  0.3466  1.8560
 6317TIP3    H240443   5.030   2.580  12.607  0.1020  0.2929 -0.1808
 6318TIP3   OH240444   3.058   4.281   2.281 -0.3504 -0.2778  0.1762
 6318TIP3    H140445   3.119   4.208   2.266  0.6365  0.6343 -0.4127
 6318TIP3    H240446   3.089   4.322   2.362  1.2010  1.4493 -1.1807
 6319TIP3   OH240447   2.057   3.041  14.540  0.0446  0.6528 -0.8584
 6319TIP3    H140448   2.119   2.998  14.599  0.0393  0.6128 -0.8814
 6319TIP3    H240449   2.012   2.969  14.496 -0.6777  0.6619 -0.1645
 6320TIP3   OH240450   5.784   2.273   4.849 -0.4955  0.5345 -0.0038
 6320TIP3    H140451   5.803   2.363   4.876  0.4660  0.1841  0.5541
 6320TIP3    H240452   5.837   2.259   4.771  0.5231 -0.0134  0.7687
 6321TIP3   OH240453   2.687   5.009   0.211  0.0592 -0.0740 -0.1027
 6321TIP3    H140454   2.620   4.941   0.202 -1.6669  1.6092 -0.6050
 6321TIP3    H240455   2.684   5.057   0.128  0.7522  1.0275  0.4874
 6322TIP3   OH240456   5.362   0.687   1.013 -0.4379  0.4455  0.5810
 6322TIP3    H140457   5.317   0.625   0.956 -0.9678 -0.1279  1.6055
 6322TIP3    H240458   5.377   0.763   0.957  2.1172 -1.3167 -1.3593
 6323TIP3   OH240459   4.070   1.914  13.665  0.0990  0.0836  0.4311
 6323TIP3    H140460   4.035   1.901  13.753  1.0947  1.9952  1.1665
 6323TIP3    H240461   4.001   1.882  13.607 -1.1840  0.1112  1.8816
 6324TIP3   OH240462   1.868   4.733   0.492  0.2635  0.2117  0.2667
 6324TIP3    H140463   1.900   4.665   0.551  0.0580 -0.3574 -0.2670
 6324TIP3    H240464   1.776   4.743   0.514 -0.4071 -1.6419 -1.4701
 6325TIP3   OH240465   0.440   0.233  16.808 -0.5870 -0.7140  0.1038
 6325TIP3    H140466   0.482   0.221  16.723 -0.7407 -1.1297  0.0834
 6325TIP3    H240467   0.350   0.202  16.795 -1.5547  2.0113 -0.4175
 6326TIP3   OH240468   0.512   4.074  11.594  0.1740 -0.5784  0.0014
 6326TIP3    H140469   0.510   4.052  11.687  0.4495 -0.5053  0.0256
 6326TIP3    H240470   0.568   4.007  11.554 -0.2680 -0.8432 -0.1751
 6327TIP3   OH240471   4.976   2.959   2.930 -0.5666 -1.3312 -0.0812
 6327TIP3    H140472   4.980   2.947   2.835 -0.7335 -0.8973 -0.1457
 6327TIP3    H240473   4.968   3.054   2.942  0.1267 -1.3316  0.3933
 6328TIP3   OH240474   4.978   4.820   3.179  0.3268  0.6644 -0.0878
 6328TIP3    H140475   5.026   4.903   3.188  2.7016 -0.4995 -1.0354
 6328TIP3    H240476   4.992   4.775   3.262  0.0507  0.7037 -0.0179
 6329TIP3   OH240477   3.924   0.903   4.548 -0.0763  0.1504 -0.1011
 6329TIP3    H140478   3.995   0.953   4.587  0.4007  0.8350 -1.7781
 6329TIP3    H240479   3.936   0.814   4.582 -0.1719  0.8540  1.8925
 6330TIP3   OH240480   1.021   1.328   5.231 -0.1503  0.0984  0.2263
 6330TIP3    H140481   1.016   1.288   5.143 -4.3879 -0.2548  0.4248
 6330TIP3    H240482   1.051   1.417   5.215  1.1072 -0.5485 -1.3011
 6331TIP3   OH240483   3.318   4.831   4.011  0.3202 -0.1470 -0.0627
 6331TIP3    H140484   3.230   4.820   4.048  0.4134 -2.6768 -0.3914
 6331TIP3    H240485   3.326   4.760   3.947  2.3827  0.4054 -0.4899
 6332TIP3   OH240486   5.129   4.240   6.746 -0.0962  0.0466  0.2688
 6332TIP3    H140487   5.066   4.303   6.710 -1.5174  0.1198  2.6230
 6332TIP3    H240488   5.138   4.173   6.678  1.2844  2.5800 -2.2267
 6333TIP3   OH240489   2.580   2.761   1.645  0.3504  0.9966  0.3381
 6333TIP3    H140490   2.485   2.756   1.645  0.3449  1.0361 -0.0501
 6333TIP3    H240491   2.603   2.784   1.555  0.7581  0.2177  0.2331
 6334TIP3   OH240492   3.819   3.842   5.240 -0.6329 -0.9513  0.1205
 6334TIP3    H140493   3.888   3.908   5.237 -2.2767  0.8418 -0.2052
 6334TIP3    H240494   3.835   3.788   5.163 -0.0141 -0.1254 -0.3490
 6335TIP3   OH240495   0.923   5.868   4.277 -0.2189 -0.1334 -0.3137
 6335TIP3    H140496   0.968   5.900   4.199 -0.2118 -1.1162 -0.7266
 6335TIP3    H240497   0.869   5.795   4.246  0.4177 -1.0926  0.7083
 6336TIP3   OH240498   1.816   5.667   5.296  0.6289 -0.6683 -0.4647
 6336TIP3    H140499   1.748   5.640   5.234 -0.7190 -0.6693  0.9592
 6336TIP3    H240500   1.809   5.763   5.299  0.0765 -0.7279  0.3411
 6337TIP3   OH240501   2.552   4.634  11.466  0.3783  0.4041  0.2172
 6337TIP3    H140502   2.597   4.705  11.419 -1.2977  1.6780  0.4551
 6337TIP3    H240503   2.544   4.667  11.556  0.1978 -0.3940  0.4960
 6338TIP3   OH240504   0.648   0.506  11.261  0.4456  0.0623 -0.4264
 6338TIP3    H140505   0.668   0.481  11.171 -0.9475  0.4977 -0.8853
 6338TIP3    H240506   0.562   0.548  11.255 -0.5169 -1.5141  1.3454
 6339TIP3   OH240507   1.162   1.018  15.204  0.5703 -0.4246  0.4706
 6339TIP3    H140508   1.152   1.105  15.241  1.7692  0.0085 -0.1960
 6339TIP3    H240509   1.256   1.006  15.193  0.3454 -1.1251 -1.0467
 6340TIP3   OH240510   1.506   0.404  10.614  0.8244 -0.0755  0.1977
 6340TIP3    H140511   1.430   0.390  10.558  0.6404  1.9905 -0.1418
 6340TIP3    H240512   1.578   0.422  10.554  0.3269  3.6434  0.4565
 6341TIP3   OH240513   4.926   4.032   1.090  0.3906 -0.0275 -0.2634
 6341TIP3    H140514   4.906   4.103   1.030  0.0601  1.0481  1.0635
 6341TIP3    H240515   5.005   3.992   1.055 -1.2618 -1.2402 -2.9315
 6342TIP3   OH240516   5.141   6.098  10.483 -0.2712 -0.2330  0.1909
 6342TIP3    H140517   5.181   6.182  10.504 -0.6111 -0.5474  2.3158
 6342TIP3    H240518   5.066   6.091  10.542 -0.4603 -1.8558 -0.1871
 6343TIP3   OH240519   6.643   0.671   5.872  0.1586 -0.0051  0.3489
 6343TIP3    H140520   6.674   0.758   5.898 -0.3445 -0.0764  1.1880
 6343TIP3    H240521   6.710   0.611   5.905 -0.4583 -0.0926  1.4759
 6344TIP3   OH240522   3.624   2.160  16.749 -0.0191  0.1374 -0.1840
 6344TIP3    H140523   3.571   2.118  16.680  1.0919 -1.1137 -0.3216
 6344TIP3    H240524   3.563   2.173  16.821 -0.7416 -0.4278 -0.6758
 6345TIP3   OH240525   4.888   0.760   3.785 -0.0421 -0.6299 -0.3351
 6345TIP3    H140526   4.901   0.813   3.863 -1.9357  0.7974 -0.9070
 6345TIP3    H240527   4.835   0.815   3.727 -0.2607 -2.3437 -1.8672
 6346TIP3   OH240528   3.346   4.914  12.710  0.2259  0.6710  0.2089
 6346TIP3    H140529   3.280   4.846  12.722 -0.0978  0.6684 -1.3107
 6346TIP3    H240530   3.320   4.984  12.770 -1.1608  0.6522 -0.3152
 6347TIP3   OH240531   6.438   4.218  15.357 -0.0870  0.0946  0.1561
 6347TIP3    H140532   6.376   4.232  15.429  0.3128  0.8576  0.3677
 6347TIP3    H240533   6.494   4.147  15.386  0.5127  0.8490  0.9200
 6348TIP3   OH240534   5.816   6.257  16.865 -0.4880 -0.0338 -0.1067
 6348TIP3    H140535   5.910   6.253  16.850 -0.5770 -0.8342 -0.4720
 6348TIP3    H240536   5.807   6.244  16.960 -0.2498 -0.1607 -0.1008
 6349TIP3   OH240537   1.795   6.738   1.909 -0.0064 -0.0263  0.2379
 6349TIP3    H140538   1.742   6.668   1.947 -0.7088 -0.0245 -0.7298
 6349TIP3    H240539   1.803   6.803   1.979  0.3852 -0.9125  1.0388
 6350TIP3   OH240540   0.940   4.766   3.392  0.3133  0.3182 -0.4839
 6350TIP3    H140541   0.910   4.794   3.478  0.9745 -0.8247  0.1457
 6350TIP3    H240542   1.033   4.749   3.403  0.3747 -0.0002 -1.3881
 6351TIP3   OH240543   5.123   2.405   5.585 -0.0295 -0.7153  0.4472
 6351TIP3    H140544   5.160   2.426   5.499 -3.8589 -0.9106 -1.4592
 6351TIP3    H240545   5.131   2.310   5.591  0.5682 -0.6660  0.4916
 6352TIP3   OH240546   1.956   1.744  11.619  0.6815 -0.2715  0.0490
 6352TIP3    H140547   1.923   1.658  11.592 -0.4573  0.7418 -2.0204
 6352TIP3    H240548   2.042   1.726  11.656  1.7076 -2.0648 -2.8543
 6353TIP3   OH240549   1.071   3.499   5.387 -0.1345 -0.2080 -0.6316
 6353TIP3    H140550   1.065   3.517   5.294  1.6143 -2.0332 -1.1634
 6353TIP3    H240551   1.028   3.413   5.398  0.1783 -0.2793  0.1417
 6354TIP3   OH240552   3.710   4.109   4.677  0.2415  0.1766  0.3499
 6354TIP3    H140553   3.696   4.048   4.749 -1.3215  0.0735 -0.0019
 6354TIP3    H240554   3.754   4.058   4.609  0.5626 -0.0577  0.7307
 6355TIP3   OH240555   5.223   6.314   0.308  0.0402 -0.1156 -0.5873
 6355TIP3    H140556   5.171   6.285   0.383  0.0361  1.7556  0.1839
 6355TIP3    H240557   5.219   6.240   0.247 -0.9821 -1.2095  0.7174
 6356TIP3   OH240558   2.802   3.061   0.127 -0.2190 -0.6951  0.1171
 6356TIP3    H140559   2.791   3.134   0.187  1.4532  0.6422 -1.1095
 6356TIP3    H240560   2.859   2.999   0.174 -0.1198 -0.3411  0.4641
 6357TIP3   OH240561   5.607   0.473   2.047 -0.2906 -0.6402 -0.2723
 6357TIP3    H140562   5.647   0.486   2.134 -1.2249  0.2704  0.0375
 6357TIP3    H240563   5.535   0.413   2.064 -3.2705  2.8041  0.4998
 6358TIP3   OH240564   3.400   4.431  11.944 -0.0493  0.4522 -0.3063
 6358TIP3    H140565   3.374   4.521  11.928 -0.8051  0.1590 -0.7727
 6358TIP3    H240566   3.443   4.404  11.863  1.6814  0.8897  0.4015
 6359TIP3   OH240567   2.201   1.578   2.981 -0.0206 -0.4268  0.4291
 6359TIP3    H140568   2.266   1.544   3.042  1.2206  1.6521  0.3722
 6359TIP3    H240569   2.237   1.662   2.951 -2.7542  0.8726  0.4248
 6360TIP3   OH240570   5.679   5.032   6.335  0.4835 -0.0357 -0.0352
 6360TIP3    H140571   5.749   4.970   6.315 -0.4774 -0.5394 -2.0362
 6360TIP3    H240572   5.615   4.981   6.385  0.8684  0.0409  0.5403
 6361TIP3   OH240573   6.548   2.851  10.605  0.5947  0.1425  0.3800
 6361TIP3    H140574   6.577   2.905  10.531 -1.4783 -0.9175 -1.2941
 6361TIP3    H240575   6.477   2.901  10.645  0.3353 -0.2309  0.3850
 6362TIP3   OH240576   1.288   3.602  14.803  0.1388 -0.0804 -0.6781
 6362TIP3    H140577   1.365   3.564  14.760  0.6199  1.0286 -0.8399
 6362TIP3    H240578   1.260   3.672  14.744  0.3115  0.9276  0.3949
 6363TIP3   OH240579   1.264   4.704   4.900 -0.3859  0.1481  0.2063
 6363TIP3    H140580   1.216   4.622   4.883  0.1423 -0.3193  0.9089
 6363TIP3    H240581   1.274   4.706   4.995 -0.0511  0.8388  0.1599
 6364TIP3   OH240582   0.060   0.507  12.565  0.2278 -0.7484  0.2773
 6364TIP3    H140583  -0.014   0.448  12.578 -0.5325 -0.1262 -0.9874
 6364TIP3    H240584   0.134   0.448  12.548 -0.2492 -1.3583  0.2518
 6365TIP3   OH240585   0.572   1.001  13.798  0.5259  0.4422 -0.0633
 6365TIP3    H140586   0.579   0.916  13.754 -1.9108  0.8954 -1.5283
 6365TIP3    H240587   0.558   0.979  13.891 -5.2095 -1.2797 -0.9166
 6366TIP3   OH240588   2.661   2.429   2.923 -0.2812  0.6949 -0.2657
 6366TIP3    H140589   2.661   2.418   3.018  0.8460  0.3790 -0.2951
 6366TIP3    H240590   2.648   2.524   2.910 -1.6443  0.5921  0.1509
 6367TIP3   OH240591   1.215   3.151  14.058  0.0244  0.1339  0.1491
 6367TIP3    H140592   1.214   3.246  14.060  1.1720  0.1828  2.1901
 6367TIP3    H240593   1.293   3.128  14.007 -0.5404  0.2584 -0.7830
 6368TIP3   OH240594   2.998   5.847  11.495  0.3974  0.5797 -0.4144
 6368TIP3    H140595   3.084   5.818  11.463  0.2895  0.0093 -0.2011
 6368TIP3    H240596   3.005   5.839  11.590  0.4421  1.4895 -0.3322
 6369TIP3   OH240597   5.037   6.195   6.309  0.1135  0.3413  0.2504
 6369TIP3    H140598   5.115   6.159   6.266  0.0858 -1.4200  1.5574
 6369TIP3    H240599   4.964   6.158   6.260  0.1055 -0.3535  0.7565
 6370TIP3   OH240600   2.716   2.651   4.288  0.0385  0.2429 -0.1109
 6370TIP3    H140601   2.811   2.663   4.291  0.0085  0.3872  0.3328
 6370TIP3    H240602   2.681   2.725   4.338 -0.3448  0.6133 -0.9159
 6371TIP3   OH240603   6.813   5.451  14.781  0.0350  0.1332 -0.5892
 6371TIP3    H140604   6.732   5.417  14.743 -0.2272  0.5289 -0.3911
 6371TIP3    H240605   6.822   5.403  14.864 -0.2189  0.3866 -0.4132
 6372TIP3   OH240606   2.330   5.525  11.248  0.1695  0.1379 -1.1492
 6372TIP3    H140607   2.279   5.444  11.256  2.4470 -1.4856 -2.2054
 6372TIP3    H240608   2.280   5.578  11.186 -2.2606  0.3764  0.8489
 6373TIP3   OH240609   1.258   2.212  17.222 -0.7299 -0.7035 -0.4739
 6373TIP3    H140610   1.332   2.227  17.163  0.3248  1.0387  1.1841
 6373TIP3    H240611   1.274   2.124  17.256  0.7584 -0.2681  0.0470
 6374TIP3   OH240612   1.351   5.586  16.878 -0.0055  0.1037  0.1771
 6374TIP3    H140613   1.345   5.514  16.941 -1.5246 -1.3689 -1.5513
 6374TIP3    H240614   1.362   5.664  16.932  2.6107 -1.4366  2.0995
 6375TIP3   OH240615   5.181   2.561   3.196 -1.1520 -0.4427 -0.0717
 6375TIP3    H140616   5.171   2.595   3.108 -0.7300 -2.1305 -0.8104
 6375TIP3    H240617   5.122   2.486   3.200 -1.2045 -0.3665  1.1091
 6376TIP3   OH240618   2.522   4.920   0.487 -0.0697 -0.3074  0.1381
 6376TIP3    H140619   2.609   4.923   0.528  0.5976 -0.5098 -1.2013
 6376TIP3    H240620   2.464   4.886   0.556  1.1010 -1.1734  0.7313
 6377TIP3   OH240621   4.775   0.085   6.576 -0.1938  0.3037  0.0294
 6377TIP3    H140622   4.817   0.002   6.552 -1.2383  0.0201 -0.8472
 6377TIP3    H240623   4.820   0.111   6.656 -1.7041 -2.5586  2.0089
 6378TIP3   OH240624   0.006   2.771  11.554  0.0126  0.0637  0.1671
 6378TIP3    H140625   0.009   2.747  11.646 -0.3563 -0.4479  0.0466
 6378TIP3    H240626  -0.080   2.811  11.542  0.4359  1.0457  0.2591
 6379TIP3   OH240627   5.520   1.825   4.103  0.0887  0.8731  0.3931
 6379TIP3    H140628   5.441   1.802   4.054 -0.2631  0.8319  0.9704
 6379TIP3    H240629   5.564   1.890   4.048  1.7618 -1.9761 -1.8966
 6380TIP3   OH240630   6.082   5.194  10.855  0.2319  0.1240  0.6131
 6380TIP3    H140631   6.015   5.153  10.801 -0.3794  0.6496  0.9594
 6380TIP3    H240632   6.110   5.271  10.806  1.7038 -0.9157 -0.2480
 6381TIP3   OH240633   0.888   6.096  13.429  0.2166 -0.1491 -0.2413
 6381TIP3    H140634   0.969   6.103  13.378 -0.9371  0.0438 -2.1271
 6381TIP3    H240635   0.898   6.162  13.498  0.6966  1.5689 -1.8712
 6382TIP3   OH240636   3.978   2.745   1.307 -0.0310 -0.2728 -0.3993
 6382TIP3    H140637   4.010   2.659   1.334 -0.9710 -0.3619  0.4888
 6382TIP3    H240638   3.883   2.740   1.318 -0.3317  0.1763 -2.4166
 6383TIP3   OH240639   4.762   1.941  13.305  0.4775  0.6317  0.2466
 6383TIP3    H140640   4.821   1.911  13.237 -0.1318 -0.5841  0.2371
 6383TIP3    H240641   4.780   1.884  13.380 -0.6088  0.2980  0.2720
 6384TIP3   OH240642   5.822   0.428  12.705 -0.7340 -0.3999  0.6876
 6384TIP3    H140643   5.886   0.359  12.687 -1.5920 -1.2835  0.9583
 6384TIP3    H240644   5.833   0.490  12.633  0.6593 -0.3541  0.9156
 6385TIP3   OH240645   3.756   2.871   3.906 -0.3811  0.2094  0.1792
 6385TIP3    H140646   3.844   2.833   3.902 -1.2156 -2.4947  3.1418
 6385TIP3    H240647   3.751   2.913   3.992 -2.9562 -2.9138  1.7765
 6386TIP3   OH240648   1.950   1.956  11.872 -0.2147  0.0262 -0.3572
 6386TIP3    H140649   2.009   1.887  11.903 -0.5663  0.3498  1.1366
 6386TIP3    H240650   1.918   1.925  11.788 -0.0831 -1.4735  0.1157
 6387TIP3   OH240651   6.488   0.013  13.078 -0.4179 -0.4398 -0.9111
 6387TIP3    H140652   6.408   0.015  13.131 -0.2359  0.7249 -0.6536
 6387TIP3    H240653   6.506   0.105  13.059  2.9366 -0.2233  2.1808
 6388TIP3   OH240654   2.097   2.385  15.384 -0.2916 -0.4654  0.2021
 6388TIP3    H140655   2.120   2.326  15.312 -0.1946 -1.0807  0.7265
 6388TIP3    H240656   2.117   2.335  15.463 -1.5833 -0.2797  0.6750
 6389TIP3   OH240657   6.051   1.781   3.042  0.0977  0.2515  0.5367
 6389TIP3    H140658   6.106   1.785   3.120 -0.7495  1.4242  1.1193
 6389TIP3    H240659   5.980   1.843   3.060  0.0395  0.7843 -1.2868
 6390TIP3   OH240660   1.192   5.795  14.307  0.5924  0.5606  0.2640
 6390TIP3    H140661   1.171   5.871  14.362 -0.0130  0.4435  0.1988
 6390TIP3    H240662   1.286   5.803  14.291  0.4845  1.4694  0.0121
 6391TIP3   OH240663   1.516   6.636   4.531 -0.2307  0.3918 -0.2844
 6391TIP3    H140664   1.571   6.678   4.464  0.8643 -2.1601 -1.1162
 6391TIP3    H240665   1.485   6.555   4.490 -0.0489 -0.9664  2.0643
 6392TIP3   OH240666   6.577   1.584   6.292 -0.1923 -0.6573 -0.2930
 6392TIP3    H140667   6.632   1.604   6.368  0.2596 -1.3738 -0.4202
 6392TIP3    H240668   6.488   1.581   6.326  0.2175 -3.5697  0.7929
 6393TIP3   OH240669   3.869   3.437  17.006  0.3772  0.0081  0.2469
 6393TIP3    H140670   3.934   3.466  17.070 -1.3419 -0.6110  2.4259
 6393TIP3    H240671   3.788   3.481  17.033 -0.0408  1.2616 -2.7638
 6394TIP3   OH240672   0.797   2.459   5.913 -0.4705 -0.0748  0.3695
 6394TIP3    H140673   0.775   2.510   5.991 -1.3535  0.6512 -0.3296
 6394TIP3    H240674   0.881   2.419   5.934 -0.5016  0.4249  1.5417
 6395TIP3   OH240675   1.390   1.281  11.378 -0.5698 -0.4698  0.0939
 6395TIP3    H140676   1.461   1.264  11.440 -0.6427  0.7464  0.5423
 6395TIP3    H240677   1.393   1.376  11.364 -2.9488 -0.1707  1.1808
 6396TIP3   OH240678   2.918   4.826   1.461 -0.9390 -0.0376  0.3607
 6396TIP3    H140679   2.867   4.764   1.409  1.0246 -2.4644  1.0929
 6396TIP3    H240680   2.998   4.839   1.410  0.4160 -1.3754  2.0080
 6397TIP3   OH240681   1.360   3.618  13.450  0.3120  0.4134  0.2993
 6397TIP3    H140682   1.266   3.627  13.431 -0.0257  0.7793  1.9741
 6397TIP3    H240683   1.375   3.523  13.449  0.2253  0.3944 -1.2051
 6398TIP3   OH240684   1.359   2.489   2.334  0.4298  0.0640  0.0275
 6398TIP3    H140685   1.418   2.430   2.382 -0.6623 -1.7115 -0.7040
 6398TIP3    H240686   1.348   2.447   2.249 -1.3473  0.6952 -0.0867
 6399TIP3   OH240687   1.759   6.656  14.812 -0.3363 -0.5148  0.0527
 6399TIP3    H140688   1.825   6.670  14.744 -0.5606 -0.5950 -0.1827
 6399TIP3    H240689   1.681   6.628  14.765 -0.0988 -1.9180  0.4488
 6400TIP3   OH240690   1.107   2.071  14.051 -0.6039  0.0361 -0.1525
 6400TIP3    H140691   1.063   2.056  13.968 -1.1738  0.4209  0.0726
 6400TIP3    H240692   1.148   2.157  14.042 -1.7180  0.6548  0.3871
 6401TIP3   OH240693   1.713   2.455   6.555 -0.5391  0.3224  0.3717
 6401TIP3    H140694   1.752   2.543   6.554 -1.0505  0.6152 -2.7896
 6401TIP3    H240695   1.782   2.399   6.518 -0.4994 -0.5174  1.6622
 6402TIP3   OH240696   6.330   0.642  17.270 -0.1630  0.0641 -0.4465
 6402TIP3    H140697   6.237   0.643  17.246 -0.2258  1.8993 -0.2613
 6402TIP3    H240698   6.336   0.579  17.342 -1.5237  0.9804  0.5019
 6403TIP3   OH240699   6.763   5.827   2.357 -0.4940 -0.3416 -0.1192
 6403TIP3    H140700   6.833   5.888   2.330 -2.1437  1.8761  0.3081
 6403TIP3    H240701   6.727   5.866   2.437 -0.1899 -3.1499  1.5039
 6404TIP3   OH240702   0.380   6.026   0.390 -0.4122  0.5118  0.2637
 6404TIP3    H140703   0.331   5.946   0.410  0.0075  0.8205  2.7834
 6404TIP3    H240704   0.321   6.076   0.332 -1.6734 -0.5809  0.5494
 6405TIP3   OH240705   5.251   1.356   3.436  0.7616 -0.3362 -0.0154
 6405TIP3    H140706   5.238   1.261   3.429 -0.9310 -0.0414 -1.8357
 6405TIP3    H240707   5.276   1.383   3.348 -0.9378  1.1560 -0.0905
 6406TIP3   OH240708   1.618   1.104  12.894 -0.6243 -0.0773  0.2444
 6406TIP3    H140709   1.698   1.156  12.897 -0.6051 -0.1354  0.7095
 6406TIP3    H240710   1.588   1.112  12.803 -0.6447  0.7844  0.3181
 6407TIP3   OH240711   5.786   4.225  15.362  0.0273  0.2152  0.0509
 6407TIP3    H140712   5.785   4.312  15.402 -0.8987  0.0953  0.3274
 6407TIP3    H240713   5.720   4.176  15.411  1.1407 -0.9117  0.4753
 6408TIP3   OH240714   2.129   5.833   1.099  1.0077 -0.0632 -0.1061
 6408TIP3    H140715   2.222   5.821   1.113  1.3883  1.6003 -0.9540
 6408TIP3    H240716   2.104   5.904   1.158  0.3727 -0.1723 -0.2321
 6409TIP3   OH240717   1.631   6.046   4.277 -0.6020  0.0959  0.1827
 6409TIP3    H140718   1.654   6.121   4.333 -0.4376  0.5451 -0.4772
 6409TIP3    H240719   1.541   6.026   4.301 -1.3645  1.8032 -1.0404
 6410TIP3   OH240720   1.011   0.667  16.101  0.4385 -0.6071 -0.5276
 6410TIP3    H140721   0.942   0.645  16.038 -0.4849 -1.7420  0.8212
 6410TIP3    H240722   1.054   0.584  16.119  1.3153 -0.1266 -0.3552
 6411TIP3   OH240723   0.648   2.950  12.265  0.2983  0.2777  0.3241
 6411TIP3    H140724   0.725   2.918  12.311  1.9985  0.4542 -2.1765
 6411TIP3    H240725   0.589   2.874  12.261  0.8227 -0.1939  1.2864
 6412TIP3   OH240726   6.591   4.967  17.324 -0.3432  0.1224 -0.0663
 6412TIP3    H140727   6.572   4.995  17.235 -0.3291 -1.6801 -0.6772
 6412TIP3    H240728   6.658   5.028  17.355  1.1942 -0.4552 -2.0518
 6413TIP3   OH240729   3.577   6.367   1.542 -0.1712 -0.0241 -0.0748
 6413TIP3    H140730   3.578   6.283   1.496 -0.0838 -0.1177  0.0987
 6413TIP3    H240731   3.665   6.402   1.530 -0.1363 -0.0662  0.0495
 6414TIP3   OH240732   3.685   4.064  12.425  0.1408 -0.0552  0.8243
 6414TIP3    H140733   3.660   4.152  12.397 -0.9207 -0.7532 -0.5630
 6414TIP3    H240734   3.624   4.044  12.496  0.5914  0.4288  1.3610
 6415TIP3   OH240735   0.720   4.344  15.248 -0.3093 -0.2913  0.1833
 6415TIP3    H140736   0.637   4.345  15.202 -1.0113  0.3069  1.4033
 6415TIP3    H240737   0.699   4.377  15.336  1.1789 -0.2823  0.5625
 6416TIP3   OH240738   1.020   5.845  10.949  0.1309 -0.0431 -0.2629
 6416TIP3    H140739   1.062   5.899  11.015  0.0219 -0.0031 -0.2248
 6416TIP3    H240740   0.941   5.813  10.992  1.0790 -1.6820  0.3272
 6417TIP3   OH240741   5.773   6.044   5.311 -0.3283  0.4282  0.2884
 6417TIP3    H140742   5.835   6.040   5.238  0.5310 -0.6435  1.0378
 6417TIP3    H240743   5.725   6.126   5.297 -0.6335 -0.0392 -1.8085
 6418TIP3   OH240744   6.376   1.037  13.922  0.8748 -0.0127  0.5707
 6418TIP3    H140745   6.310   1.103  13.944 -0.6944 -1.1251 -0.5717
 6418TIP3    H240746   6.366   0.971  13.990  1.3066  0.1393  0.7843
 6419TIP3   OH240747   4.586   3.820  16.447  0.6043  0.4445  0.2750
 6419TIP3    H140748   4.555   3.739  16.488 -0.7647  1.5599  1.5529
 6419TIP3    H240749   4.511   3.850  16.396  1.4100  0.4656 -0.9406
 6420TIP3   OH240750   1.254   6.549   4.753  0.3152  0.1575  0.3721
 6420TIP3    H140751   1.179   6.551   4.813 -0.2925 -1.8759 -0.2441
 6420TIP3    H240752   1.329   6.568   4.808 -0.4108 -0.0446  1.4596
 6421TIP3   OH240753   6.203   6.583   2.468 -0.2198  0.2110 -0.0023
 6421TIP3    H140754   6.152   6.619   2.541 -2.0241 -0.1951 -0.9898
 6421TIP3    H240755   6.278   6.642   2.461 -0.7903  1.1552  1.2209
 6422TIP3   OH240756   5.415   4.630   4.473 -0.0893  0.4717  0.2831
 6422TIP3    H140757   5.481   4.609   4.406  2.3964 -3.1625  3.4267
 6422TIP3    H240758   5.362   4.551   4.479  0.4889  0.2009  3.1838
 6423TIP3   OH240759   4.510   4.356  13.983  0.2206 -0.3843 -0.1270
 6423TIP3    H140760   4.540   4.266  13.980  0.3780 -0.3096 -1.2115
 6423TIP3    H240761   4.422   4.351  14.022  0.5503 -0.9020  0.5675
 6424TIP3   OH240762   1.465   5.493  15.124  0.0511 -0.6714 -0.0629
 6424TIP3    H140763   1.401   5.527  15.186  1.5821 -0.3116  1.3885
 6424TIP3    H240764   1.486   5.405  15.157 -0.8490 -1.4580 -1.4598
 6425TIP3   OH240765   6.403   4.569  14.839  0.1639 -0.1131  0.7228
 6425TIP3    H140766   6.361   4.562  14.753  1.5537  2.2434 -0.2301
 6425TIP3    H240767   6.496   4.556  14.821  0.4792  0.4671  1.8598
 6426TIP3   OH240768   5.586   4.152  13.984  0.4735  0.4022  0.0446
 6426TIP3    H140769   5.574   4.136  13.890  1.8691  0.6696 -0.1996
 6426TIP3    H240770   5.515   4.103  14.025  0.0710 -0.0471 -1.1284
 6427TIP3   OH240771   3.147   5.315  14.070 -0.8436  0.0635  0.8685
 6427TIP3    H140772   3.140   5.247  14.137 -1.1284 -1.5763 -0.7320
 6427TIP3    H240773   3.080   5.291  14.005  1.3791 -0.1842 -1.4778
 6428TIP3   OH240774   3.725   6.773   4.153  0.0847  0.0352 -0.0046
 6428TIP3    H140775   3.636   6.797   4.128  0.8291  0.1916 -2.7614
 6428TIP3    H240776   3.752   6.709   4.088  2.4853  1.0274 -0.0699
 6429TIP3   OH240777   1.395   4.355   4.913 -0.4160 -0.1834  0.0470
 6429TIP3    H140778   1.445   4.402   4.846 -1.3350  1.1241  0.2494
 6429TIP3    H240779   1.329   4.306   4.864  0.5207 -1.2776 -0.1608
 6430TIP3   OH240780   2.227   1.288  15.233 -0.1775 -0.0991  0.3452
 6430TIP3    H140781   2.318   1.286  15.204 -0.7776 -1.4670 -1.7158
 6430TIP3    H240782   2.187   1.356  15.179 -1.0423 -1.8145 -1.3125
 6431TIP3   OH240783   6.809   4.970  13.139  0.2093  0.0094 -0.5330
 6431TIP3    H140784   6.718   4.951  13.113 -0.1126 -0.1034  0.5963
 6431TIP3    H240785   6.842   4.886  13.171  0.8070 -0.0092 -1.1938
 6432TIP3   OH240786   4.327   1.554  11.574 -0.0304 -0.3210  0.3665
 6432TIP3    H140787   4.247   1.606  11.576  0.8543  1.1565 -0.3523
 6432TIP3    H240788   4.309   1.485  11.510 -0.6843  0.0893  0.0893
 6433TIP3   OH240789   3.825   4.964  11.759 -0.0172 -0.5524  0.1170
 6433TIP3    H140790   3.841   4.986  11.667  0.8781  0.0237  0.3971
 6433TIP3    H240791   3.737   4.997  11.777 -0.1455 -0.5458 -0.4951
 6434TIP3   OH240792   4.133   5.778   4.783 -0.2012 -0.5321 -0.8872
 6434TIP3    H140793   4.090   5.720   4.846 -2.3433  1.9131  0.0875
 6434TIP3    H240794   4.223   5.787   4.816 -1.1952  0.5116  1.8559
 6435TIP3   OH240795   0.958   4.246  10.449 -0.0426 -0.2226 -0.1795
 6435TIP3    H140796   0.910   4.191  10.387  0.1435  0.1521 -0.6598
 6435TIP3    H240797   1.030   4.191  10.479 -0.1814 -0.4338 -0.2303
 6436TIP3   OH240798   0.415   0.325  14.098 -0.5042  0.0460 -0.6398
 6436TIP3    H140799   0.398   0.271  14.176 -1.3055 -0.6460 -1.2725
 6436TIP3    H240800   0.508   0.313  14.081 -0.4162 -0.1627 -0.0547
 6437TIP3   OH240801   1.118   2.354  13.794  0.0068 -0.0041 -0.6702
 6437TIP3    H140802   1.127   2.448  13.781 -1.2362  0.0493 -1.2713
 6437TIP3    H240803   1.191   2.331  13.851 -0.3482  1.5312  0.4774
 6438TIP3   OH240804   4.692   2.872  12.841 -0.6731  0.0286  0.1062
 6438TIP3    H140805   4.652   2.872  12.754  2.9824  0.9625 -1.7738
 6438TIP3    H240806   4.704   2.965  12.862 -0.6644 -0.2058  1.2149
 6439TIP3   OH240807   3.604   5.835   3.444 -0.1895 -0.7350 -0.1886
 6439TIP3    H140808   3.678   5.874   3.491 -0.5853  0.1149 -0.2677
 6439TIP3    H240809   3.552   5.909   3.415  0.3318 -1.1846 -2.4686
 6440TIP3   OH240810   6.483   5.272   4.974  0.5202 -0.9780 -0.6459
 6440TIP3    H140811   6.418   5.215   4.933  0.0140 -0.3188 -0.7874
 6440TIP3    H240812   6.459   5.360   4.945  1.6343 -0.7416 -0.9041
 6441TIP3   OH240813   2.536   2.482  14.767 -0.3343 -0.4716  0.1593
 6441TIP3    H140814   2.526   2.479  14.672 -1.6515  0.6307  0.2380
 6441TIP3    H240815   2.611   2.539  14.781 -0.3483 -0.3608 -0.2073
 6442TIP3   OH240816   4.703   5.437   5.148  0.0757 -0.1133  0.0051
 6442TIP3    H140817   4.706   5.353   5.103  1.9407 -0.6764  1.0669
 6442TIP3    H240818   4.688   5.415   5.240 -0.0369  0.7558  0.2097
 6443TIP3   OH240819   5.291   3.819   1.537 -0.4786 -0.1186 -0.5081
 6443TIP3    H140820   5.282   3.914   1.539  0.9855  0.0980  3.0018
 6443TIP3    H240821   5.205   3.786   1.562 -0.9958  0.2237 -1.7442
 6444TIP3   OH240822   2.915   5.544  15.134  0.2927 -0.6749  0.1360
 6444TIP3    H140823   2.976   5.585  15.196  0.7922 -0.7907 -0.2720
 6444TIP3    H240824   2.856   5.493  15.189 -0.4526  0.7122  0.6741
 6445TIP3   OH240825   3.448   6.417   4.496 -0.1473 -0.1491 -0.2222
 6445TIP3    H140826   3.377   6.384   4.441 -1.8033  0.6934  1.3004
 6445TIP3    H240827   3.452   6.511   4.476 -0.6595  0.1338  0.9247
 6446TIP3   OH240828   3.057   2.422  13.033  1.1136 -0.0818 -0.4838
 6446TIP3    H140829   3.138   2.371  13.037  0.9196 -0.3158  1.2376
 6446TIP3    H240830   2.991   2.361  13.003  0.7973 -1.0564  1.9472
 6447TIP3   OH240831   4.619   6.692  13.820  0.5558 -0.6841 -0.6575
 6447TIP3    H140832   4.700   6.644  13.837  0.8162  0.0804  0.3060
 6447TIP3    H240833   4.632   6.778  13.861 -1.1860 -0.9547  0.5725
 6448TIP3   OH240834   5.734   1.651  12.625  0.0381  0.3862  0.5397
 6448TIP3    H140835   5.766   1.741  12.632  1.4017 -0.0649  0.4905
 6448TIP3    H240836   5.813   1.597  12.624 -0.7255 -0.7907  0.0609
 6449TIP3   OH240837   6.050   3.676   2.987  0.5085 -0.3240 -1.0891
 6449TIP3    H140838   6.108   3.750   2.973  0.5915 -0.3940 -1.1172
 6449TIP3    H240839   6.106   3.599   2.976  1.2070 -0.3945  2.0234
 6450TIP3   OH240840   3.326   6.805  16.102  0.2911 -0.4921  0.4915
 6450TIP3    H140841   3.265   6.809  16.175  0.8113 -0.3333  0.9278
 6450TIP3    H240842   3.308   6.721  16.060  0.0976 -0.6585  0.9040
 6451TIP3   OH240843   0.889   5.915  12.030 -0.8235 -0.1102 -0.1365
 6451TIP3    H140844   0.886   5.819  12.026 -0.1914 -0.1619  0.3599
 6451TIP3    H240845   0.895   5.934  12.124 -1.1417  0.4213 -0.2241
 6452TIP3   OH240846   5.539   4.838  13.354  0.0684 -0.2771 -0.6374
 6452TIP3    H140847   5.511   4.918  13.399 -0.0920 -0.7565  0.1365
 6452TIP3    H240848   5.500   4.767  13.405  1.8067 -0.9418 -0.1602
 6453TIP3   OH240849   3.758   3.344  11.841 -0.8259  0.5857 -0.0206
 6453TIP3    H140850   3.841   3.369  11.882 -0.8317  0.9190 -0.2033
 6453TIP3    H240851   3.771   3.364  11.748  0.2110 -2.7636 -0.7453
 6454TIP3   OH240852   2.707   5.173  13.410  0.6669 -0.5123  0.3521
 6454TIP3    H140853   2.638   5.234  13.435 -2.4633 -3.5221 -0.1615
 6454TIP3    H240854   2.754   5.218  13.340 -0.8010  1.6741  0.6716
 6455TIP3   OH240855   0.853   6.796  12.003 -0.2313 -0.1235  0.0766
 6455TIP3    H140856   0.909   6.788  12.080 -0.8340 -0.6400  0.4665
 6455TIP3    H240857   0.776   6.743  12.023 -0.3928 -0.2755 -0.8897
 6456TIP3   OH240858   0.776   1.992   6.577  0.1854 -0.3449 -0.3747
 6456TIP3    H140859   0.788   1.898   6.590  0.3233 -0.5054 -1.5765
 6456TIP3    H240860   0.688   2.009   6.609  0.9595 -0.4321  2.0058
 6457TIP3   OH240861   2.962   1.086   6.982 -0.3018  0.7638  0.5696
 6457TIP3    H140862   2.872   1.056   6.966 -0.4381  1.2109  0.4801
 6457TIP3    H240863   2.995   1.029   7.052 -0.7717  0.8192  0.8386
 6458TIP3   OH240864   0.886   4.399   2.739 -0.5943  0.8284  0.1697
 6458TIP3    H140865   0.922   4.431   2.822  1.4639 -1.4814  0.2567
 6458TIP3    H240866   0.920   4.460   2.673 -0.8058  1.6593  0.8133
 6459TIP3   OH240867   5.891   0.772   6.653 -0.7460 -0.1376  0.2215
 6459TIP3    H140868   5.799   0.759   6.672 -0.8220  0.8635  0.5874
 6459TIP3    H240869   5.926   0.816   6.731 -0.6076  2.1363 -1.0393
 6460TIP3   OH240870   6.012   4.678   1.906 -0.6064  0.6036  0.1732
 6460TIP3    H140871   5.937   4.709   1.856  0.0162  0.8658 -0.6274
 6460TIP3    H240872   6.018   4.585   1.887  0.6757  1.0222 -1.7027
 6461TIP3   OH240873   1.415   0.032  13.993 -0.1203 -0.6793  0.0508
 6461TIP3    H140874   1.364   0.111  14.011 -0.4706 -0.7701 -0.5144
 6461TIP3    H240875   1.352  -0.040  14.003  0.1648 -0.8811  0.4248
 6462TIP3   OH240876   2.258   2.484  16.990  0.5039 -0.0886 -0.5093
 6462TIP3    H140877   2.247   2.470  16.896  1.5353  2.4377 -1.0714
 6462TIP3    H240878   2.180   2.533  17.016 -0.0861 -1.3138  0.1366
 6463TIP3   OH240879   4.222   1.317  11.899  0.3505 -0.2931 -0.6401
 6463TIP3    H140880   4.133   1.314  11.863  0.3367  0.4711 -0.6853
 6463TIP3    H240881   4.220   1.258  11.974 -0.1399 -0.4378 -0.7642
 6464TIP3   OH240882   1.327   4.309   1.023 -0.0246 -0.5426  0.4055
 6464TIP3    H140883   1.360   4.387   0.978  0.0105  0.4522  2.0742
 6464TIP3    H240884   1.241   4.294   0.984  0.7699 -0.8777 -1.3020
 6465TIP3   OH240885   6.339   0.929  11.175 -0.1773  0.1552  0.3970
 6465TIP3    H140886   6.280   0.956  11.245  1.5988  0.2087  1.9705
 6465TIP3    H240887   6.397   1.004  11.161  1.1781 -0.7686  0.7923
 6466TIP3   OH240888   4.594   0.499   1.786 -0.0273 -0.0111  0.2416
 6466TIP3    H140889   4.688   0.498   1.805 -0.4168 -0.7162  2.5238
 6466TIP3    H240890   4.575   0.410   1.756  0.2753  0.5987 -1.8774
 6467TIP3   OH240891   4.396   1.258   0.616  0.0445 -0.0074 -0.2527
 6467TIP3    H140892   4.367   1.220   0.533 -1.2022  1.9512 -0.7828
 6467TIP3    H240893   4.469   1.314   0.592  0.3800 -0.2648  0.1564
 6468TIP3   OH240894   1.803   1.153   5.334  0.2090 -0.1722 -0.1498
 6468TIP3    H140895   1.759   1.151   5.419  2.2572  0.2850  0.9932
 6468TIP3    H240896   1.744   1.203   5.277  0.6075  3.2822  2.1657
 6469TIP3   OH240897   1.268   4.348   5.763  0.7351  0.3236 -0.2366
 6469TIP3    H140898   1.258   4.359   5.858 -1.1754 -0.1753 -0.3352
 6469TIP3    H240899   1.271   4.253   5.750 -1.2225  0.3053 -0.8167
 6470TIP3   OH240900   0.201   4.573   1.722  0.2848 -0.0096  0.2903
 6470TIP3    H140901   0.278   4.617   1.758  0.2306 -0.6409  1.2213
 6470TIP3    H240902   0.132   4.591   1.785 -1.0343  2.6294 -1.7467
 6471TIP3   OH240903   5.315   2.598   2.753 -0.8344  0.2890 -0.2367
 6471TIP3    H140904   5.268   2.636   2.827  0.3358  0.2992  0.5350
 6471TIP3    H240905   5.354   2.673   2.708 -1.5122  0.2806 -0.8614
 6472TIP3   OH240906   6.398   0.690   1.688 -0.3524  0.2746  0.5008
 6472TIP3    H140907   6.479   0.710   1.736  1.5259 -0.0056 -2.2976
 6472TIP3    H240908   6.391   0.595   1.692 -0.5983  0.3044  0.8056
 6473TIP3   OH240909   4.748   0.126  16.235  0.3583  0.0860  0.4624
 6473TIP3    H140910   4.723   0.134  16.143 -0.8978 -1.9870  0.5585
 6473TIP3    H240911   4.843   0.114  16.233  0.2691 -0.6193 -0.6425
 6474TIP3   OH240912   4.804   2.134   6.221  0.0082  0.2044  0.0660
 6474TIP3    H140913   4.857   2.213   6.231 -0.1192  0.4214 -0.9214
 6474TIP3    H240914   4.848   2.085   6.151  0.6679 -1.0921  1.3252
 6475TIP3   OH240915   0.235   6.600   5.330 -0.0817 -0.0434 -0.2943
 6475TIP3    H140916   0.279   6.563   5.407  1.0757  0.3491 -0.7544
 6475TIP3    H240917   0.219   6.525   5.273 -1.2537 -0.3932  0.4446
 6476TIP3   OH240918   1.849   2.098  14.046 -0.2556  0.4741 -0.1323
 6476TIP3    H140919   1.898   2.159  13.990  0.3895  1.2610  1.2403
 6476TIP3    H240920   1.912   2.070  14.112 -0.9687 -0.5409  0.1374
 6477TIP3   OH240921   0.473   5.654  16.591 -0.1938  0.5889  0.0641
 6477TIP3    H140922   0.455   5.741  16.554 -0.0691  0.6430  0.1306
 6477TIP3    H240923   0.430   5.655  16.676  1.7476  1.4292  1.0911
 6478TIP3   OH240924   5.917   4.669  13.180 -0.4693  0.1339  0.1240
 6478TIP3    H140925   5.888   4.759  13.165  2.9315  1.2667 -0.5592
 6478TIP3    H240926   5.919   4.661  13.275  1.5756  1.7781  0.3018
 6479TIP3   OH240927   6.497   6.396   5.445  0.6091  0.7088 -0.2312
 6479TIP3    H140928   6.402   6.380   5.442  0.6739  0.2369  0.2581
 6479TIP3    H240929   6.506   6.488   5.419 -0.0834  1.1181  0.8992
 6480TIP3   OH240930   4.641   2.205   6.462 -0.3166  0.7923  0.1604
 6480TIP3    H140931   4.692   2.206   6.543  1.0174 -0.1209 -0.6352
 6480TIP3    H240932   4.690   2.149   6.403  0.1745  3.4755 -2.2154
 6481TIP3   OH240933   6.330   5.769  14.617 -0.0549 -0.0191 -0.1722
 6481TIP3    H140934   6.415   5.791  14.580  0.2925  1.4306  1.3936
 6481TIP3    H240935   6.287   5.853  14.632 -1.3886 -0.6914 -0.0462
 6482TIP3   OH240936   3.557   2.288   3.042 -0.2346 -0.1904  0.3864
 6482TIP3    H140937   3.541   2.270   2.950  0.2197  3.0166 -0.4434
 6482TIP3    H240938   3.487   2.242   3.089 -1.1062 -1.0053 -1.6277
 6483TIP3   OH240939   1.107   2.159  13.269  0.5255 -0.4640 -0.9240
 6483TIP3    H140940   1.110   2.226  13.337 -1.8753  0.3599 -1.5406
 6483TIP3    H240941   1.188   2.173  13.219  1.7514 -0.3214  0.9854
 6484TIP3   OH240942   3.605   6.571  15.294 -0.1847  0.1304 -0.2622
 6484TIP3    H140943   3.584   6.645  15.352  2.0480  0.4692  0.2109
 6484TIP3    H240944   3.546   6.582  15.219 -2.5067  0.2147  1.4585
 6485TIP3   OH240945   1.139   6.684   2.538  0.4608 -1.0638  0.3137
 6485TIP3    H140946   1.045   6.703   2.537  0.7024  0.2734 -1.7783
 6485TIP3    H240947   1.145   6.591   2.517 -0.3576 -0.8976 -0.7150
 6486TIP3   OH240948   1.570   5.658   1.595 -0.3638  0.3819  0.5084
 6486TIP3    H140949   1.633   5.703   1.652 -1.1090 -1.2493  2.8093
 6486TIP3    H240950   1.513   5.727   1.562  0.2652  1.4559  1.5635
 6487TIP3   OH240951   0.597   6.131  16.379 -0.2303  0.9070 -0.8539
 6487TIP3    H140952   0.662   6.201  16.370 -0.3202  0.9476 -1.1895
 6487TIP3    H240953   0.532   6.150  16.312 -1.7579  2.1105  0.8415
 6488TIP3   OH240954   5.422   2.086  11.900 -0.3766 -0.0680  0.0548
 6488TIP3    H140955   5.470   2.137  11.966 -0.6498  0.2689 -0.0031
 6488TIP3    H240956   5.485   2.021  11.869 -0.1119  0.0520  0.3370
 6489TIP3   OH240957   3.403   1.941  12.213  0.4028 -0.4788  0.2157
 6489TIP3    H140958   3.383   1.950  12.119  1.5473 -1.5491 -0.1486
 6489TIP3    H240959   3.493   1.974  12.221 -0.0758  0.6891  1.1652
 6490TIP3   OH240960   5.344   0.410   3.567  0.3052  0.2596  0.1962
 6490TIP3    H140961   5.396   0.422   3.488  0.0601 -0.3884 -0.0744
 6490TIP3    H240962   5.255   0.396   3.535  0.0139  1.0502  0.6402
 6491TIP3   OH240963   3.151   6.260  14.035 -0.6012 -0.4985 -0.1252
 6491TIP3    H140964   3.156   6.173  14.075 -3.2117  0.2367  2.0575
 6491TIP3    H240965   3.197   6.317  14.097  0.8113 -0.2197 -1.3835
 6492TIP3   OH240966   6.739   2.805   1.898 -0.3185 -0.1521  0.1465
 6492TIP3    H140967   6.825   2.794   1.857 -0.4140 -0.4441  0.0237
 6492TIP3    H240968   6.753   2.784   1.990 -0.3566 -0.6494  0.0400
 6493TIP3   OH240969   4.657   6.319  13.659  0.0489 -0.1718 -0.2806
 6493TIP3    H140970   4.603   6.347  13.733  0.5861  0.7729 -0.2223
 6493TIP3    H240971   4.701   6.399  13.630  3.6035 -1.2984  1.4590
 6494TIP3   OH240972   5.108   6.597  14.294 -0.6469 -0.3474  0.3510
 6494TIP3    H140973   5.040   6.566  14.355 -0.3990 -1.0320  0.2827
 6494TIP3    H240974   5.105   6.692  14.302 -0.9806 -0.4095  1.0451
 6495TIP3   OH240975   6.138   0.234  14.519  0.1725  0.1580  0.8415
 6495TIP3    H140976   6.230   0.208  14.512 -0.6563 -3.5023  1.6851
 6495TIP3    H240977   6.098   0.204  14.437 -0.3777  1.6132  0.5333
 6496TIP3   OH240978   4.929   5.076  12.589 -0.0957  0.0754  0.0339
 6496TIP3    H140979   5.018   5.048  12.567 -0.6546 -0.9750 -1.0093
 6496TIP3    H240980   4.920   5.058  12.682  0.2398 -1.4484 -0.1972
 6497TIP3   OH240981   1.486   3.160  14.206  0.0879 -0.5681  0.3628
 6497TIP3    H140982   1.443   3.188  14.126  0.4788  0.4834  0.5124
 6497TIP3    H240983   1.546   3.091  14.178 -1.4592 -1.8680  0.1140
 6498TIP3   OH240984   2.906   3.216  13.940  0.4763 -0.5897 -0.2775
 6498TIP3    H140985   2.825   3.177  13.970  0.9622 -2.7178 -1.4852
 6498TIP3    H240986   2.879   3.288  13.883 -0.5530 -0.9796 -0.2905
 6499TIP3   OH240987   3.258   4.879  16.051 -0.3987  0.1463 -0.3355
 6499TIP3    H140988   3.305   4.959  16.074 -1.3625  0.1688  1.7452
 6499TIP3    H240989   3.167   4.906  16.040 -0.6361 -0.5757 -0.1824
 6500TIP3   OH240990   3.481   4.019  14.458 -0.2669 -0.1863  0.5079
 6500TIP3    H140991   3.507   4.108  14.433  0.5825 -0.9893 -1.6835
 6500TIP3    H240992   3.539   3.997  14.531 -1.1945  1.3760  1.8094
 6501TIP3   OH240993   3.119   2.746   1.559  0.4077  0.1402  0.3788
 6501TIP3    H140994   3.138   2.838   1.540 -0.9627  0.4513  0.4040
 6501TIP3    H240995   3.095   2.745   1.652 -1.8698  0.2028 -0.1400
 6502TIP3   OH240996   6.744   4.250  16.593 -0.4329 -0.8899  0.4715
 6502TIP3    H140997   6.705   4.332  16.624  1.4451 -0.0467  0.7161
 6502TIP3    H240998   6.829   4.246  16.635  1.0461 -1.1399 -2.2963
 6503TIP3   OH240999   2.294   5.277   2.094 -0.0452  0.4554 -0.3028
 6503TIP3    H141000   2.256   5.351   2.141 -2.1329 -0.7877  0.0633
 6503TIP3    H241001   2.302   5.307   2.004 -3.0950  0.4428 -0.6758
 6504TIP3   OH241002   2.122   2.986  13.463 -0.3941 -0.3565 -0.4025
 6504TIP3    H141003   2.147   2.917  13.401  1.1049 -0.0225 -0.2174
 6504TIP3    H241004   2.204   3.009  13.507 -0.9893  1.1067 -0.0098
 6505TIP3   OH241005   6.533   6.565  15.847  0.1537 -0.0394 -0.0137
 6505TIP3    H141006   6.452   6.516  15.861  0.1533 -0.0602 -0.0880
 6505TIP3    H241007   6.560   6.592  15.935 -0.3394  0.6143 -0.0547
 6506TIP3   OH241008   0.358   3.628   4.346 -0.0132  0.6181 -0.1380
 6506TIP3    H141009   0.293   3.601   4.281  1.6959  0.6292 -1.9507
 6506TIP3    H241010   0.326   3.713   4.377 -1.5300  0.0219  0.0599
 6507TIP3   OH241011   2.297   6.606  13.752 -0.0843 -0.2056  0.4292
 6507TIP3    H141012   2.203   6.591  13.741 -0.1328 -1.1427  1.9267
 6507TIP3    H241013   2.338   6.528  13.715  0.0577 -0.2497  0.6791
 6508TIP3   OH241014   4.921   0.272   2.219 -0.2771 -0.4186  0.3506
 6508TIP3    H141015   4.961   0.267   2.132  0.6287 -2.1868  0.8133
 6508TIP3    H241016   4.881   0.186   2.231  0.0695 -0.3923  1.8863
 6509TIP3   OH241017   0.072   4.965  15.118  0.2539  0.2322  0.4752
 6509TIP3    H141018   0.098   4.928  15.203  1.8668  2.0980  0.8729
 6509TIP3    H241019   0.075   5.059  15.131 -0.7068  0.5618 -1.3433
 6510TIP3   OH241020   4.479   4.171  13.042 -0.3496  0.1950  0.5190
 6510TIP3    H141021   4.394   4.198  13.076 -0.1736 -0.2992  1.3932
 6510TIP3    H241022   4.478   4.198  12.951 -1.5914 -0.1264  0.4152
 6511TIP3   OH241023   3.942   1.863   3.296  0.0179  0.4584 -0.7432
 6511TIP3    H141024   3.937   1.839   3.388  0.8376 -0.4556 -0.9204
 6511TIP3    H241025   3.952   1.780   3.250  1.5787  1.0206 -1.4923
 6512TIP3   OH241026   1.927   4.368   0.944  0.7227  0.1426 -0.1256
 6512TIP3    H141027   1.834   4.367   0.921  0.8146 -0.4472 -0.4954
 6512TIP3    H241028   1.972   4.373   0.860  1.0246  1.3315  0.0853
 6513TIP3   OH241029   1.125   3.190  16.567 -0.2548  0.1096  0.3525
 6513TIP3    H141030   1.032   3.189  16.593 -0.5602  0.3912 -0.6829
 6513TIP3    H241031   1.161   3.267  16.611  0.3122 -1.7243  3.3838
 6514TIP3   OH241032   5.127   3.718  13.861 -0.5586 -0.1524  0.4056
 6514TIP3    H141033   5.208   3.667  13.868 -1.1207 -1.2385 -0.6672
 6514TIP3    H241034   5.057   3.653  13.872 -1.2945  0.3659 -0.9802
 6515TIP3   OH241035   5.860   1.144   3.778 -0.0726  0.5302 -0.2525
 6515TIP3    H141036   5.851   1.223   3.724  0.0021  2.4068  2.2919
 6515TIP3    H241037   5.777   1.098   3.767 -0.1664  0.9939 -1.6951
 6516TIP3   OH241038   3.006   6.559  11.522  0.0812  0.2046 -0.1015
 6516TIP3    H141039   3.025   6.549  11.615  0.6302 -1.0680 -0.3256
 6516TIP3    H241040   2.960   6.479  11.498  0.1010  0.4402 -0.9568
 6517TIP3   OH241041   3.760   3.848   4.539 -0.4778  0.3610 -0.3988
 6517TIP3    H141042   3.797   3.799   4.612 -0.3277 -0.4051 -0.9820
 6517TIP3    H241043   3.733   3.782   4.476 -1.2174  0.9857 -0.7572
 6518TIP3   OH241044   6.034   0.049   5.299 -1.6099  0.2819 -0.9326
 6518TIP3    H141045   5.947   0.030   5.335 -1.2700  0.4540 -0.0070
 6518TIP3    H241046   6.044  -0.013   5.227 -1.1326 -2.1276  1.0575
 6519TIP3   OH241047   0.196   0.869  12.901 -0.0159  0.0560  0.8567
 6519TIP3    H141048   0.267   0.919  12.859  0.7829 -1.0191  0.8873
 6519TIP3    H241049   0.203   0.782  12.864 -2.0281  0.1950  0.0765
 6520TIP3   OH241050   5.275   0.056  14.049  0.2817 -0.4193 -0.4621
 6520TIP3    H141051   5.245   0.046  14.140  1.0825 -0.6417 -0.2182
 6520TIP3    H241052   5.337   0.128  14.052 -1.7935  1.5238 -1.3537
 6521TIP3   OH241053   6.272   3.317   1.402 -0.7573  0.1135  0.5958
 6521TIP3    H141054   6.294   3.386   1.465  1.0489  1.9157 -1.8369
 6521TIP3    H241055   6.333   3.247   1.421 -0.0426  0.7479  0.6942
 6522TIP3   OH241056   3.058   3.819   2.580 -0.0995 -0.5958 -0.2926
 6522TIP3    H141057   3.100   3.905   2.585 -0.9639 -0.0154 -2.1324
 6522TIP3    H241058   2.966   3.836   2.597 -0.7014 -0.6965 -3.0463
 6523TIP3   OH241059   4.608   0.638  13.561  0.1922  0.4046  0.7718
 6523TIP3    H141060   4.649   0.558  13.594 -1.0791 -0.5845  0.0142
 6523TIP3    H241061   4.518   0.634  13.592 -1.5958 -1.3363 -3.7569
 6524TIP3   OH241062   3.290   6.057   3.132  0.1122 -0.3376 -0.1462
 6524TIP3    H141063   3.285   5.965   3.105  0.1174 -0.5386  0.5178
 6524TIP3    H241064   3.199   6.085   3.140  0.0275 -1.1054  2.3226
 6525TIP3   OH241065   3.228   5.612  15.266 -0.0727  0.4461  0.5336
 6525TIP3    H141066   3.248   5.699  15.301  0.2226  0.7239 -0.2971
 6525TIP3    H241067   3.244   5.620  15.172 -0.9293 -0.2568  0.3196
 6526TIP3   OH241068   5.485   5.108   3.511  0.4774  0.2632 -0.1678
 6526TIP3    H141069   5.534   5.159   3.576  0.6718  1.2534 -1.0536
 6526TIP3    H241070   5.511   5.018   3.525  1.5510  0.6316  0.2492
 6527TIP3   OH241071   0.976   5.221  16.650  0.2467  0.2996 -0.0794
 6527TIP3    H141072   1.069   5.203  16.635  0.3469 -0.7119  1.4836
 6527TIP3    H241073   0.962   5.307  16.611  2.1512  1.0393  0.6959
 6528TIP3   OH241074   3.459   5.336  13.214 -0.1784  0.1641  0.5517
 6528TIP3    H141075   3.436   5.333  13.121  0.8598  0.7716  0.2591
 6528TIP3    H241076   3.514   5.258  13.228  1.2701  1.0712  0.1745
 6529TIP3   OH241077   2.078   4.367   4.915 -0.0069  0.0373 -0.2203
 6529TIP3    H141078   2.079   4.463   4.920 -1.8780  0.0245  1.4233
 6529TIP3    H241079   2.077   4.348   4.821  0.5264  1.5982 -0.5818
 6530TIP3   OH241080   5.953   4.876   3.203 -0.2600 -0.1135  0.2329
 6530TIP3    H141081   5.986   4.953   3.155 -3.1062  2.0487  1.4901
 6530TIP3    H241082   5.897   4.831   3.140 -0.3777  0.1359  0.1575
 6531TIP3   OH241083   6.312   1.653  12.807 -0.4277  0.4331 -0.1712
 6531TIP3    H141084   6.296   1.617  12.720  0.4870  1.1222 -0.6427
 6531TIP3    H241085   6.228   1.691  12.833 -0.4393  1.1522 -1.2004
 6532TIP3   OH241086   4.245   2.525   2.342  0.4827  0.0129  0.0357
 6532TIP3    H141087   4.222   2.584   2.414 -0.1601  0.1592 -0.2846
 6532TIP3    H241088   4.233   2.578   2.263  1.5325 -0.0340 -0.1717
 6533TIP3   OH241089   4.936   4.236  16.277 -0.1837  0.5668  0.1606
 6533TIP3    H141090   4.887   4.268  16.201 -1.0323 -0.2867  0.3236
 6533TIP3    H241091   4.875   4.244  16.350 -0.1774 -0.7201  0.3288
 6534TIP3   OH241092   5.675   5.301  16.231  0.6498 -0.3911  0.1611
 6534TIP3    H141093   5.624   5.380  16.212 -0.2371 -1.0737 -0.3505
 6534TIP3    H241094   5.749   5.332  16.283 -0.5332  0.5743  1.3303
 6535TIP3   OH241095   1.753   5.075   3.746 -0.4416 -0.1677  0.6352
 6535TIP3    H141096   1.675   5.117   3.710  0.7864  0.6161 -1.2673
 6535TIP3    H241097   1.808   5.148   3.774  1.4436 -0.3660 -2.1065
 6536TIP3   OH241098   1.921   4.085   3.897 -0.8167 -0.4885 -0.0761
 6536TIP3    H141099   1.966   4.104   3.980  1.0232  1.1521 -1.3684
 6536TIP3    H241100   1.850   4.027   3.922 -0.2259 -0.1926  2.6411
 6537TIP3   OH241101   4.180   5.932  15.611 -0.0580 -0.0695  0.1236
 6537TIP3    H141102   4.146   5.961  15.696 -0.2144 -1.9638  0.7544
 6537TIP3    H241103   4.229   5.852  15.631 -0.0267 -0.5071 -1.5588
 6538TIP3   OH241104   1.232   3.762  11.600 -0.8738  0.0463 -0.3246
 6538TIP3    H141105   1.152   3.708  11.604 -1.4320  0.8097 -1.0639
 6538TIP3    H241106   1.214   3.834  11.660 -0.5208 -0.0561 -0.0949
 6539TIP3   OH241107   1.089   0.654   0.959  0.1777 -0.5077 -0.5207
 6539TIP3    H141108   1.021   0.666   0.893  0.2001 -1.2157 -0.6790
 6539TIP3    H241109   1.048   0.682   1.041  0.2783  0.7662 -0.8754
 6540TIP3   OH241110   5.360   5.935  13.184 -0.3028  0.5803 -0.3114
 6540TIP3    H141111   5.377   5.844  13.158 -1.4835  0.3273 -0.2231
 6540TIP3    H241112   5.356   5.984  13.102  0.0347  0.5054 -0.3744
 6541TIP3   OH241113   6.316   4.736   6.037  0.5516 -0.0873  0.0117
 6541TIP3    H141114   6.279   4.648   6.033 -0.3318  0.3072 -1.0829
 6541TIP3    H241115   6.241   4.793   6.050  0.7020  0.7300 -2.3270
 6542TIP3   OH241116   5.689   6.583   4.660  0.4464 -0.1424 -0.5368
 6542TIP3    H141117   5.632   6.549   4.729 -0.8662  1.3414 -0.8278
 6542TIP3    H241118   5.673   6.525   4.585 -0.3375 -0.0225 -0.4700
 6543TIP3   OH241119   1.690   6.711   1.622 -0.2298  0.0725  0.5634
 6543TIP3    H141120   1.692   6.806   1.609  1.4497 -0.0658 -0.5051
 6543TIP3    H241121   1.761   6.694   1.685  0.8894 -0.6316 -0.8251
 6544TIP3   OH241122   0.194   3.568  13.229 -0.4772  0.2932 -0.1806
 6544TIP3    H141123   0.276   3.523  13.210  0.1973  1.4518 -0.1244
 6544TIP3    H241124   0.140   3.503  13.273  0.1722 -0.6700 -0.7846
 6545TIP3   OH241125   2.892   4.713   1.077 -0.9354 -0.5980 -0.0222
 6545TIP3    H141126   2.939   4.795   1.092 -2.3782  0.6723 -2.0867
 6545TIP3    H241127   2.958   4.655   1.039 -0.5035  0.4476 -0.9009
 6546TIP3   OH241128   1.348   2.786  14.471 -0.5246  0.2291 -0.6733
 6546TIP3    H141129   1.408   2.734  14.418 -0.0952 -1.1896  1.0730
 6546TIP3    H241130   1.262   2.769  14.435 -0.1686 -0.0024 -1.4319
 6547TIP3   OH241131   1.201   1.099   3.803 -0.1286  0.3320  0.3125
 6547TIP3    H141132   1.246   1.084   3.720 -0.7771 -1.2196  0.1983
 6547TIP3    H241133   1.170   1.189   3.798  0.3285  0.4379 -0.8878
 6548TIP3   OH241134   1.991   2.238  13.878 -0.0002  0.4034  0.1424
 6548TIP3    H141135   2.039   2.312  13.914  0.4423  0.4054 -0.4279
 6548TIP3    H241136   2.036   2.218  13.796 -1.7288  1.1729 -1.0339
 6549TIP3   OH241137   4.041   4.880   0.917  0.3665 -0.7791 -0.0564
 6549TIP3    H141138   4.114   4.825   0.891 -1.2028 -3.6863  1.1891
 6549TIP3    H241139   3.969   4.819   0.931 -0.4758  0.9225  5.5797
 6550TIP3   OH241140   3.406   6.745  14.626 -0.2538 -0.1555 -0.1286
 6550TIP3    H141141   3.324   6.754  14.577 -0.6166 -1.6552  0.1592
 6550TIP3    H241142   3.466   6.702  14.564  0.1709  0.4881 -0.1725
 6551TIP3   OH241143   2.024   6.009  13.045 -0.0883  0.1757 -0.1580
 6551TIP3    H141144   2.110   5.975  13.068 -0.5885 -0.1465  1.4110
 6551TIP3    H241145   1.979   5.935  13.004 -0.3791 -0.4004  1.1378
 6552TIP3   OH241146   6.348   0.101   2.880 -0.0713 -0.5246 -0.6680
 6552TIP3    H141147   6.307   0.052   2.809 -2.8077 -0.4889  0.7433
 6552TIP3    H241148   6.290   0.176   2.895  0.7490 -0.1893  1.1853
 6553TIP3   OH241149   4.746   0.807  12.611 -0.5089 -0.3171 -0.5817
 6553TIP3    H141150   4.707   0.894  12.614 -2.5407 -1.0041 -3.5448
 6553TIP3    H241151   4.825   0.818  12.558 -0.6070 -0.2508 -0.7126
 6554TIP3   OH241152   5.009   0.092  16.214 -0.1220 -0.1227 -0.2679
 6554TIP3    H141153   5.020   0.186  16.203 -0.2971 -0.1725 -0.9224
 6554TIP3    H241154   5.085   0.054  16.170  0.6834 -0.2566  1.1765
 6555TIP3   OH241155   5.345   6.035   4.455  0.1657 -0.2240 -0.4420
 6555TIP3    H141156   5.362   6.121   4.491 -1.0965 -0.0891 -0.1266
 6555TIP3    H241157   5.255   6.014   4.482  0.5826 -1.8101 -0.1533
 6556TIP3   OH241158   3.747   5.278  14.431  0.1397 -0.2958  0.7111
 6556TIP3    H141159   3.729   5.249  14.521 -3.1817  0.6358  0.4924
 6556TIP3    H241160   3.777   5.369  14.442 -3.1630  0.9204  0.9324
 6557TIP3   OH241161   4.087   3.149   1.622  0.1172 -0.0226 -0.1828
 6557TIP3    H141162   4.182   3.143   1.622  0.0258 -2.0235 -0.3555
 6557TIP3    H241163   4.063   3.145   1.715  0.2234  1.4349 -0.0764
 6558TIP3   OH241164   3.380   2.477  14.843 -0.2721  0.6648  0.7014
 6558TIP3    H141165   3.373   2.464  14.937  0.9739  0.5475  0.7957
 6558TIP3    H241166   3.335   2.402  14.804  1.0666 -0.4474  1.2256
 6559TIP3   OH241167   5.175   5.704  15.045  0.6814  0.1540 -0.4877
 6559TIP3    H141168   5.200   5.795  15.060  1.1736  0.1173 -1.0229
 6559TIP3    H241169   5.195   5.689  14.952  0.9875 -0.6183 -0.3045
 6560TIP3   OH241170   0.199   5.229  14.452  0.3277 -0.2086  0.2110
 6560TIP3    H141171   0.265   5.183  14.402  0.2622 -0.5849  0.4645
 6560TIP3    H241172   0.241   5.249  14.536  0.6868  1.0797 -0.2551
 6561TIP3   OH241173   4.594   1.063  12.375 -0.1129  0.0124 -0.7851
 6561TIP3    H141174   4.633   1.076  12.462 -1.5413  2.5262 -0.4307
 6561TIP3    H241175   4.651   1.110  12.315  0.1911 -0.6754 -1.0458
 6562TIP3   OH241176   4.865   1.602   0.183  0.2780  0.2878  0.0831
 6562TIP3    H141177   4.949   1.562   0.205 -0.4357 -2.1689 -1.3372
 6562TIP3    H241178   4.804   1.529   0.174 -1.4289  1.7735 -1.3616
 6563TIP3   OH241179   2.617   3.002   2.919 -0.6276  0.6239 -0.1579
 6563TIP3    H141180   2.629   2.941   2.847  2.7978 -0.2836  1.0021
 6563TIP3    H241181   2.611   3.088   2.877  0.3464  0.0337 -1.5888
 6564TIP3   OH241182   2.237   1.222   6.684 -0.9246 -0.0726 -0.4467
 6564TIP3    H141183   2.214   1.137   6.723 -1.5433  0.8248  1.2127
 6564TIP3    H241184   2.308   1.255   6.738 -0.2325  0.1993 -1.4935
 6565TIP3   OH241185   6.480   5.717   5.539  0.7202 -0.2597 -0.3503
 6565TIP3    H141186   6.416   5.665   5.588  1.4181 -0.5317  0.2809
 6565TIP3    H241187   6.450   5.807   5.549 -0.2888 -0.4922 -1.1429
 6566TIP3   OH241188   4.816   1.868   1.686  0.0807  0.1095 -0.0524
 6566TIP3    H141189   4.797   1.922   1.609  0.9564 -0.2434 -0.5385
 6566TIP3    H241190   4.888   1.914   1.730 -0.4419  0.3272  0.5800
 6567TIP3   OH241191   4.323   2.669   5.062  0.3602 -0.0204  0.5572
 6567TIP3    H141192   4.303   2.720   4.983  2.4253  0.3403  0.2238
 6567TIP3    H241193   4.379   2.726   5.114 -1.4562  0.0110  2.6630
 6568TIP3   OH241194   4.198   4.942  17.214  0.6419  0.1512 -0.3987
 6568TIP3    H141195   4.108   4.912  17.224  0.5531 -0.4388 -2.3822
 6568TIP3    H241196   4.244   4.908  17.290 -0.3385 -1.5798 -0.5393
 6569TIP3   OH241197   3.804   1.865  16.892  0.4676 -0.3142 -0.0387
 6569TIP3    H141198   3.833   1.781  16.857 -0.4196 -0.4518 -0.4733
 6569TIP3    H241199   3.829   1.929  16.824 -2.4637 -0.7374 -1.7008
 6570TIP3   OH241200   1.943   3.047   1.419  0.6260  0.2843  0.2959
 6570TIP3    H141201   1.908   2.958   1.421 -1.3088  1.0257  1.9752
 6570TIP3    H241202   1.873   3.102   1.453  2.2378  2.3137  0.5493
 6571TIP3   OH241203   1.115   2.400  17.094  0.1304  0.4190  0.1777
 6571TIP3    H141204   1.169   2.339  17.144  0.3512  0.6449  0.2165
 6571TIP3    H241205   1.161   2.411  17.011  0.0285  0.4422  0.1234
 6572TIP3   OH241206   3.500   6.134   0.133 -0.2660 -0.0319 -0.2890
 6572TIP3    H141207   3.406   6.122   0.147 -0.1212 -0.7751  0.1035
 6572TIP3    H241208   3.529   6.185   0.208  0.1335 -2.2408  1.1550
 6573TIP3   OH241209   4.171   6.185   4.149  0.0362  0.1359  0.5582
 6573TIP3    H141210   4.166   6.205   4.243  0.2738  0.1682  0.5644
 6573TIP3    H241211   4.201   6.094   4.145  0.4252  0.2623  0.5109
 6574TIP3   OH241212   5.952   2.501  16.346 -0.2340 -0.0546  0.4680
 6574TIP3    H141213   5.980   2.430  16.288  1.4476  1.3427 -0.5272
 6574TIP3    H241214   5.858   2.508  16.331 -0.4913 -2.1767  0.7598
 6575TIP3   OH241215   0.476   1.767  10.934 -0.6987  0.4231 -0.1589
 6575TIP3    H141216   0.488   1.675  10.911 -3.0702  0.2930 -1.1499
 6575TIP3    H241217   0.485   1.814  10.851 -0.9419  0.9153  0.0900
 6576TIP3   OH241218   5.039   6.225   4.917 -0.0998  0.2863  0.0866
 6576TIP3    H141219   4.955   6.265   4.895  0.2980  1.3098  0.3469
 6576TIP3    H241220   5.018   6.135   4.941 -1.2818  0.8834  1.3995
 6577TIP3   OH241221   4.672   2.855   0.837  0.6660  0.4594 -0.0997
 6577TIP3    H141222   4.593   2.901   0.865 -0.1717 -0.7980 -0.3384
 6577TIP3    H241223   4.686   2.885   0.747 -0.7815 -0.8685 -0.8181
 6578TIP3   OH241224   3.580   0.065   5.674 -0.3101  0.1690  0.7151
 6578TIP3    H141225   3.534  -0.010   5.636 -0.6426  1.5333 -1.7901
 6578TIP3    H241226   3.673   0.047   5.659 -0.2726 -0.4404  1.5830
 6579TIP3   OH241227   0.320   1.455  11.732 -0.1627 -0.0877  0.3472
 6579TIP3    H141228   0.265   1.516  11.684  0.2929 -0.0878 -0.1791
 6579TIP3    H241229   0.387   1.428  11.670  0.0355 -0.6121  0.7753
 6580TIP3   OH241230   5.911   0.162   2.607  0.6039  0.2093 -0.0562
 6580TIP3    H141231   5.937   0.253   2.623  1.3958  0.0619 -0.4473
 6580TIP3    H241232   5.837   0.148   2.665 -0.3968  1.5185 -0.9336
 6581TIP3   OH241233   2.010   1.813   5.521 -0.3676  0.0119  0.0025
 6581TIP3    H141234   1.944   1.746   5.505  0.1982 -0.2959 -1.1010
 6581TIP3    H241235   1.982   1.888   5.469  0.1652 -0.1418 -0.5262
 6582TIP3   OH241236   4.261   3.969  12.953  0.2885 -0.3298  0.0313
 6582TIP3    H141237   4.180   4.019  12.965 -0.4931 -1.7270  0.8563
 6582TIP3    H241238   4.295   3.957  13.042 -0.3046 -2.4210  0.0436
 6583TIP3   OH241239   3.610   5.756   6.456  1.0995 -0.3352 -0.0566
 6583TIP3    H141240   3.582   5.749   6.548  0.9254 -0.6516 -0.1316
 6583TIP3    H241241   3.652   5.671   6.438  1.3929 -0.1640 -0.1831
 6584TIP3   OH241242   4.811   6.189  15.394  0.3711 -0.5452  0.0404
 6584TIP3    H141243   4.740   6.218  15.452 -0.7235  0.6073 -1.7517
 6584TIP3    H241244   4.891   6.217  15.438 -0.4442  0.6594  0.8153
 6585TIP3   OH241245   5.982   4.052   5.804  0.7162 -0.2329 -0.2228
 6585TIP3    H141246   6.006   4.050   5.712  2.0435 -0.4179  0.1093
 6585TIP3    H241247   5.917   3.982   5.813  0.7716 -0.3873 -0.9567
 6586TIP3   OH241248   2.248   5.166  14.500 -0.1900 -0.1620  0.4187
 6586TIP3    H141249   2.189   5.101  14.537  0.1829 -0.9488 -0.3196
 6586TIP3    H241250   2.252   5.145  14.406  0.2738  0.6553  0.2410
 6587TIP3   OH241251   1.248   3.932  13.842  0.5006 -0.0454 -0.2153
 6587TIP3    H141252   1.168   3.975  13.815  0.0325 -1.0703 -0.5236
 6587TIP3    H241253   1.287   3.991  13.906 -0.8166  0.1876  0.4044
 6588TIP3   OH241254   0.056   4.078  12.587 -0.2287 -0.4388  0.1708
 6588TIP3    H141255   0.084   4.165  12.561  0.6075 -1.1515 -1.4536
 6588TIP3    H241256   0.137   4.027  12.596 -0.7137 -1.1313  0.8201
 6589TIP3   OH241257   5.917   0.385   6.154  0.7205  0.0646 -0.1983
 6589TIP3    H141258   5.927   0.393   6.059 -1.5355  0.7289 -0.4374
 6589TIP3    H241259   5.899   0.474   6.184 -0.3794 -0.3944  0.5713
 6590TIP3   OH241260   6.147   1.022  12.775 -0.7520  0.2424 -0.5900
 6590TIP3    H141261   6.056   1.004  12.749 -0.2471 -1.6658 -1.2047
 6590TIP3    H241262   6.200   0.984  12.705  0.5543 -0.2294  0.6140
 6591TIP3   OH241263   4.410   4.542  12.513 -0.9607  0.1107 -0.3383
 6591TIP3    H141264   4.425   4.549  12.419 -1.3833  0.1988 -0.4006
 6591TIP3    H241265   4.323   4.580  12.527 -1.4802 -1.1004 -0.1064
 6592TIP3   OH241266   3.041   5.618   4.953  0.1067  0.0265 -0.2160
 6592TIP3    H141267   3.041   5.539   4.899 -1.5665 -1.2260  1.4881
 6592TIP3    H241268   2.949   5.636   4.969  0.5267  0.8637  1.4783
 6593TIP3   OH241269   0.593   6.623  15.894 -0.7561 -0.1808 -0.3327
 6593TIP3    H141270   0.538   6.700  15.880 -0.5306 -0.1217 -0.9313
 6593TIP3    H241271   0.674   6.658  15.930 -1.4424 -0.3610  1.4945
 6594TIP3   OH241272   6.810   3.693   3.064 -0.0026 -0.2451 -0.5444
 6594TIP3    H141273   6.807   3.789   3.071 -0.4979 -0.3156  0.4003
 6594TIP3    H241274   6.874   3.666   3.130 -1.1793 -0.6553  0.4729
 6595TIP3   OH241275   5.660   3.755  14.826  0.1101  0.2378 -0.2326
 6595TIP3    H141276   5.636   3.689  14.891 -0.3043 -0.4039 -1.0233
 6595TIP3    H241277   5.659   3.708  14.743 -1.8925  1.6146 -1.0558
 6596TIP3   OH241278   5.728   5.122  16.523 -0.2631 -0.1256  0.2600
 6596TIP3    H141279   5.698   5.121  16.614  2.0008  1.2413  1.1038
 6596TIP3    H241280   5.777   5.203  16.515 -0.2884 -0.2916 -2.1708
 6597TIP3   OH241281   3.069   5.687  15.741 -0.1653  0.3838  0.0948
 6597TIP3    H141282   2.980   5.687  15.776 -0.5898  0.1820 -0.9430
 6597TIP3    H241283   3.085   5.777  15.712 -1.5392 -0.3029 -3.2853
 6598TIP3   OH241284   2.273   6.669   2.899 -0.0675 -0.3956 -0.0364
 6598TIP3    H141285   2.303   6.755   2.928  0.7158 -0.3969 -0.7691
 6598TIP3    H241286   2.327   6.650   2.821 -2.6414  0.0028 -2.0486
 6599TIP3   OH241287   3.453   5.216  10.522 -0.2027  0.6354 -0.2286
 6599TIP3    H141288   3.471   5.123  10.510 -0.5367  0.4566  0.5593
 6599TIP3    H241289   3.527   5.249  10.573 -0.1241  0.7836 -0.4387
 6600TIP3   OH241290   1.012   6.749   0.758  0.0984 -0.0720 -0.4162
 6600TIP3    H141291   1.071   6.815   0.795  0.4414 -1.4407  1.6508
 6600TIP3    H241292   0.971   6.707   0.834  0.6954 -2.9561 -1.5351
 6601TIP3   OH241293   3.042   5.636  12.503  0.2220 -0.4532 -0.0363
 6601TIP3    H141294   3.086   5.644  12.419  0.2067  1.3622  0.0936
 6601TIP3    H241295   3.094   5.690  12.563 -0.4945 -0.6788  0.8121
 6602TIP3   OH241296   1.216   5.164  13.204  0.0957 -0.4051 -0.0384
 6602TIP3    H141297   1.236   5.090  13.262  2.0535 -0.9622 -1.3243
 6602TIP3    H241298   1.215   5.240  13.263  0.5137 -1.1442  0.9568
 6603TIP3   OH241299   3.598   2.248   5.057  0.1649 -0.6411  0.4973
 6603TIP3    H141300   3.665   2.316   5.061 -0.4910 -0.0066  0.8184
 6603TIP3    H241301   3.576   2.241   4.964 -0.2217  0.0397  0.5327
 6604TIP3   OH241302   5.781   5.249   2.603 -0.0512  0.0631 -0.3550
 6604TIP3    H141303   5.752   5.292   2.684  1.8309 -1.0785  1.0089
 6604TIP3    H241304   5.877   5.245   2.611  0.1429 -0.6500 -2.3722
 6605TIP3   OH241305   5.472   4.928  16.827 -0.5030 -0.1502  0.4377
 6605TIP3    H141306   5.387   4.884  16.829 -0.4432 -0.3035 -0.1892
 6605TIP3    H241307   5.531   4.868  16.873 -0.1581 -1.3289 -1.4258
 6606TIP3   OH241308   3.908   5.961  12.532  0.0753 -0.6574  0.3071
 6606TIP3    H141309   3.984   6.018  12.525 -0.3280 -0.1061  0.3341
 6606TIP3    H241310   3.835   6.020  12.548 -1.3726 -0.4160 -5.1027
 6607TIP3   OH241311   2.187   0.695  16.479 -0.4784  0.3670 -0.0176
 6607TIP3    H141312   2.181   0.686  16.384  1.4809  0.8311 -0.2355
 6607TIP3    H241313   2.145   0.616  16.513 -1.1613  0.1709 -1.2567
 6608TIP3   OH241314   5.811   1.908   2.496 -0.2881 -0.1198 -0.1584
 6608TIP3    H141315   5.860   1.973   2.446  2.4751 -0.8375  1.4021
 6608TIP3    H241316   5.757   1.959   2.556  1.2509  0.7805  0.5137
 6609TIP3   OH241317   1.230   0.471   0.088 -0.0575  0.4645 -0.2996
 6609TIP3    H141318   1.217   0.385   0.047 -2.6335  0.9834 -0.7743
 6609TIP3    H241319   1.230   0.532   0.014  2.1785  0.8980  0.0003
 6610TIP3   OH241320   4.081   4.152  16.803 -1.2045  0.0597 -0.0361
 6610TIP3    H141321   4.157   4.105  16.836 -0.7272 -0.3009 -1.5775
 6610TIP3    H241322   4.069   4.119  16.714 -1.4327  2.1436 -0.8345
 6611TIP3   OH241323   1.811   0.807  12.265 -0.1540 -0.9421  0.7145
 6611TIP3    H141324   1.796   0.852  12.182 -0.8064  0.5650  1.6088
 6611TIP3    H241325   1.853   0.872  12.321 -0.3060 -1.7276  1.7744
 6612TIP3   OH241326   3.770   1.383  14.904 -0.3294  0.2326 -0.0027
 6612TIP3    H141327   3.714   1.428  14.968  0.8530 -0.1124  1.3233
 6612TIP3    H241328   3.800   1.453  14.846  0.6078  1.0199  1.3734
 6613TIP3   OH241329   0.801   5.463   2.797  0.0050  0.1974 -0.0980
 6613TIP3    H141330   0.750   5.480   2.718 -0.2788 -1.4345 -0.2947
 6613TIP3    H241331   0.835   5.375   2.785  1.5931  0.6612  0.7404
 6614TIP3   OH241332   4.698   0.873   4.385  0.6961  0.2381  0.5567
 6614TIP3    H141333   4.750   0.942   4.345  1.5574 -0.0576  1.1307
 6614TIP3    H241334   4.607   0.898   4.368  1.0177  0.2707 -1.3091
 6615TIP3   OH241335   2.369   0.452   0.633  0.3414  0.0326  0.3496
 6615TIP3    H141336   2.366   0.467   0.538 -0.7615  3.2129  0.7690
 6615TIP3    H241337   2.403   0.533   0.670 -0.0603 -0.7953  2.7551
 6616TIP3   OH241338   4.410   5.265  12.569 -0.3134 -0.4182  0.1329
 6616TIP3    H141339   4.335   5.318  12.542  0.7873  0.3729 -1.5060
 6616TIP3    H241340   4.444   5.227  12.488  2.4963  1.2117  0.3905
 6617TIP3   OH241341   2.027   5.733   5.004 -0.3235  0.2815  0.0150
 6617TIP3    H141342   2.097   5.726   4.939 -1.3549 -0.1128 -1.0683
 6617TIP3    H241343   2.072   5.763   5.083  1.2983 -1.2485 -0.2696
 6618TIP3   OH241344   1.372   0.992  14.475  0.1214 -0.4096  0.2434
 6618TIP3    H141345   1.462   1.018  14.453 -0.6274  1.6030 -0.6107
 6618TIP3    H241346   1.323   1.004  14.394 -1.1172 -0.5136  0.9606
 6619TIP3   OH241347   3.821   0.275  11.273  0.7244 -0.2565 -0.6443
 6619TIP3    H141348   3.817   0.189  11.230 -1.1247 -0.8409  0.6040
 6619TIP3    H241349   3.785   0.336  11.209  1.7731 -0.4167 -1.4243
 6620TIP3   OH241350   3.158   1.665  13.438 -0.4395 -0.0775 -0.0523
 6620TIP3    H141351   3.073   1.622  13.425  0.7605 -2.0563 -2.3624
 6620TIP3    H241352   3.212   1.598  13.481  0.5618  0.2430 -0.7528
 6621TIP3   OH241353   5.927   2.288  16.164  0.5251  0.6163  0.5915
 6621TIP3    H141354   5.958   2.241  16.087  1.9455  1.0074  0.9091
 6621TIP3    H241355   5.888   2.219  16.219 -0.5480  0.3403 -0.4493
 6622TIP3   OH241356   3.552   1.532  14.090 -0.1078 -0.4573  0.4078
 6622TIP3    H141357   3.571   1.586  14.013 -0.5916 -0.7715  0.0678
 6622TIP3    H241358   3.580   1.444  14.065 -2.5967 -1.0925 -0.3767
 6623TIP3   OH241359   2.274   3.265  16.461  0.5325  0.3166  0.4783
 6623TIP3    H141360   2.313   3.351  16.450  1.3939  0.4875  3.8619
 6623TIP3    H241361   2.337   3.205  16.422  2.4372  0.8958  2.5005
 6624TIP3   OH241362   2.402   5.065   5.878  0.0994  0.6051  0.3166
 6624TIP3    H141363   2.398   5.160   5.891  1.1888  0.6065  0.7948
 6624TIP3    H241364   2.347   5.029   5.948  2.1229  0.8049  2.1261
 6625TIP3   OH241365   5.693   6.487   0.463 -0.5487  0.0262 -0.0635
 6625TIP3    H141366   5.778   6.461   0.499 -2.1314  0.1612  4.4619
 6625TIP3    H241367   5.651   6.405   0.438  0.1456 -0.2099 -0.4907
 6626TIP3   OH241368   6.624   0.609   0.703  0.3501  0.5489 -0.1150
 6626TIP3    H141369   6.598   0.695   0.671  0.3921 -0.1268 -2.1020
 6626TIP3    H241370   6.544   0.556   0.697  0.7285  0.0142 -0.5667
 6627TIP3   OH241371   1.271   0.969   1.564  0.2571  0.0874  0.1200
 6627TIP3    H141372   1.359   1.007   1.572  1.1973 -1.4043 -1.9289
 6627TIP3    H241373   1.273   0.893   1.622  0.2968  0.1172  0.1579
 6628TIP3   OH241374   4.589   4.913  15.824 -0.1299 -0.0619  0.6028
 6628TIP3    H141375   4.577   5.004  15.798 -0.5358 -0.6215 -1.3884
 6628TIP3    H241376   4.650   4.916  15.898 -0.5655  1.8343  0.9295
 6629TIP3   OH241377   2.792   3.165   3.787  0.7236  0.1490 -0.6085
 6629TIP3    H141378   2.788   3.079   3.746  1.2185 -0.0969 -0.1620
 6629TIP3    H241379   2.851   3.153   3.862 -0.9990  0.3096  0.8484
 6630TIP3   OH241380   5.812   2.028   4.984  0.3391  0.4881 -0.0062
 6630TIP3    H141381   5.766   2.017   5.068  0.8972 -1.3557  0.1048
 6630TIP3    H241382   5.778   2.110   4.949 -3.4386 -0.9551 -0.1501
 6631TIP3   OH241383   3.704   2.518  14.410 -0.0895 -0.2223 -0.3882
 6631TIP3    H141384   3.618   2.526  14.369  0.1772  1.2853 -0.7270
 6631TIP3    H241385   3.686   2.498  14.502 -0.8601  1.4756 -0.1456
 6632TIP3   OH241386   1.477   6.594   2.888 -0.1394  0.4919  0.6094
 6632TIP3    H141387   1.392   6.558   2.864  1.1307 -1.6690 -0.9766
 6632TIP3    H241388   1.509   6.636   2.809  0.9257 -0.1437  0.6766
 6633TIP3   OH241389   3.423   3.197  17.087 -0.3293  0.3053  0.0657
 6633TIP3    H141390   3.455   3.274  17.039  0.2021 -0.4931 -0.9038
 6633TIP3    H241391   3.329   3.214  17.097 -0.3390  0.8013 -0.6962
 6634TIP3   OH241392   5.586   3.350  15.727  0.1572 -0.2599  0.0590
 6634TIP3    H141393   5.660   3.400  15.690  0.5095  0.9462  2.2035
 6634TIP3    H241394   5.590   3.265  15.683  0.6354  0.9708 -2.4485
 6635TIP3   OH241395   5.831   2.860  12.195  0.5903 -0.3265  0.1278
 6635TIP3    H141396   5.803   2.829  12.109  1.5343 -0.2467 -0.2263
 6635TIP3    H241397   5.751   2.861  12.248  0.0461 -0.6337 -0.6677
 6636TIP3   OH241398   3.503   1.575   4.349 -0.4860 -0.3760 -0.3209
 6636TIP3    H141399   3.478   1.575   4.441  2.7647  0.8260  0.6972
 6636TIP3    H241400   3.460   1.653   4.312 -0.9611 -0.2698  0.4418
 6637TIP3   OH241401   4.119   1.085   4.660 -0.0113  0.2355 -0.1112
 6637TIP3    H141402   4.166   1.078   4.743 -1.0135 -0.9280  0.3900
 6637TIP3    H241403   4.173   1.144   4.607 -0.0094  2.0323  1.7873
 6638TIP3   OH241404   2.717   0.498   0.689  0.2772  0.6680 -0.4324
 6638TIP3    H141405   2.750   0.551   0.617  1.3889 -1.6346 -1.7381
 6638TIP3    H241406   2.629   0.532   0.706  0.2690  1.7572 -2.3833
 6639TIP3   OH241407   3.604   4.646   5.485 -0.2431  0.0181 -0.0269
 6639TIP3    H141408   3.640   4.613   5.567 -0.4964  1.0309  0.5045
 6639TIP3    H241409   3.509   4.634   5.494 -0.4089  1.4570  0.4652
 6640TIP3   OH241410   6.603   3.545   5.076  0.7149 -0.1615 -0.8196
 6640TIP3    H141411   6.607   3.617   5.139  0.1055 -0.3104 -0.6074
 6640TIP3    H241412   6.635   3.469   5.125  1.1242 -0.0853 -0.9694
 6641TIP3   OH241413   2.811   3.037  12.798  0.7816  0.3939 -0.5238
 6641TIP3    H141414   2.870   3.052  12.872 -0.6754  4.6140  0.0511
 6641TIP3    H241415   2.869   3.024  12.723  2.3646  0.3422  0.6746
 6642TIP3   OH241416   1.793   3.865  16.981  0.5634 -0.4145  0.2125
 6642TIP3    H141417   1.803   3.774  17.009 -1.2397 -0.9417 -0.6778
 6642TIP3    H241418   1.699   3.879  16.979  0.6190  0.2538 -3.3286
 6643TIP3   OH241419   5.278   5.965  14.734  0.1653  0.4796 -0.1711
 6643TIP3    H141420   5.343   6.035  14.726 -0.1508  0.7149 -0.7518
 6643TIP3    H241421   5.194   6.011  14.740  0.0069  0.1619  0.0737
 6644TIP3   OH241422   6.639   1.339   3.471  0.0272  0.3663 -0.1849
 6644TIP3    H141423   6.566   1.319   3.530 -2.7606  2.3174 -2.6349
 6644TIP3    H241424   6.692   1.403   3.520  0.1649 -1.0785  1.6565
 6645TIP3   OH241425   2.172   2.243  15.992  0.5245  0.3552 -0.5479
 6645TIP3    H141426   2.189   2.334  15.967  0.7259  0.4995  0.0835
 6645TIP3    H241427   2.246   2.219  16.047 -0.8695  0.7504  1.6297
 6646TIP3   OH241428   4.636   2.036   4.834  0.6781  0.0309 -0.4792
 6646TIP3    H141429   4.563   1.987   4.796  0.0194  1.0674 -0.5769
 6646TIP3    H241430   4.596   2.089   4.902  1.4104  0.3199 -0.2691
 6647TIP3   OH241431   6.632   2.746  13.706  0.0379  0.0478 -0.4375
 6647TIP3    H141432   6.689   2.669  13.711  1.5155  1.1241  0.1912
 6647TIP3    H241433   6.614   2.769  13.797  0.8676  1.2866 -0.5538
 6648TIP3   OH241434   6.601   4.494  16.736 -0.2729  0.4802  0.6572
 6648TIP3    H141435   6.599   4.534  16.823 -1.2699 -0.0668  0.8964
 6648TIP3    H241436   6.522   4.527  16.693 -0.8094 -0.7581  0.6557
 6649TIP3   OH241437   1.693   1.800   5.808 -0.6696 -0.5971  0.1110
 6649TIP3    H141438   1.601   1.814   5.831 -0.8480 -0.7045 -0.4984
 6649TIP3    H241439   1.689   1.753   5.725 -0.0592 -0.1443 -0.1800
 6650TIP3   OH241440   5.243   1.080   4.162  0.0565 -0.0245  0.5704
 6650TIP3    H141441   5.313   1.107   4.222  0.8498 -0.0248 -0.3439
 6650TIP3    H241442   5.211   0.998   4.199 -0.0944  0.4350  1.5016
 6651TIP3   OH241443   6.023   3.582  16.117 -0.4350  0.4817 -0.1673
 6651TIP3    H141444   6.070   3.563  16.035  0.3362  1.7914 -0.0546
 6651TIP3    H241445   6.033   3.503  16.169  1.5352  0.6422 -0.2275
 6652TIP3   OH241446   1.902   1.052   1.342 -0.0977 -0.0315 -0.2128
 6652TIP3    H141447   1.906   0.986   1.273 -0.2067  0.1397 -0.3847
 6652TIP3    H241448   1.815   1.091   1.333  0.1078  0.3991 -0.3577
 6653TIP3   OH241449   1.695   2.104   2.088  0.0703  0.3006 -0.3051
 6653TIP3    H141450   1.756   2.034   2.112 -1.3665 -1.3129 -1.1448
 6653TIP3    H241451   1.637   2.112   2.164  0.7026  1.1885  0.1124
 6654TIP3   OH241452   0.384   3.725  15.718  0.0741  0.4048 -0.1309
 6654TIP3    H141453   0.385   3.643  15.767 -1.1626 -0.1798 -1.0332
 6654TIP3    H241454   0.372   3.698  15.627  2.7754  1.4153 -0.9020
 6655TIP3   OH241455   6.549   4.619   0.263  0.7237 -0.0616  0.2421
 6655TIP3    H141456   6.511   4.650   0.181  0.8308  0.0738  0.2431
 6655TIP3    H241457   6.475   4.578   0.310  0.7688 -0.5915 -0.1370
 6656TIP3   OH241458   4.244   6.315   1.783 -0.0698 -0.1950 -0.1791
 6656TIP3    H141459   4.175   6.287   1.723  0.3006 -1.0177 -0.2437
 6656TIP3    H241460   4.214   6.398   1.818 -1.9025 -1.3412  1.1094
 6657TIP3   OH241461   1.733   5.075  13.200 -0.0499 -0.1732 -0.8560
 6657TIP3    H141462   1.799   5.138  13.170  0.7733 -0.5350  0.1384
 6657TIP3    H241463   1.652   5.126  13.206  0.4680  0.6438 -0.6770
 6658TIP3   OH241464   0.204   5.788   2.928  0.3693  0.0375 -0.1961
 6658TIP3    H141465   0.164   5.756   2.847  1.0879  2.0038 -1.4052
 6658TIP3    H241466   0.207   5.711   2.985  0.4808 -1.6032 -2.2788
 6659TIP3   OH241467   3.033   2.838  12.926 -0.3304 -0.1681 -0.4033
 6659TIP3    H141468   3.083   2.817  13.005  0.1945  0.6070 -0.5211
 6659TIP3    H241469   3.038   2.933  12.918 -1.7718 -0.0696 -0.4682
 6660TIP3   OH241470   0.679   2.523  12.848 -0.0668 -0.7287 -0.0872
 6660TIP3    H141471   0.683   2.445  12.794  0.8125  0.8659 -2.5071
 6660TIP3    H241472   0.755   2.575  12.820  0.2169  0.3923  2.4556
 6661TIP3   OH241473   1.674   5.139  16.592 -0.5673  0.1193  0.1898
 6661TIP3    H141474   1.693   5.081  16.666  0.6004 -0.3070 -0.4274
 6661TIP3    H241475   1.612   5.203  16.628 -0.1529 -0.1765  1.4932
 6662TIP3   OH241476   1.127   0.001   4.230  0.4674  0.7482  0.1567
 6662TIP3    H141477   1.103  -0.042   4.147  1.8163 -0.1173  0.1949
 6662TIP3    H241478   1.047   0.048   4.255 -0.0674  0.8008 -1.4799
 6663TIP3   OH241479   3.878   1.721   5.595 -0.5831  0.1620  0.3476
 6663TIP3    H141480   3.886   1.717   5.500  2.6730 -0.4987  0.5106
 6663TIP3    H241481   3.886   1.814   5.617  1.3859  0.1193  0.0212
 6664TIP3   OH241482   3.346   6.228  14.976 -0.8802 -0.2264 -0.3029
 6664TIP3    H141483   3.303   6.308  15.008  1.3138  0.4635  1.1640
 6664TIP3    H241484   3.323   6.224  14.883 -1.3876  1.8881 -0.3177
 6665TIP3   OH241485   4.485   1.533  14.123  0.1775 -0.3328 -0.5494
 6665TIP3    H141486   4.402   1.578  14.104  0.0638  0.0600  0.7929
 6665TIP3    H241487   4.547   1.573  14.062 -0.6061 -0.6616 -1.6057
 6666TIP3   OH241488   3.820   2.330   4.666  0.4134 -0.5541 -0.2623
 6666TIP3    H141489   3.762   2.294   4.733 -0.0169  1.6745  0.6921
 6666TIP3    H241490   3.892   2.268   4.659 -0.9631 -2.2566  0.1731
 6667TIP3   OH241491   5.669   5.194  17.054 -0.1799 -0.1166  0.0953
 6667TIP3    H141492   5.674   5.269  17.113  1.6959  0.7627 -1.0822
 6667TIP3    H241493   5.756   5.153  17.060 -0.5909 -1.1340 -0.6398
 6668TIP3   OH241494   3.915   6.451   4.425 -0.1536  0.0812  0.5657
 6668TIP3    H141495   3.897   6.414   4.339  0.1146 -0.0699  0.5746
 6668TIP3    H241496   3.961   6.382   4.472  0.7650  0.5884  0.4223
 6669TIP3   OH241497   3.290   0.805  11.922  0.4275  0.5912 -0.4241
 6669TIP3    H141498   3.348   0.777  11.993 -1.1952 -3.4261 -0.4416
 6669TIP3    H241499   3.345   0.805  11.844  0.9532 -0.9437 -0.0857
 6670TIP3   OH241500   4.289   3.656   6.192 -0.4879  0.0384  0.4430
 6670TIP3    H141501   4.196   3.636   6.200 -0.2534 -0.5223  2.3256
 6670TIP3    H241502   4.295   3.749   6.216 -0.9558  1.3051 -3.5043
 6671TIP3   OH241503   6.352   1.521  15.246 -0.0094  0.0907  0.0675
 6671TIP3    H141504   6.272   1.510  15.196 -0.4089 -0.3286  0.7933
 6671TIP3    H241505   6.412   1.565  15.185 -0.9003  0.7536 -0.3614
 6672TIP3   OH241506   1.942   1.505  15.672 -0.3295  0.5984  0.3893
 6672TIP3    H141507   1.980   1.544  15.751 -1.1939 -1.6520  2.0154
 6672TIP3    H241508   2.011   1.450  15.637 -0.3104  0.7426  0.1983
 6673TIP3   OH241509   4.038   4.842  12.352 -0.4312 -0.0400  0.2508
 6673TIP3    H141510   3.967   4.827  12.414 -1.1927 -0.3364 -0.6738
 6673TIP3    H241511   3.998   4.833  12.266  0.6969 -0.0767 -0.2981
 6674TIP3   OH241512   5.314   6.099   4.985 -0.0749  0.0754 -1.0600
 6674TIP3    H141513   5.239   6.142   4.944  0.3103  1.9824  0.1029
 6674TIP3    H241514   5.281   6.013   5.013 -1.9101  0.9733 -0.3347
 6675TIP3   OH241515   1.683   3.927   1.169 -0.0469  0.1813 -0.0412
 6675TIP3    H141516   1.691   3.833   1.153 -1.7207  0.0662 -0.3662
 6675TIP3    H241517   1.615   3.934   1.236 -0.7244  1.2154 -0.8139
 6676TIP3   OH241518   5.118   0.928  13.850  0.3385 -0.3225  0.1953
 6676TIP3    H141519   5.067   0.973  13.783  0.5558  0.3800  0.4989
 6676TIP3    H241520   5.059   0.861  13.884 -1.9268  2.9053  3.3319
 6677TIP3   OH241521   5.999   1.523  12.636 -0.1801  0.0490  0.1510
 6677TIP3    H141522   6.041   1.480  12.711  0.5136  1.7877  0.8041
 6677TIP3    H241523   6.027   1.472  12.560  1.4881 -0.0315  0.7874
 6678TIP3   OH241524   4.021   5.355  14.005 -0.6394 -0.1706  0.1808
 6678TIP3    H141525   4.051   5.264  14.008 -1.0935 -0.3384 -0.1411
 6678TIP3    H241526   3.936   5.353  14.049  0.2955  0.5097  2.0897
 6679TIP3   OH241527   0.163   5.363  16.108  0.5364 -0.4750  0.3894
 6679TIP3    H141528   0.128   5.431  16.050  1.1510 -1.0334 -0.6714
 6679TIP3    H241529   0.090   5.339  16.164 -0.1162  0.0041 -0.2346
 6680TIP3   OH241530   1.886   3.358   0.231 -0.2675  0.1387 -0.3677
 6680TIP3    H141531   1.894   3.431   0.292 -1.7061 -0.1111  0.1520
 6680TIP3    H241532   1.944   3.290   0.266 -0.6499  0.2083  0.4113
 6681TIP3   OH241533   2.739   0.296  12.161 -0.3055  0.0154  0.3938
 6681TIP3    H141534   2.832   0.275  12.171 -0.2033  0.3951  0.2797
 6681TIP3    H241535   2.738   0.371  12.101 -0.5837  1.1201  1.7464
 6682TIP3   OH241536   6.805   2.315   5.390  0.2108  0.7970  0.0649
 6682TIP3    H141537   6.881   2.257   5.399 -0.3100 -0.3212 -1.8909
 6682TIP3    H241538   6.741   2.280   5.452  0.4594  0.2352  0.0164
 6683TIP3   OH241539   3.401   0.038   1.516 -0.1101  0.3906 -0.0997
 6683TIP3    H141540   3.470   0.065   1.455  0.5854 -0.2277  0.3858
 6683TIP3    H241541   3.446   0.030   1.600 -0.6647 -0.4794  0.1306
 6684TIP3   OH241542   1.662   5.529  13.648 -1.0737  0.0590 -0.1293
 6684TIP3    H141543   1.573   5.495  13.644 -0.4551 -1.7398  0.3638
 6684TIP3    H241544   1.689   5.538  13.557 -2.3605  2.4557 -0.3560
 6685TIP3   OH241545   2.078   4.134   1.881 -0.1517 -0.6573 -0.7214
 6685TIP3    H141546   2.138   4.122   1.806  0.0774 -1.4494 -0.4220
 6685TIP3    H241547   2.000   4.085   1.857 -0.1834 -0.6886 -0.5534
 6686TIP3   OH241548   0.964   6.469  14.191 -0.4368 -0.3943 -0.1154
 6686TIP3    H141549   0.892   6.529  14.170 -1.2767 -0.8211  1.4244
 6686TIP3    H241550   0.921   6.393  14.229  0.7280 -1.3967 -0.7405
 6687TIP3   OH241551   6.199   4.852  12.228 -0.4098  0.0974  0.0220
 6687TIP3    H141552   6.271   4.790  12.222 -0.7727 -0.5659  1.9003
 6687TIP3    H241553   6.210   4.895  12.313 -1.3627  1.0992 -0.3281
 6688TIP3   OH241554   0.371   3.503  12.013  0.0317  0.0968 -0.3031
 6688TIP3    H141555   0.413   3.580  12.052  0.6149 -0.7307  0.7853
 6688TIP3    H241556   0.444   3.447  11.986 -0.3831  0.0258 -1.3234
 6689TIP3   OH241557   1.131   0.562  11.890  0.5339 -0.0707 -0.3461
 6689TIP3    H141558   1.081   0.638  11.861  0.2910  0.0592  0.3930
 6689TIP3    H241559   1.119   0.560  11.985  2.3345  0.2708 -0.0716
 6690TIP3   OH241560   2.270   1.637  15.822 -0.0824  0.2983 -0.0474
 6690TIP3    H141561   2.182   1.636  15.859 -0.7548 -0.5140 -1.6191
 6690TIP3    H241562   2.263   1.692  15.744  1.1692  1.4519  0.6025
 6691TIP3   OH241563   2.739   0.926  13.584 -0.4322 -0.0200 -0.1764
 6691TIP3    H141564   2.766   0.926  13.492 -0.7642 -0.3269 -0.2760
 6691TIP3    H241565   2.740   1.019  13.609  0.5955 -0.0128 -0.2085
 6692TIP3   OH241566   1.461   5.738   4.773  0.0179  0.8765  0.4163
 6692TIP3    H141567   1.399   5.741   4.700 -1.0008  0.0682  1.2235
 6692TIP3    H241568   1.453   5.824   4.814  1.3448  1.7156 -0.9970
 6693TIP3   OH241569   3.044   5.913   5.586  0.2099 -0.7586 -0.1495
 6693TIP3    H141570   2.970   5.867   5.547  0.6484  0.0901 -2.1462
 6693TIP3    H241571   3.022   5.921   5.678 -1.7168 -1.4160 -0.5030
 6694TIP3   OH241572   6.076   0.756  13.410  0.7570 -0.3369  0.5947
 6694TIP3    H141573   6.144   0.692  13.387  1.0808  0.0709  0.4009
 6694TIP3    H241574   5.998   0.726  13.364  1.4206  0.5398 -1.2131
 6695TIP3   OH241575   3.377   4.498   4.917  0.4815  0.0135 -0.4132
 6695TIP3    H141576   3.420   4.454   4.844  1.7163 -0.8199  0.7701
 6695TIP3    H241577   3.447   4.550   4.957 -0.1608  0.3874  0.2295
 6696TIP3   OH241578   2.750   1.392  11.585  0.3461  0.0782  0.5137
 6696TIP3    H141579   2.726   1.440  11.506 -0.2185  1.3075  1.3933
 6696TIP3    H241580   2.842   1.370  11.573  0.8175  1.9795  0.3371
 6697TIP3   OH241581   1.823   5.301   2.304  0.2310  0.0999 -0.1677
 6697TIP3    H141582   1.778   5.373   2.261 -0.3465 -1.3107 -2.0886
 6697TIP3    H241583   1.764   5.272   2.373  0.9639  2.1150  1.3895
 6698TIP3   OH241584   2.089   3.742  12.670  0.7984 -0.0920 -0.8520
 6698TIP3    H141585   2.157   3.683  12.638  1.7232 -0.2081  1.1780
 6698TIP3    H241586   2.015   3.685  12.690  0.4039 -0.0821 -2.2147
 6699TIP3   OH241587   1.938   0.548   6.284  0.3868 -0.0611  0.1896
 6699TIP3    H141588   2.034   0.547   6.287  0.4224 -0.0119 -0.6486
 6699TIP3    H241589   1.914   0.630   6.326  0.8230  0.9002 -1.3281
 6700TIP3   OH241590   2.390   4.255  15.414  0.3188 -0.6539  0.2935
 6700TIP3    H141591   2.311   4.222  15.373 -0.5804  1.7299 -0.0912
 6700TIP3    H241592   2.360   4.291  15.498  0.7701  0.9718 -0.1906
 6701TIP3   OH241593   2.581   5.711   3.577 -0.0752 -0.4000 -0.3850
 6701TIP3    H141594   2.531   5.712   3.496  0.8540 -1.1784 -0.9908
 6701TIP3    H241595   2.552   5.789   3.624 -0.6374  0.0610 -1.4567
 6702TIP3   OH241596   3.549   1.149  16.270  0.4040  0.5801 -0.3042
 6702TIP3    H141597   3.479   1.199  16.227 -1.6110 -4.3429 -3.5610
 6702TIP3    H241598   3.612   1.131  16.201  0.3748 -2.2743  0.2983
 6703TIP3   OH241599   0.740   0.089  14.804  0.3697  0.1140 -0.3870
 6703TIP3    H141600   0.803   0.155  14.832 -0.9217  1.2322 -0.0070
 6703TIP3    H241601   0.781   0.048  14.728  1.3020  1.2087 -0.5043
 6704TIP3   OH241602   2.191   2.221  15.569  0.4379 -0.2998  0.1846
 6704TIP3    H141603   2.151   2.159  15.629  1.3482 -3.1498 -1.9429
 6704TIP3    H241604   2.285   2.215  15.588  0.7649 -1.4900 -1.6853
 6705TIP3   OH241605   4.832   2.579   4.533  0.5576  0.3918  0.0765
 6705TIP3    H141606   4.854   2.507   4.593  0.6648  0.9284  0.6868
 6705TIP3    H241607   4.753   2.618   4.571  1.3636  1.5614  0.6060
 6706TIP3   OH241608   3.343   4.265   2.410 -0.2338 -0.2385  0.5021
 6706TIP3    H141609   3.363   4.340   2.354  0.4421 -0.7858  0.0022
 6706TIP3    H241610   3.408   4.268   2.480  0.0823 -0.6225  0.2258
 6707TIP3   OH241611   2.439   1.202   6.142 -0.3977 -0.2946 -0.0556
 6707TIP3    H141612   2.438   1.295   6.162 -0.0190 -0.3290  0.1297
 6707TIP3    H241613   2.349   1.173   6.157 -1.1958  0.5697 -2.6545
 6708TIP3   OH241614   3.340   6.359  11.647  1.5801 -0.3614  0.0726
 6708TIP3    H141615   3.286   6.309  11.708  1.1657 -1.5943 -1.2224
 6708TIP3    H241616   3.389   6.420  11.701  1.6596 -1.7859  1.6790
 6709TIP3   OH241617   2.509   2.491  16.346 -0.1814  0.5577  0.1450
 6709TIP3    H141618   2.547   2.404  16.335 -1.1071  0.2458 -0.6252
 6709TIP3    H241619   2.565   2.533  16.412  1.3296  0.0114 -0.7427
 6710TIP3   OH241620   5.917   4.337   5.736  0.5961 -0.1633  0.6320
 6710TIP3    H141621   5.882   4.285   5.664  1.2926 -1.7132  1.3633
 6710TIP3    H241622   5.966   4.274   5.789  1.2952  1.2146  1.6806
 6711TIP3   OH241623   4.088   4.258  16.002  0.2127 -0.5061  0.6632
 6711TIP3    H141624   3.997   4.233  15.983 -0.3563  2.2725 -0.7794
 6711TIP3    H241625   4.082   4.311  16.082  0.0270  2.0289 -0.9147
 6712TIP3   OH241626   1.432   5.110  16.937 -0.0545 -0.0029  0.4502
 6712TIP3    H141627   1.370   5.054  16.984  1.2614 -0.9483  1.1064
 6712TIP3    H241628   1.457   5.059  16.860  0.4735  0.0448  0.5846
 6713TIP3   OH241629   3.539   5.833   0.868  0.1829  0.3652 -0.3627
 6713TIP3    H141630   3.542   5.812   0.962 -0.3476 -0.3773 -0.5026
 6713TIP3    H241631   3.452   5.871   0.855 -0.6363 -1.5869 -0.9408
 6714TIP3   OH241632   2.729   4.808  14.501 -1.0313 -0.4355  0.4519
 6714TIP3    H141633   2.651   4.861  14.482  0.2712  0.9296 -1.3698
 6714TIP3    H241634   2.734   4.746  14.429 -0.7770 -0.9638  0.9172
 6715TIP3   OH241635   0.193   0.870   0.599 -0.4371 -0.0760  0.2042
 6715TIP3    H141636   0.252   0.901   0.531  1.1582 -1.0620  1.0775
 6715TIP3    H241637   0.141   0.801   0.557 -0.9677  0.7615 -0.5504
 6716TIP3   OH241638   6.028   1.297   0.874 -0.0899  0.4029  0.0742
 6716TIP3    H141639   6.030   1.381   0.920 -1.0623  0.5412 -0.1128
 6716TIP3    H241640   6.098   1.246   0.914  1.7004  1.9080 -0.9776
 6717TIP3   OH241641   3.938   0.629  12.857 -0.2557 -0.4420 -0.5351
 6717TIP3    H141642   4.032   0.615  12.869 -0.3855 -0.9208 -0.0137
 6717TIP3    H241643   3.900   0.606  12.942 -0.8306 -0.1126 -0.7001
 6718TIP3   OH241644   3.339   1.620   4.709  0.0648  0.6735 -0.2260
 6718TIP3    H141645   3.251   1.599   4.740  0.5361 -0.4655  0.4107
 6718TIP3    H241646   3.341   1.716   4.704 -0.6204  0.8157  1.5327
 6719TIP3   OH241647   3.363   6.429  14.513  0.8395  0.7670  0.8069
 6719TIP3    H141648   3.422   6.354  14.508  2.7525  2.2901 -2.0171
 6719TIP3    H241649   3.419   6.503  14.531 -0.2842  2.1277 -0.8901
 6720TIP3   OH241650   1.531   2.779   4.655 -0.4021 -0.4515  0.1147
 6720TIP3    H141651   1.486   2.730   4.724 -2.0028 -1.0175 -1.2514
 6720TIP3    H241652   1.615   2.805   4.694 -1.1714 -0.8901  2.1803
 6721TIP3   OH241653   4.735   5.467  14.989  0.3062  0.1606 -0.5046
 6721TIP3    H141654   4.688   5.523  15.051 -0.5986 -3.0235  1.9790
 6721TIP3    H241655   4.826   5.470  15.018  0.6099  1.6639 -1.5285
 6722TIP3   OH241656   3.684   5.552   6.710 -0.0717  0.0865 -0.1481
 6722TIP3    H141657   3.707   5.645   6.713  1.9540 -0.3445 -0.7611
 6722TIP3    H241658   3.746   5.510   6.770 -1.6098 -0.7929  0.9075
 6723TIP3   OH241659   3.286   4.755   1.123  0.2385 -0.2317  0.3948
 6723TIP3    H141660   3.286   4.830   1.064  3.0568 -0.1492  0.3579
 6723TIP3    H241661   3.377   4.728   1.128 -0.5853 -3.3632  0.8378
 6724TIP3   OH241662   6.009   2.153   2.131  0.0310  0.2179  0.1406
 6724TIP3    H141663   6.085   2.118   2.085 -0.0660 -1.1015  0.9023
 6724TIP3    H241664   5.934   2.125   2.079  0.0168  0.4509  0.0377
 6725TIP3   OH241665   1.897   6.600  11.215  0.5917 -0.4462  0.0482
 6725TIP3    H141666   1.954   6.614  11.139 -1.6646  2.0782 -1.3494
 6725TIP3    H241667   1.808   6.601  11.179 -0.5234 -0.1616  2.6083
 6726TIP3   OH241668   6.243   0.455   5.262 -0.1485  0.0130  0.1223
 6726TIP3    H141669   6.277   0.413   5.341 -0.9011 -1.5784 -0.3660
 6726TIP3    H241670   6.318   0.455   5.201 -0.0195 -0.2302  0.2789
 6727TIP3   OH241671   4.048   5.113  10.422 -0.0631 -0.2505 -0.4379
 6727TIP3    H141672   3.973   5.067  10.384 -2.0379  1.7161  0.8484
 6727TIP3    H241673   4.068   5.064  10.501 -2.1675  0.9825  0.9399
 6728TIP3   OH241674   2.187   4.163   0.967  0.2287 -0.0195 -0.0415
 6728TIP3    H141675   2.189   4.111   1.047  0.3494  2.1037  1.4118
 6728TIP3    H241676   2.097   4.158   0.936  0.0270 -0.3071  0.5976
 6729TIP3   OH241677   5.231   0.112   3.495 -0.2060  0.8561 -1.1248
 6729TIP3    H141678   5.250   0.131   3.587  0.6167 -0.6561 -0.9463
 6729TIP3    H241679   5.157   0.168   3.473  0.8515  2.7278 -0.1319
 6730TIP3   OH241680   3.052   3.078  14.857  0.1760 -0.3694  0.1636
 6730TIP3    H141681   3.140   3.060  14.890 -0.3907  0.5244  2.3775
 6730TIP3    H241682   3.054   3.171  14.832  0.4025 -0.8691 -1.8255
 6731TIP3   OH241683   4.269   5.906  12.317  0.7029  1.0157 -0.6922
 6731TIP3    H141684   4.208   5.962  12.269  0.5017  0.3934 -1.1882
 6731TIP3    H241685   4.350   5.910  12.266  0.5113  0.4120 -1.0634
 6732TIP3   OH241686   1.330   4.340  14.481  0.2968  0.3558 -0.5226
 6732TIP3    H141687   1.415   4.348  14.437  0.4289  1.4285 -0.1051
 6732TIP3    H241688   1.274   4.298  14.416  0.7957  0.8577 -1.2982
 6733TIP3   OH241689   6.280   3.460  16.665 -0.1444 -0.0908 -0.4407
 6733TIP3    H141690   6.283   3.555  16.674  1.5825 -0.2775  1.8706
 6733TIP3    H241691   6.244   3.429  16.748  1.0168 -1.5093 -0.4151
 6734TIP3   OH241692   3.255   2.983  13.743 -0.0235  0.0340  0.3639
 6734TIP3    H141693   3.200   3.060  13.746  0.2548  0.1971  1.9421
 6734TIP3    H241694   3.323   2.999  13.808  1.1358 -0.7351 -0.6035
 6735TIP3   OH241695   2.220   1.741   3.319 -0.0173  0.0351  0.9698
 6735TIP3    H141696   2.129   1.755   3.293  0.1663 -1.1980 -0.4672
 6735TIP3    H241697   2.263   1.825   3.304 -0.5346  0.1201 -0.1180
 6736TIP3   OH241698   0.256   3.068   2.906 -0.1768 -0.4595  0.4465
 6736TIP3    H141699   0.347   3.093   2.922 -0.0196 -0.2448 -0.7140
 6736TIP3    H241700   0.242   3.086   2.813 -0.8899 -2.1198  0.1992
 6737TIP3   OH241701   2.651   0.256   3.510 -0.4567  0.1398  0.6650
 6737TIP3    H141702   2.622   0.191   3.446 -1.7997  0.4107  0.9614
 6737TIP3    H241703   2.745   0.266   3.494 -1.1529  2.1663 -3.0252
 6738TIP3   OH241704   0.829   4.090   0.337  0.5721  0.1585  0.5351
 6738TIP3    H141705   0.820   3.995   0.336 -1.2810  0.2869 -0.9289
 6738TIP3    H241706   0.901   4.107   0.277  1.5537 -0.3336  1.5396
 6739TIP3   OH241707   4.170   0.934   5.573  0.2204 -0.7339  0.1908
 6739TIP3    H141708   4.114   0.921   5.496  0.3752  1.2785 -0.3312
 6739TIP3    H241709   4.143   1.019   5.608  2.1784 -0.2263  0.5866
 6740TIP3   OH241710   5.519   3.834   2.838 -0.0081 -0.1091 -0.1311
 6740TIP3    H141711   5.450   3.784   2.882  0.5120 -2.1215 -1.4665
 6740TIP3    H241712   5.600   3.787   2.859  0.4097 -0.3401 -2.0720
 6741TIP3   OH241713   0.898   4.001  17.193 -0.3473  0.1230 -0.3636
 6741TIP3    H141714   0.809   3.973  17.172 -0.8106  0.6856  0.7595
 6741TIP3    H241715   0.923   4.061  17.123 -0.9239  0.0976 -0.5901
 6742TIP3   OH241716   0.651   3.654   1.375 -0.4433 -0.0211  0.2278
 6742TIP3    H141717   0.590   3.661   1.301  1.4836  1.1089 -1.3753
 6742TIP3    H241718   0.703   3.734   1.370  2.2650 -1.6405  0.4625
 6743TIP3   OH241719   3.071   0.004   0.154  0.7589 -0.0278 -0.2151
 6743TIP3    H141720   3.032   0.023   0.240 -1.3533  1.9774 -1.4802
 6743TIP3    H241721   3.022  -0.071   0.122 -0.5574  1.0317 -0.8111
 6744TIP3   OH241722   3.175   4.063   2.504  0.0774  0.2180 -0.0637
 6744TIP3    H141723   3.237   4.127   2.470 -1.1295  1.0411 -0.8080
 6744TIP3    H241724   3.164   4.000   2.432 -2.6356  2.0740 -1.4267
 6745TIP3   OH241725   1.071   2.449   2.232  0.0113 -0.0704 -0.0698
 6745TIP3    H141726   1.071   2.410   2.319 -1.0546 -0.7055 -0.3362
 6745TIP3    H241727   1.113   2.534   2.244 -0.3825 -0.0244  1.1247
 6746TIP3   OH241728   1.417   5.497   2.312 -0.5690 -0.4023  0.4649
 6746TIP3    H141729   1.390   5.505   2.221  0.8496  0.6400  0.1048
 6746TIP3    H241730   1.428   5.403   2.326  2.3469 -0.4756 -1.4544
 6747TIP3   OH241731   3.950   4.719   2.608 -0.3194  0.3962  0.3476
 6747TIP3    H141732   3.978   4.778   2.678  1.3695  1.5721 -1.2306
 6747TIP3    H241733   3.883   4.767   2.560  1.0955  1.1336 -0.9713
 6748TIP3   OH241734   2.470   2.662  16.707 -0.7134 -0.1781  0.0818
 6748TIP3    H141735   2.536   2.659  16.637 -0.0708 -0.1920  0.6724
 6748TIP3    H241736   2.430   2.749  16.699  0.2859  0.3452  0.5132
 6749TIP3   OH241737   3.822   4.327  15.342 -0.0057  0.0418  0.1082
 6749TIP3    H141738   3.741   4.278  15.332  1.1812 -2.3171  1.2437
 6749TIP3    H241739   3.856   4.336  15.253 -0.5267 -0.7394 -0.1776
 6750TIP3   OH241740   2.870   0.140  15.095  0.3873  0.0241  0.2291
 6750TIP3    H141741   2.838   0.067  15.147  1.0010 -0.0844  0.4668
 6750TIP3    H241742   2.944   0.175  15.145  0.5189  0.3832 -0.2053
 6751TIP3   OH241743   0.563   5.217   5.738 -0.6987  0.3571  0.0584
 6751TIP3    H141744   0.527   5.158   5.804 -1.1503 -1.1625 -1.4577
 6751TIP3    H241745   0.487   5.243   5.685 -0.0916 -0.0564 -1.0505
 6752TIP3   OH241746   3.196   6.097  16.217  0.2282  0.0453 -0.3406
 6752TIP3    H141747   3.222   6.048  16.140 -1.5960 -0.2971 -0.7824
 6752TIP3    H241748   3.143   6.169  16.184 -1.1586 -0.4888  0.5806
 6753TIP3   OH241749   6.657   3.158   4.203 -0.0282  0.1571 -0.5373
 6753TIP3    H141750   6.613   3.073   4.207 -2.9972  1.4358 -2.0455
 6753TIP3    H241751   6.722   3.149   4.133  0.4553 -1.1361  0.0606
 6754TIP3   OH241752   6.204   1.054   1.104  0.0685  0.6261  0.3492
 6754TIP3    H141753   6.237   1.121   1.044 -0.1618  0.1928 -0.2697
 6754TIP3    H241754   6.128   1.095   1.146  0.9583  1.3739  1.2722
 6755TIP3   OH241755   4.272   4.706  16.122  0.7539  0.5158 -0.1058
 6755TIP3    H141756   4.234   4.784  16.081  1.4866  1.3012  0.6708
 6755TIP3    H241757   4.280   4.729  16.215  0.0556 -0.8564  0.3360
 6756TIP3   OH241758   5.683   4.965  14.346  0.0272  0.1095 -0.7529
 6756TIP3    H141759   5.719   4.994  14.430 -3.5468 -1.2795  1.5424
 6756TIP3    H241760   5.675   5.045  14.295  2.0755  1.0640  0.3066
 6757TIP3   OH241761   1.227   1.378   4.921  0.1079 -0.4007 -0.2161
 6757TIP3    H141762   1.292   1.320   4.881  0.7306  0.6585 -0.7868
 6757TIP3    H241763   1.150   1.371   4.865 -0.0786 -1.2140  0.1307
 6758TIP3   OH241764   4.021   3.854  13.173 -0.3774 -0.5116  0.1618
 6758TIP3    H141765   4.032   3.759  13.182 -1.2931 -0.5558  1.0766
 6758TIP3    H241766   3.933   3.864  13.137 -0.7999  0.0033  1.2817
 6759TIP3   OH241767   2.149   3.672   4.563 -0.0908 -0.0062  0.2257
 6759TIP3    H141768   2.177   3.634   4.480 -0.2741  0.7534 -0.1948
 6759TIP3    H241769   2.157   3.601   4.626 -1.5673 -1.1263 -0.7643
 6760TIP3   OH241770   3.604   0.551  16.250  0.1289  0.5134 -0.0804
 6760TIP3    H141771   3.572   0.630  16.205 -1.8383 -0.0956  0.1435
 6760TIP3    H241772   3.659   0.584  16.321  2.9414  1.5315 -2.5152
 6761TIP3   OH241773   1.752   0.664  17.076 -0.4000  0.1476  0.8292
 6761TIP3    H141774   1.750   0.752  17.040  0.5406 -0.4313 -0.7351
 6761TIP3    H241775   1.802   0.672  17.158  1.0595  0.8035 -0.0929
 6762TIP3   OH241776   0.889   1.053  13.491 -0.3805  0.1020  0.2157
 6762TIP3    H141777   0.829   1.073  13.419 -1.6088 -0.3659  1.0594
 6762TIP3    H241778   0.831   1.030  13.564  0.8486 -0.4580  1.0489
 6763TIP3   OH241779   2.228   0.074   0.714 -0.0239 -0.2827  0.0809
 6763TIP3    H141780   2.275   0.039   0.638 -1.5596 -1.2813 -0.4822
 6763TIP3    H241781   2.254   0.017   0.786  0.4692 -0.1332  0.0246
 6764TIP3   OH241782   4.031   1.517  11.760  0.4933 -0.1262  0.6328
 6764TIP3    H141783   3.970   1.549  11.826  1.3504 -0.2932  1.5251
 6764TIP3    H241784   4.109   1.571  11.771  1.3647 -1.4154  1.0833
 6765TIP3   OH241785   4.601   2.396  16.132 -0.2160 -0.5560  0.2529
 6765TIP3    H141786   4.607   2.330  16.201  3.5817  0.1525  0.8463
 6765TIP3    H241787   4.518   2.441  16.149 -2.1389 -3.9654  0.8335
 6766TIP3   OH241788   1.407   6.378   2.138  0.4754 -0.1543  0.1005
 6766TIP3    H141789   1.421   6.349   2.048 -0.1694  1.3598 -0.5129
 6766TIP3    H241790   1.451   6.463   2.143  3.4326 -1.6345  2.2129
 6767TIP3   OH241791   3.984   1.957  11.696  0.3736  0.3069 -0.1439
 6767TIP3    H141792   3.936   1.950  11.613 -2.3620  1.1879  1.2109
 6767TIP3    H241793   4.073   1.929  11.675 -0.1918  0.4577 -3.3453
 6768TIP3   OH241794   4.220   2.165   2.575 -0.0191  0.3697 -0.1354
 6768TIP3    H141795   4.163   2.181   2.649 -0.1060 -0.6365  0.0351
 6768TIP3    H241796   4.277   2.242   2.570 -2.0319  1.8819 -0.9526
 6769TIP3   OH241797   3.129   0.917   3.796 -0.2151  0.3199 -0.1022
 6769TIP3    H141798   3.085   0.973   3.860 -0.2352  0.6896 -0.4345
 6769TIP3    H241799   3.127   0.830   3.835 -0.3692  0.5120  0.3281
 6770TIP3   OH241800   3.343   1.900   3.666  0.0003  0.3532 -0.0789
 6770TIP3    H141801   3.367   1.968   3.603  0.6562  0.3066  0.1120
 6770TIP3    H241802   3.413   1.836   3.659  0.2035  0.4655  0.8720
 6771TIP3   OH241803   2.607   3.336  11.728  0.2105 -0.5060 -0.1904
 6771TIP3    H141804   2.604   3.426  11.694  0.2520 -0.6109 -0.4752
 6771TIP3    H241805   2.518   3.320  11.759  0.1036 -0.5025 -0.4959
 6772TIP3   OH241806   0.338   6.429   3.111  0.3793 -0.0281 -0.1988
 6772TIP3    H141807   0.325   6.335   3.126  1.0276 -0.1003 -0.0597
 6772TIP3    H241808   0.294   6.471   3.184 -0.4650 -0.1968 -0.6025
 6773TIP3   OH241809   4.742   5.548   3.338  0.1459  0.1618  0.9036
 6773TIP3    H141810   4.652   5.524   3.362  0.4373  1.1598  3.2293
 6773TIP3    H241811   4.797   5.493   3.393  0.8993  1.2017  1.2278
 6774TIP3   OH241812   3.348   3.663  13.377 -0.1371  0.1110  0.1627
 6774TIP3    H141813   3.388   3.580  13.400  0.5341  0.7229  1.3122
 6774TIP3    H241814   3.276   3.674  13.439 -0.0252  0.5283  0.2231
 6775TIP3   OH241815   2.376   3.234  13.632 -0.5307  0.4410  0.3332
 6775TIP3    H141816   2.362   3.292  13.708 -1.5811 -1.3765  1.6042
 6775TIP3    H241817   2.350   3.287  13.557  0.5229  2.3012  1.2074
 6776TIP3   OH241818   3.717   3.178   3.902 -0.0875 -0.0373  0.4498
 6776TIP3    H141819   3.731   3.141   3.989  0.3430  0.0669  0.4282
 6776TIP3    H241820   3.792   3.235   3.888  0.2152 -0.5940 -0.2800
 6777TIP3   OH241821   5.113   5.239   1.012 -0.4753  0.4039  0.3218
 6777TIP3    H141822   5.071   5.154   1.006  0.1292  0.0985  0.2957
 6777TIP3    H241823   5.133   5.262   0.921  0.7747 -0.1655  0.4251
 6778TIP3   OH241824   5.203   3.362   0.478  0.2593  0.5444 -0.4084
 6778TIP3    H141825   5.195   3.404   0.392 -2.3348 -0.4602 -0.7659
 6778TIP3    H241826   5.221   3.433   0.538 -0.1593  1.6183 -1.5036
 6779TIP3   OH241827   4.329   6.035  15.896 -0.9058  0.8506 -0.1497
 6779TIP3    H141828   4.356   5.955  15.942 -1.1423  0.8487 -0.0108
 6779TIP3    H241829   4.369   6.106  15.947 -0.8358  0.8296 -0.1747
 6780TIP3   OH241830   6.228   6.406  15.968 -0.0930 -0.4020  0.0574
 6780TIP3    H141831   6.162   6.344  15.999  0.1403  0.0847  1.6391
 6780TIP3    H241832   6.283   6.422  16.044  1.6178 -0.4625 -1.1157
 6781TIP3   OH241833   4.916   5.098   4.583  0.5161 -0.0596 -0.0411
 6781TIP3    H141834   4.901   5.021   4.528 -1.1761 -0.5371  1.0058
 6781TIP3    H241835   4.905   5.172   4.524  1.6906 -0.5962 -0.9616
 6782TIP3   OH241836   6.065   0.695  15.951  0.5663 -0.2879 -0.0031
 6782TIP3    H141837   5.989   0.741  15.988  0.3188 -1.4043  0.9347
 6782TIP3    H241838   6.058   0.606  15.986  0.5688 -1.2999 -2.4383
 6783TIP3   OH241839   2.246   5.027  11.223 -0.8563  0.4452  0.3061
 6783TIP3    H141840   2.341   5.032  11.227 -0.8736  0.2706  2.4672
 6783TIP3    H241841   2.227   4.988  11.138  1.2128 -2.8892  1.1814
 6784TIP3   OH241842   3.645   6.096  12.434 -0.1749  0.1968  0.1240
 6784TIP3    H141843   3.721   6.108  12.377  0.1702 -0.9857  0.2957
 6784TIP3    H241844   3.589   6.035  12.386 -0.7417  0.6021  0.2601
 6785TIP3   OH241845   3.541   4.234   3.902 -0.2270  0.4223  0.2382
 6785TIP3    H141846   3.557   4.144   3.875  0.1051  0.7069 -0.5430
 6785TIP3    H241847   3.498   4.227   3.987  0.8422 -0.4506  0.7237
 6786TIP3   OH241848   1.765   0.847  15.713  0.3829  0.1366  0.4153
 6786TIP3    H141849   1.751   0.908  15.641 -0.8231 -1.0318 -0.3722
 6786TIP3    H241850   1.827   0.783  15.678  0.3275 -0.0539  0.6633
 6787TIP3   OH241851   1.815   5.268   4.683  0.0644  0.2692 -0.1244
 6787TIP3    H141852   1.820   5.289   4.590  2.3662 -0.5261 -0.2435
 6787TIP3    H241853   1.904   5.242   4.707 -0.9045 -1.5594  1.8310
 6788TIP3   OH241854   6.749   4.923   5.328 -0.0793  0.4897  0.1543
 6788TIP3    H141855   6.729   4.830   5.341 -0.2780  0.3877 -0.8399
 6788TIP3    H241856   6.723   4.964   5.410  0.2932 -0.3750  0.7234
 6789TIP3   OH241857   3.647   1.226   1.224 -0.5939 -0.1711  0.0603
 6789TIP3    H141858   3.684   1.153   1.175 -0.3482  1.0878 -1.7153
 6789TIP3    H241859   3.707   1.238   1.298  1.1465  0.1938 -1.3455
 6790TIP3   OH241860   3.963   6.079  14.745  0.6283 -0.4011 -0.3826
 6790TIP3    H141861   4.049   6.117  14.760  1.0368 -0.4535 -2.3404
 6790TIP3    H241862   3.903   6.133  14.797  1.5340  1.2019 -0.9518
 6791TIP3   OH241863   0.532   0.393   5.487  0.0417 -0.3026  0.0471
 6791TIP3    H141864   0.463   0.377   5.422 -1.5112 -0.0354  1.5468
 6791TIP3    H241865   0.581   0.311   5.491  0.0353 -0.3904 -1.2930
 6792TIP3   OH241866   6.278   0.717  12.349 -0.1819  0.3754  0.3750
 6792TIP3    H141867   6.328   0.639  12.325  0.2293  0.2750  1.5109
 6792TIP3    H241868   6.276   0.769  12.269  0.7486 -0.1592 -0.0201
 6793TIP3   OH241869   0.347   3.352   4.780  0.8189 -0.2377  0.2344
 6793TIP3    H141870   0.333   3.369   4.687  1.1743  1.1304  0.4102
 6793TIP3    H241871   0.259   3.343   4.816  0.6816 -0.9830 -0.2480
 6794TIP3   OH241872   4.899   4.370  16.537  0.0896  0.5867  0.2322
 6794TIP3    H141873   4.926   4.401  16.624  2.1449 -0.5201  0.0467
 6794TIP3    H241874   4.954   4.418  16.476  1.1262 -1.0776 -0.2175
 6795TIP3   OH241875   2.880   3.388  16.636 -0.6532  0.5527 -0.0364
 6795TIP3    H141876   2.945   3.455  16.660  0.9428 -0.8242 -0.3727
 6795TIP3    H241877   2.916   3.346  16.558 -0.0583 -2.6787  1.8128
 6796TIP3   OH241878   2.668   4.232   0.648 -0.2752  0.2303 -0.5979
 6796TIP3    H141879   2.638   4.177   0.575 -0.8991  2.4503 -2.1130
 6796TIP3    H241880   2.633   4.188   0.726  1.1698 -2.7054 -1.4705
 6797TIP3   OH241881   3.006   3.380   2.363 -0.3714  0.7667  0.6131
 6797TIP3    H141882   2.972   3.291   2.370 -0.8086  1.0061  1.7054
 6797TIP3    H241883   3.101   3.369   2.361 -0.4373  0.1373 -1.7300
 6798TIP3   OH241884   1.419   3.801  17.256  0.2500  0.2122  0.4391
 6798TIP3    H141885   1.484   3.742  17.219 -0.4717 -0.9128  0.9018
 6798TIP3    H241886   1.339   3.750  17.258 -0.5187  1.3805  0.4257
 6799TIP3   OH241887   2.761   5.362  13.785 -0.2495 -0.4709 -0.1469
 6799TIP3    H141888   2.697   5.432  13.798  0.1966 -0.0909  0.0125
 6799TIP3    H241889   2.791   5.372  13.695  0.4352  0.0730  0.1323
 6800TIP3   OH241890   2.633   1.882   5.139 -0.1612 -0.4121 -0.1878
 6800TIP3    H141891   2.643   1.928   5.055 -2.3206 -1.1467 -0.9050
 6800TIP3    H241892   2.711   1.827   5.146 -0.0725 -0.5388 -1.8491
 6801TIP3   OH241893   6.753   5.298   5.039 -0.4492  0.4472 -0.0519
 6801TIP3    H141894   6.676   5.266   4.992 -0.0127  0.5492 -0.8682
 6801TIP3    H241895   6.741   5.393   5.041  0.5586  0.6548 -1.8941
 6802TIP3   OH241896   0.226   0.310   1.463 -0.3724 -0.1749 -0.1082
 6802TIP3    H141897   0.205   0.403   1.454 -3.2577 -0.6047  1.0829
 6802TIP3    H241898   0.190   0.269   1.385 -1.7988 -0.6018  0.7317
 6803TIP3   OH241899   2.190   4.444   0.050 -0.5667 -0.0021  0.0344
 6803TIP3    H141900   2.182   4.475  -0.040  2.1270  0.4838 -0.1221
 6803TIP3    H241901   2.284   4.447   0.068 -0.8265 -2.0111  2.1995
 6804TIP3   OH241902   5.723   6.001   3.006  0.3122  0.2510 -0.1621
 6804TIP3    H141903   5.744   6.054   2.929  0.0547  0.2448 -0.2370
 6804TIP3    H241904   5.758   6.052   3.080 -0.3674  0.7660 -0.1879
 6805TIP3   OH241905   6.027   2.135   4.053 -0.0553  0.4352  0.2966
 6805TIP3    H141906   5.997   2.104   3.968  0.1580 -1.0281  0.7201
 6805TIP3    H241907   6.014   2.230   4.050 -1.2280  0.2723 -0.8915
 6806TIP3   OH241908   3.736   5.730   1.072 -0.4114 -0.1230 -0.5473
 6806TIP3    H141909   3.789   5.700   1.147  0.5677  1.9753 -0.3159
 6806TIP3    H241910   3.783   5.697   0.996  0.7267  0.8299 -0.3059
 6807TIP3   OH241911   1.481   3.636   5.643 -0.6748  0.0461  0.1774
 6807TIP3    H141912   1.503   3.543   5.635  0.9574  0.2774  1.3440
 6807TIP3    H241913   1.489   3.670   5.554 -0.2176 -0.7273 -0.0935
 6808TIP3   OH241914   5.673   1.509   3.818  0.3845  0.1222 -0.4551
 6808TIP3    H141915   5.748   1.531   3.762  0.7830 -0.4217 -0.1426
 6808TIP3    H241916   5.692   1.554   3.901  0.4698 -0.1937 -0.3047
 6809TIP3   OH241917   1.286   1.194  16.691 -0.2938  0.3268  0.6308
 6809TIP3    H141918   1.366   1.201  16.638 -0.7156 -0.0740 -0.0771
 6809TIP3    H241919   1.318   1.189  16.781  0.4781  0.2171  0.3646
 6810TIP3   OH241920   1.760   1.578  15.473  0.4086  0.3188 -0.2637
 6810TIP3    H141921   1.787   1.575  15.564  1.0613 -1.2102 -0.4927
 6810TIP3    H241922   1.667   1.553  15.474  0.0103  1.6997  0.0960
 6811TIP3   OH241923   2.507   4.536   2.018 -0.6928  0.0571  0.5941
 6811TIP3    H141924   2.593   4.575   2.001 -1.0598  0.5592 -0.1311
 6811TIP3    H241925   2.485   4.490   1.937 -0.6517 -0.9676  1.1388
 6812TIP3   OH241926   2.512   3.409   4.732 -0.3160 -0.2064 -0.4922
 6812TIP3    H141927   2.537   3.440   4.820 -0.9899 -3.1656  0.8449
 6812TIP3    H241928   2.557   3.325   4.722 -1.2240 -0.5096 -2.5193
 6813TIP3   OH241929   0.117   5.790  12.437 -0.0120 -0.1646 -0.1116
 6813TIP3    H141930   0.060   5.865  12.427 -1.6589 -1.4911 -1.1457
 6813TIP3    H241931   0.189   5.806  12.376  0.1462  0.9762  0.3518
 6814TIP3   OH241932   0.832   1.389  16.368 -0.4508 -0.7694 -0.1171
 6814TIP3    H141933   0.809   1.383  16.275 -0.5376  0.8140 -0.2334
 6814TIP3    H241934   0.758   1.350  16.413 -1.1800 -0.0661 -0.6713
 6815TIP3   OH241935   2.086   0.794  12.134 -0.1722  0.0477 -0.0924
 6815TIP3    H141936   2.071   0.752  12.219  0.3337 -0.2842 -0.1576
 6815TIP3    H241937   2.178   0.821  12.137 -0.5382  1.3221  0.0108
 6816TIP3   OH241938   5.893   1.594  12.256 -0.3925  0.1129  0.0186
 6816TIP3    H141939   5.891   1.577  12.162 -0.0506 -0.0854  0.0461
 6816TIP3    H241940   5.821   1.541  12.292 -0.4597  0.1131 -0.1148
 6817TIP3   OH241941   2.487   6.558   3.264 -0.0873 -0.4981  0.2082
 6817TIP3    H141942   2.426   6.631   3.271 -0.3803 -0.5928 -1.0879
 6817TIP3    H241943   2.561   6.593   3.214 -0.7979 -1.3907 -1.5537
 6818TIP3   OH241944   1.277   5.095  16.262 -0.1708  0.1429  0.0899
 6818TIP3    H141945   1.231   5.033  16.204  2.6670 -1.2795 -0.8173
 6818TIP3    H241946   1.341   5.041  16.308  0.8908  2.0638  0.9627
 6819TIP3   OH241947   1.102   1.927  14.963 -0.1134  0.2778 -0.2267
 6819TIP3    H141948   1.125   1.963  14.878 -2.9182 -1.1309 -1.6965
 6819TIP3    H241949   1.071   2.003  15.013  2.2521  1.2465 -0.0709
 6820TIP3   OH241950   0.410   3.068   1.497  0.4086 -0.1329  0.4992
 6820TIP3    H141951   0.355   3.108   1.430  1.5452 -0.1130 -0.4537
 6820TIP3    H241952   0.481   3.131   1.510  1.2544 -1.0160  0.2838
 6821TIP3   OH241953   4.860   0.061  14.050 -0.2573  0.2614  0.2906
 6821TIP3    H141954   4.778   0.091  14.012  0.2230 -0.3869 -1.3261
 6821TIP3    H241955   4.878   0.124  14.120 -1.9172  0.6331  0.4384
 6822TIP3   OH241956   4.275   0.124   1.129  0.5056 -0.4106 -0.4425
 6822TIP3    H141957   4.179   0.117   1.123  0.0462  2.8579  0.9183
 6822TIP3    H241958   4.293   0.129   1.223  1.9697 -0.4356 -0.6976
 6823TIP3   OH241959   1.433   1.984   1.804  0.5348 -0.4639 -0.4933
 6823TIP3    H141960   1.514   1.952   1.764 -0.3169  0.3973 -3.1199
 6823TIP3    H241961   1.387   1.904   1.829  1.4792 -1.0248 -0.4735
 6824TIP3   OH241962   3.424   6.437   5.492  0.1546 -0.1102 -0.3525
 6824TIP3    H141963   3.339   6.396   5.504  0.9565 -1.8974 -0.4416
 6824TIP3    H241964   3.452   6.409   5.404  1.7704 -1.4552  0.5211
 6825TIP3   OH241965   2.558   1.634  14.659 -0.0988 -0.3838 -0.2519
 6825TIP3    H141966   2.610   1.565  14.701 -1.6337  0.3781  3.2427
 6825TIP3    H241967   2.485   1.588  14.618  0.7268 -1.0496 -1.0321
 6826TIP3   OH241968   0.666   0.270   2.788  0.0829  0.3721  0.7394
 6826TIP3    H141969   0.660   0.307   2.700 -0.2049 -0.2027  0.5129
 6826TIP3    H241970   0.579   0.284   2.826 -0.2492 -0.6911  0.3972
 6827TIP3   OH241971   1.339   1.398   3.418 -0.7869  0.2986 -0.3554
 6827TIP3    H141972   1.271   1.462   3.442 -1.6739 -0.5172 -0.6301
 6827TIP3    H241973   1.401   1.400   3.491 -2.5834 -0.9664  1.3055
 6828TIP3   OH241974   0.308   5.911  16.090  0.2176  0.3449  0.3428
 6828TIP3    H141975   0.230   5.864  16.060  1.6220 -0.7434 -1.9101
 6828TIP3    H241976   0.370   5.842  16.111  2.0694  1.0558 -2.2656
 6829TIP3   OH241977   6.292   0.906  12.573  0.2998 -0.7100  0.2955
 6829TIP3    H141978   6.321   0.840  12.510  0.0835  0.2007 -0.7812
 6829TIP3    H241979   6.208   0.937  12.539 -0.0429 -0.5175  1.2809
 6830TIP3   OH241980   0.441   5.860   3.701 -0.4660  0.2839  0.0254
 6830TIP3    H141981   0.492   5.934   3.733 -1.3582  0.9199  0.0167
 6830TIP3    H241982   0.505   5.790   3.689  0.6422  1.4843 -1.3732
 6831TIP3   OH241983   1.760   2.313   3.493  0.5037  0.2390  0.1081
 6831TIP3    H141984   1.752   2.244   3.558  0.4930  0.9977  0.9283
 6831TIP3    H241985   1.823   2.375   3.531 -0.5985  1.4195  0.0547
 6832TIP3   OH241986   0.508   1.493   2.746  0.1896  0.6199  0.0682
 6832TIP3    H141987   0.520   1.555   2.674 -1.1590  0.7784 -0.0542
 6832TIP3    H241988   0.475   1.414   2.704 -1.8291  1.1240  0.6004
 6833TIP3   OH241989   0.502   3.364   3.986  0.1820  0.3416 -0.3115
 6833TIP3    H141990   0.571   3.300   4.005 -0.0167 -0.5344 -2.3003
 6833TIP3    H241991   0.549   3.447   3.979  0.6138  0.2450  1.1030
 6834TIP3   OH241992   4.960   4.820  11.425  0.0060  0.3168 -0.2885
 6834TIP3    H141993   4.909   4.750  11.385 -3.1075  1.1965  1.8059
 6834TIP3    H241994   4.928   4.900  11.383  1.6566  0.7261 -0.8276
 6835TIP3   OH241995   0.965   4.692  11.637 -0.0390  0.0965  0.0569
 6835TIP3    H141996   0.950   4.786  11.650  0.3541  0.1067  0.4526
 6835TIP3    H241997   0.991   4.660  11.723  1.2947 -0.0926 -0.3906
 6836TIP3   OH241998   1.040   3.797   1.151  0.5240 -0.7435 -0.0669
 6836TIP3    H141999   1.066   3.889   1.157  2.4293 -0.9347 -3.2980
 6836TIP3    H242000   0.948   3.800   1.124  0.8723  0.2633 -1.2267
 6837TIP3   OH242001   4.282   2.682   2.030 -0.2239 -0.5154 -0.6577
 6837TIP3    H142002   4.343   2.608   2.020  0.5220  0.1025 -0.7653
 6837TIP3    H242003   4.327   2.756   1.989 -0.5065  0.2358  0.3555
 6838TIP3   OH242004   6.611   1.764  16.321 -0.1011 -0.0480 -0.3239
 6838TIP3    H142005   6.698   1.793  16.347  0.7249 -3.6600  1.4818
 6838TIP3    H242006   6.552   1.826  16.364  1.5019 -0.1239  2.1710
 6839TIP3   OH242007   5.735   4.396  14.307  0.1591 -0.1899 -0.1451
 6839TIP3    H142008   5.768   4.311  14.278 -0.7126 -1.1042  1.4204
 6839TIP3    H242009   5.723   4.445  14.226  0.2287 -1.7256 -1.1350
 6840TIP3   OH242010   4.072   3.545   4.028  0.0276  0.6371 -0.0370
 6840TIP3    H142011   4.090   3.478   4.095  1.8691  0.0055 -1.0928
 6840TIP3    H242012   4.016   3.501   3.964 -0.2649  0.6828  0.1862
 6841TIP3   OH242013   5.268   6.549   5.577 -0.3480 -0.2132  0.1835
 6841TIP3    H142014   5.221   6.584   5.502 -0.3616  0.0258  0.3021
 6841TIP3    H242015   5.211   6.566   5.652 -0.1159 -0.0044  0.3145
 6842TIP3   OH242016   4.914   0.641   6.200  0.6973 -0.0951  0.3091
 6842TIP3    H142017   4.923   0.600   6.286 -0.0321 -1.7580 -0.3876
 6842TIP3    H242018   4.831   0.688   6.204  0.5513 -0.3636  0.4408
 6843TIP3   OH242019   5.986   0.455  13.545 -0.0259  0.1298  0.0206
 6843TIP3    H142020   5.957   0.388  13.484 -1.7121 -0.2504  1.1546
 6843TIP3    H242021   5.937   0.534  13.520  1.1247  0.6479 -0.6309
 6844TIP3   OH242022   3.605   3.352   3.637  0.3191 -0.2027  0.5611
 6844TIP3    H142023   3.642   3.264   3.645  1.7139  0.1131 -1.4759
 6844TIP3    H242024   3.533   3.342   3.574  1.7841  0.3571 -1.3184
 6845TIP3   OH242025   6.501   2.942   2.479 -0.3927 -0.4155 -0.6934
 6845TIP3    H142026   6.430   2.970   2.421 -1.6254  0.3033  1.0481
 6845TIP3    H242027   6.528   3.023   2.523  1.1827 -0.7744 -0.9393
 6846TIP3   OH242028   2.446   1.933   2.017 -0.5096 -0.0581 -0.3877
 6846TIP3    H142029   2.385   1.877   1.970 -0.2080 -1.2190  0.5663
 6846TIP3    H242030   2.419   2.022   1.995 -1.4943 -0.5687 -1.2964
 6847TIP3   OH242031   0.748   0.855   3.096  0.9917 -0.3467  0.4897
 6847TIP3    H142032   0.698   0.783   3.133  0.9036 -0.6172 -0.1471
 6847TIP3    H242033   0.683   0.922   3.076  0.6971 -1.1764 -1.4802
 6848TIP3   OH242034   4.305   5.395  12.036 -0.0928 -0.0286  0.2520
 6848TIP3    H142035   4.356   5.338  11.978  2.0295  2.5070 -0.6028
 6848TIP3    H242036   4.366   5.417  12.106 -1.1756  0.4831  1.0561
 6849TIP3   OH242037   3.825   1.323   1.015  0.1727  0.0921 -0.0112
 6849TIP3    H142038   3.867   1.245   1.052 -0.0965 -0.4714 -0.8596
 6849TIP3    H242039   3.774   1.359   1.087  1.2127  0.1464  0.7144
 6850TIP3   OH242040   5.289   5.930   5.796 -0.3176  0.5723 -0.4075
 6850TIP3    H142041   5.305   5.841   5.765 -0.7768  0.6622 -0.9308
 6850TIP3    H242042   5.348   5.941   5.870 -0.8812 -0.4754  0.2322
 6851TIP3   OH242043   4.574   1.082   6.140 -0.2035 -0.7125  0.3077
 6851TIP3    H142044   4.655   1.097   6.092 -0.3169  0.8261  0.5646
 6851TIP3    H242045   4.506   1.126   6.089 -0.7886 -1.4275  0.4388
 6852TIP3   OH242046   4.742   4.351  16.079  0.2054  0.3802  0.2069
 6852TIP3    H142047   4.674   4.418  16.070  0.5426  0.5787 -1.1202
 6852TIP3    H242048   4.695   4.268  16.079 -0.0479  0.5008 -1.0590
 6853TIP3   OH242049   3.711   5.676  14.804  0.2698  0.3891  0.5811
 6853TIP3    H142050   3.653   5.729  14.749  0.1996 -0.7701 -0.5257
 6853TIP3    H242051   3.791   5.727  14.812 -0.1647  1.1052  0.3953
 6854TIP3   OH242052   2.840   5.748   6.183  0.3129 -0.0671 -0.0974
 6854TIP3    H142053   2.805   5.802   6.254 -0.6030 -0.5725 -0.1405
 6854TIP3    H242054   2.913   5.701   6.222  0.2148  0.1359  0.3410
 6855TIP3   OH242055   4.889   6.600  15.360 -0.3536  0.1119  0.3412
 6855TIP3    H142056   4.844   6.679  15.330 -1.1335 -0.6055 -0.4285
 6855TIP3    H242057   4.827   6.529  15.343  0.6535 -0.7726  0.2620
 6856TIP3   OH242058   2.708   4.188   5.189  0.0721 -0.0994  0.3476
 6856TIP3    H142059   2.703   4.093   5.173 -1.4619  0.0402 -0.1838
 6856TIP3    H242060   2.627   4.208   5.236  0.0440  1.0573 -0.1726
 6857TIP3   OH242061   1.039   2.754  15.262  0.0565  0.0693 -0.6341
 6857TIP3    H142062   0.989   2.677  15.233  0.6485 -1.3965  1.9230
 6857TIP3    H242063   0.973   2.822  15.275 -1.3677 -1.6459  2.1059
 6858TIP3   OH242064   0.059   6.477  13.353 -0.0845 -0.1660  0.1921
 6858TIP3    H142065  -0.004   6.461  13.423 -0.5784  0.9561  0.0167
 6858TIP3    H242066   0.094   6.390  13.332 -1.5597 -0.8028  0.2931
 6859TIP3   OH242067   4.624   4.103  14.919  0.2508  0.7094  0.0194
 6859TIP3    H142068   4.596   4.188  14.953 -0.5877  0.6120 -0.4022
 6859TIP3    H242069   4.718   4.099  14.938  0.4472  2.0311 -0.6024
 6860TIP3   OH242070   2.986   0.010   2.677 -0.0697 -0.3537  0.3540
 6860TIP3    H142071   2.933   0.085   2.649  1.2227  0.6510  0.5004
 6860TIP3    H242072   3.075   0.033   2.651  0.3845 -1.7844  0.5500
 6861TIP3   OH242073   6.783   2.070  12.900 -0.5242  0.2125  0.3223
 6861TIP3    H142074   6.704   2.109  12.863 -1.3466 -0.0624  1.7278
 6861TIP3    H242075   6.825   2.141  12.948  1.0040  0.8036 -1.7099
 6862TIP3   OH242076   2.134   0.638   0.842  0.4636  0.2595 -0.1289
 6862TIP3    H142077   2.213   0.686   0.865  0.0107  0.3382  1.4131
 6862TIP3    H242078   2.155   0.547   0.861 -0.0210  0.3621  1.0166
 6863TIP3   OH242079   5.333   3.364  15.858 -0.2217 -0.3268 -0.0602
 6863TIP3    H142080   5.415   3.382  15.812 -0.4501 -1.9077 -1.2027
 6863TIP3    H242081   5.360   3.340  15.947  0.6452 -1.3963 -0.5781
 6864TIP3   OH242082   6.015   0.256   1.930  0.1540  0.4990  0.1775
 6864TIP3    H142083   6.009   0.168   1.893  1.2835  1.0369 -1.4004
 6864TIP3    H242084   5.947   0.306   1.885 -1.4112  0.1754  2.0481
 6865TIP3   OH242085   3.655   1.243  12.937  0.1530  0.1318 -0.2714
 6865TIP3    H142086   3.710   1.291  12.876  1.0225 -1.4980 -0.8391
 6865TIP3    H242087   3.713   1.177  12.976 -1.1072 -0.8999 -0.0365
 6866TIP3   OH242088   4.902   2.878   1.467  0.7956 -0.0588  0.8523
 6866TIP3    H142089   4.861   2.910   1.387  2.0445 -1.5007 -0.4389
 6866TIP3    H242090   4.871   2.937   1.536 -1.7206  0.1732 -0.3690
 6867TIP3   OH242091   5.800   4.179  12.553 -0.0420 -0.6195  0.1669
 6867TIP3    H142092   5.855   4.255  12.575 -0.0553  0.5552 -3.2131
 6867TIP3    H242093   5.862   4.108  12.537  0.3746 -0.0115 -1.0682
 6868TIP3   OH242094   0.007   4.142   2.859 -0.2529  0.5780  0.5465
 6868TIP3    H142095   0.043   4.070   2.806 -0.7708  1.4701 -1.0675
 6868TIP3    H242096  -0.064   4.177   2.806 -3.0193 -0.5513  3.2678
 6869TIP3   OH242097   1.201   3.445  15.703  0.1512 -0.1831  0.6041
 6869TIP3    H142098   1.129   3.426  15.764 -0.1872  2.4347  1.1652
 6869TIP3    H242099   1.158   3.460  15.619  0.3098 -0.9818  0.3782
 6870TIP3   OH242100   6.750   2.398  11.761  0.2319 -0.8445 -0.2342
 6870TIP3    H142101   6.702   2.421  11.840 -1.1389 -2.2018 -0.6216
 6870TIP3    H242102   6.716   2.458  11.694  0.8537 -0.1967  0.0151
 6871TIP3   OH242103   3.425   5.365  12.214  0.2133 -0.2206  0.0305
 6871TIP3    H142104   3.475   5.440  12.181 -0.2031 -0.2695 -0.7215
 6871TIP3    H242105   3.383   5.328  12.136  0.7500 -1.4939  0.3286
 6872TIP3   OH242106   1.769   1.226  15.585 -0.2454  0.1066  0.1804
 6872TIP3    H142107   1.806   1.310  15.557  0.3434 -0.5377 -1.0075
 6872TIP3    H242108   1.841   1.163  15.576 -1.0850 -0.8022 -0.3257
 6873TIP3   OH242109   5.387   1.385   5.058  0.1263 -0.1972  0.0747
 6873TIP3    H142110   5.454   1.354   5.119  0.2743  1.5184  0.8259
 6873TIP3    H242111   5.307   1.390   5.109  0.3994  1.9156  0.3820
 6874TIP3   OH242112   2.894   0.185  14.822 -0.4136 -0.1829 -0.3855
 6874TIP3    H142113   2.846   0.112  14.783  1.8671 -2.6670  1.1162
 6874TIP3    H242114   2.887   0.171  14.916 -0.9673  2.3539  0.0315
 6875TIP3   OH242115   1.203   2.951  15.048 -0.4088 -0.2232  0.0972
 6875TIP3    H142116   1.122   2.929  15.094 -2.3371  1.5886 -2.1629
 6875TIP3    H242117   1.187   2.925  14.957  1.3598  0.6213 -0.5102
 6876TIP3   OH242118   4.225   0.714   2.128  0.0525  0.0248  0.0548
 6876TIP3    H142119   4.305   0.722   2.077 -1.1196  1.3299 -1.6836
 6876TIP3    H242120   4.209   0.803   2.161  0.5751 -0.7066  2.4582
 6877TIP3   OH242121   4.549   1.918   1.816 -0.0153  0.6223 -0.2843
 6877TIP3    H142122   4.643   1.903   1.807 -0.2999 -1.8489  0.3826
 6877TIP3    H242123   4.521   1.947   1.729  1.4927  2.4626 -0.2096
 6878TIP3   OH242124   2.745   4.029  15.995  0.2375  0.3552  0.3483
 6878TIP3    H142125   2.669   4.046  16.050  0.6316 -1.1100  1.4023
 6878TIP3    H242126   2.713   3.968  15.928  0.7794 -1.5675  1.7438
 6879TIP3   OH242127   5.708   0.654  11.624 -0.1368 -0.1771  0.0966
 6879TIP3    H142128   5.680   0.564  11.608 -0.0334  0.0378 -1.4026
 6879TIP3    H242129   5.803   0.648  11.634 -0.0423 -0.1554 -0.7263
 6880TIP3   OH242130   4.067   1.253   1.940 -0.3336 -0.4166  0.0965
 6880TIP3    H142131   3.992   1.194   1.943 -0.9624  0.4131  1.0971
 6880TIP3    H242132   4.143   1.194   1.939 -0.9690 -1.2587 -0.4621
 6881TIP3   OH242133   3.353   6.122  17.188  0.6834 -0.0949  0.5372
 6881TIP3    H142134   3.349   6.031  17.217  0.5694 -0.7973 -1.4903
 6881TIP3    H242135   3.447   6.141  17.180  0.7728 -1.1863 -2.1180
 6882TIP3   OH242136   6.668   2.731  15.974  0.1596  0.5834  0.1695
 6882TIP3    H142137   6.755   2.727  15.935  0.3908  0.4284  0.6914
 6882TIP3    H242138   6.683   2.761  16.064 -0.2996  0.3505  0.3309
 6883TIP3   OH242139   6.094   0.548   1.498 -0.0603 -0.0977 -0.8714
 6883TIP3    H142140   6.058   0.565   1.585  1.0378 -0.6313 -0.2862
 6883TIP3    H242141   6.017   0.541   1.441 -0.8591 -0.7500  0.2384
 6884TIP3   OH242142   6.173   6.466   0.754 -0.6005 -0.0806  0.0177
 6884TIP3    H142143   6.235   6.535   0.779 -0.4574 -0.1175 -0.2391
 6884TIP3    H242144   6.227   6.391   0.733 -0.8042 -0.7739  1.7774
 6885TIP3   OH242145   1.657   0.713  12.763 -0.3057 -0.1390  0.0389
 6885TIP3    H142146   1.736   0.754  12.727 -0.7516  0.5393 -0.1764
 6885TIP3    H242147   1.602   0.695  12.687  0.4278 -2.3601 -0.0158
 6886TIP3   OH242148   3.247   1.095   4.668 -0.4421 -0.2709  0.2013
 6886TIP3    H142149   3.291   1.177   4.694 -2.5497  0.2871  2.3639
 6886TIP3    H242150   3.155   1.112   4.685 -1.3158 -2.0824 -2.3081
 6887TIP3   OH242151   4.065   3.451  17.218 -0.3989  0.1603  0.6379
 6887TIP3    H142152   4.065   3.394  17.296 -0.3377  0.2466  0.7020
 6887TIP3    H242153   4.121   3.524  17.243  0.1750 -0.1463  0.2640
 6888TIP3   OH242154   2.310   5.847  16.688 -0.5231  0.0292  0.2035
 6888TIP3    H142155   2.282   5.937  16.704  0.4844  0.1559  1.4056
 6888TIP3    H242156   2.335   5.845  16.595 -0.4372  1.0229  0.1950
 6889TIP3   OH242157   5.634   6.251  11.643 -0.2119 -0.6719 -0.5505
 6889TIP3    H142158   5.629   6.347  11.644  1.4580 -0.5430  0.7286
 6889TIP3    H242159   5.727   6.233  11.633 -0.0866 -2.0823  2.1532
 6890TIP3   OH242160   0.104   4.650  10.912  0.0063 -0.0418  0.0520
 6890TIP3    H142161   0.108   4.614  10.823  0.1959 -1.1274  0.4897
 6890TIP3    H242162   0.011   4.648  10.934 -0.0360  0.1870 -0.1030
 6891TIP3   OH242163   3.151   4.646  11.332 -0.8190 -0.2670  0.2931
 6891TIP3    H142164   3.136   4.582  11.402 -1.8165  0.1452  0.4733
 6891TIP3    H242165   3.102   4.724  11.360  1.0958  0.9171  0.5092
 6892TIP3   OH242166   1.756   4.191  15.622 -0.2993 -0.3221 -0.1850
 6892TIP3    H142167   1.791   4.279  15.635  1.2527 -1.1129  1.4213
 6892TIP3    H242168   1.833   4.133  15.627 -1.3902 -1.8430 -0.2065
 6893TIP3   OH242169   3.045   0.568  14.748 -0.1690  0.6279  0.3344
 6893TIP3    H142170   3.009   0.650  14.782  0.5835  1.1879 -0.1822
 6893TIP3    H242171   3.100   0.534  14.818 -2.5429 -0.8502  1.6066
 6894TIP3   OH242172   2.370   4.179  14.776 -0.1507 -0.2493  0.5364
 6894TIP3    H142173   2.451   4.147  14.816  0.5477  1.5838  0.7269
 6894TIP3    H242174   2.323   4.223  14.847  0.5251  1.9725 -0.2777
 6895TIP3   OH242175   3.423   0.305  11.461 -0.6436  0.2846 -0.3093
 6895TIP3    H142176   3.464   0.259  11.387  0.4347 -0.2823  0.6086
 6895TIP3    H242177   3.488   0.370  11.487 -1.2817  0.9000 -0.2444
 6896TIP3   OH242178   1.933   6.810   0.611  0.2231  0.2212  0.3931
 6896TIP3    H142179   2.020   6.840   0.636 -0.0813  0.5091  1.1470
 6896TIP3    H242180   1.876   6.886   0.627 -0.5455 -0.6642  2.2574
 6897TIP3   OH242181   5.998   1.593   0.690  0.3843 -0.2495 -0.1433
 6897TIP3    H142182   6.018   1.612   0.781  0.7666 -1.6218  0.0733
 6897TIP3    H242183   6.043   1.511   0.671 -1.0008 -0.8404 -1.0941
 6898TIP3   OH242184   5.470   4.931  12.007  0.1076  0.5407  0.7347
 6898TIP3    H142185   5.393   4.953  12.060 -0.0739 -0.6192  0.9807
 6898TIP3    H242186   5.511   5.015  11.988 -0.7503  1.1066  1.3182
 6899TIP3   OH242187   2.160   3.590  13.698  0.4427  0.2579  0.1693
 6899TIP3    H142188   2.212   3.625  13.626 -0.6853  1.0485 -0.2874
 6899TIP3    H242189   2.114   3.515  13.661  0.6240  0.0627  0.3395
 6900TIP3   OH242190   5.144   3.194   1.058  0.0675  0.0976 -0.7207
 6900TIP3    H142191   5.213   3.251   1.093 -0.8673  0.7066  0.1940
 6900TIP3    H242192   5.169   3.106   1.083  0.7557  0.2642 -0.8195
 6901TIP3   OH242193   6.454   5.652  16.887  0.0985 -0.1388  0.0185
 6901TIP3    H142194   6.496   5.702  16.817  1.1292 -2.2504 -0.9631
 6901TIP3    H242195   6.400   5.587  16.842 -0.3312 -0.6507  1.2115
 6902TIP3   OH242196   2.595   1.779   0.498 -0.8553 -0.3116  0.1058
 6902TIP3    H142197   2.595   1.813   0.587  0.8399 -0.1011  0.0607
 6902TIP3    H242198   2.539   1.840   0.449 -0.6931  0.3723  0.7546
 6903TIP3   OH242199   4.201   5.594   3.360  0.5381 -0.2967 -0.1516
 6903TIP3    H142200   4.256   5.533   3.310  0.1592 -2.2397  1.6575
 6903TIP3    H242201   4.114   5.556   3.355  0.2136  0.3185  0.6790
 6904TIP3   OH242202   5.512   5.027  11.491  0.3127  0.4958 -0.6716
 6904TIP3    H142203   5.448   4.966  11.453  2.2273 -1.2938 -1.2259
 6904TIP3    H242204   5.549   5.073  11.417  0.5873  0.5728 -0.4879
 6905TIP3   OH242205   4.558   4.603   6.532  0.0921  0.5987 -0.1125
 6905TIP3    H142206   4.538   4.525   6.479 -1.2229  0.7669  0.1059
 6905TIP3    H242207   4.648   4.624   6.510 -0.3259  0.4979 -2.0933
 6906TIP3   OH242208   4.583   1.312  11.350  0.5397  0.0481 -0.1685
 6906TIP3    H142209   4.622   1.312  11.438  0.1282 -0.2572  0.0194
 6906TIP3    H242210   4.490   1.328  11.365  0.5264  0.3693 -0.5808
 6907TIP3   OH242211   1.401   5.382   4.739  0.5038 -0.4642  0.4499
 6907TIP3    H142212   1.316   5.372   4.781  0.5239 -0.4095  0.5026
 6907TIP3    H242213   1.455   5.426   4.804  0.2517  0.5296  0.0040
 6908TIP3   OH242214   5.807   4.554  16.545 -0.0584  0.7438  0.0805
 6908TIP3    H142215   5.879   4.617  16.547  0.0928  0.5469  1.2957
 6908TIP3    H242216   5.778   4.547  16.636  0.5057 -1.5779  0.1515
 6909TIP3   OH242217   6.332   5.496  11.834  0.5124  0.0927 -0.0407
 6909TIP3    H142218   6.365   5.439  11.765  2.2427  1.6904 -0.6022
 6909TIP3    H242219   6.404   5.557  11.852 -0.8356  1.3654  1.3505
 6910TIP3   OH242220   0.232   4.852  16.401  0.0137  0.3293 -0.0464
 6910TIP3    H142221   0.154   4.799  16.385 -0.5160  1.0957 -0.0611
 6910TIP3    H242222   0.256   4.832  16.491  1.5226 -2.0876 -0.8837
 6911TIP3   OH242223   5.647   4.122   3.350 -0.0630  0.1431 -0.4229
 6911TIP3    H142224   5.552   4.123   3.347 -0.1534  0.1462  1.2378
 6911TIP3    H242225   5.670   4.029   3.355 -0.0849  0.1749  0.6091
 6912TIP3   OH242226   1.617   6.124   1.687  0.5269 -0.4543  0.5857
 6912TIP3    H142227   1.599   6.209   1.649  1.7529 -0.3747  0.1156
 6912TIP3    H242228   1.659   6.075   1.616  0.9089 -1.0342  1.1989
 6913TIP3   OH242229   0.545   5.014   1.262  0.1988 -0.0891 -0.3891
 6913TIP3    H142230   0.458   5.045   1.288  0.0552 -1.2736  0.6559
 6913TIP3    H242231   0.601   5.091   1.267 -0.9584  0.9217 -2.0142
 6914TIP3   OH242232   4.741   1.325  17.020 -0.0058  0.1181  0.1565
 6914TIP3    H142233   4.779   1.300  16.936 -0.6296 -0.7945  0.1269
 6914TIP3    H242234   4.647   1.309  17.009 -0.0757 -0.1742  1.0710
 6915TIP3   OH242235   4.843   2.686  15.735 -0.2842  0.0541  0.5729
 6915TIP3    H142236   4.889   2.759  15.776 -2.3779  0.7073  1.8768
 6915TIP3    H242237   4.906   2.614  15.737  1.7920  1.7149 -0.6454
 6916TIP3   OH242238   4.038   4.507  13.722 -0.6149 -0.1156  0.4894
 6916TIP3    H142239   4.069   4.441  13.659  0.0564  1.1604 -0.5748
 6916TIP3    H242240   4.115   4.525  13.776 -0.1876  1.1932 -0.5015
 6917TIP3   OH242241   2.891   3.909  14.512 -0.0705  0.2284 -0.4843
 6917TIP3    H142242   2.811   3.857  14.503 -1.5410  2.1364  0.8641
 6917TIP3    H242243   2.940   3.866  14.582  1.0373 -1.9698 -2.4448
 6918TIP3   OH242244   6.297   0.481   2.693  0.2200 -0.6547 -0.1464
 6918TIP3    H142245   6.341   0.434   2.622  0.6395 -2.6150  1.3223
 6918TIP3    H242246   6.358   0.474   2.767 -0.8701 -0.0093  0.8367
 6919TIP3   OH242247   0.282   6.573  12.416 -0.0929  0.3346 -0.1758
 6919TIP3    H142248   0.204   6.522  12.393 -0.0335  0.6891 -1.2172
 6919TIP3    H242249   0.355   6.513  12.401 -0.0127  0.7369 -1.5415
 6920TIP3   OH242250   2.909   5.998   5.010  0.1351 -0.0686  0.6224
 6920TIP3    H142251   2.994   6.018   4.972  0.5013 -0.0169  1.4531
 6920TIP3    H242252   2.908   6.045   5.093 -1.0885  0.7108  0.1959
 6921TIP3   OH242253   2.538   2.488  15.242 -0.1787 -0.1859 -0.5307
 6921TIP3    H142254   2.456   2.473  15.195  0.0063 -0.3440 -0.8078
 6921TIP3    H242255   2.526   2.571  15.287 -0.6581 -0.4220 -0.2099
 6922TIP3   OH242256   4.517   1.698   2.367  0.6594  0.0777  0.5095
 6922TIP3    H142257   4.553   1.773   2.319  2.1302 -0.9660 -0.0688
 6922TIP3    H242258   4.472   1.646   2.301  0.4241 -0.0308  0.7503
 6923TIP3   OH242259   1.665   3.826   0.844 -0.2744 -0.0479  0.0612
 6923TIP3    H142260   1.657   3.857   0.753  0.9605 -0.1354 -0.0884
 6923TIP3    H242261   1.577   3.836   0.880 -1.0884 -1.1306 -1.5055
 6924TIP3   OH242262   0.368   6.656  14.245 -0.5251  0.2472  0.4963
 6924TIP3    H142263   0.408   6.625  14.326  0.3204  1.3848  0.5467
 6924TIP3    H242264   0.419   6.614  14.175 -1.1084 -0.5536  0.5356
 6925TIP3   OH242265   1.846   1.186   3.151  0.1479 -0.0630 -0.1323
 6925TIP3    H142266   1.784   1.137   3.206  0.5029  0.8758  1.1411
 6925TIP3    H242267   1.932   1.167   3.189  0.3155  1.3120  0.2303
 6926TIP3   OH242268   0.401   4.404  15.702  0.3135 -0.1197  0.3077
 6926TIP3    H142269   0.372   4.441  15.785  2.0514  1.3049  0.3424
 6926TIP3    H242270   0.496   4.394  15.712  0.6892  0.8222 -1.7397
 6927TIP3   OH242271   0.498   2.125   2.693 -0.3994  0.4562  0.4686
 6927TIP3    H142272   0.509   2.072   2.614  1.1645  1.7757 -0.2696
 6927TIP3    H242273   0.575   2.106   2.746 -0.8676  0.4421  1.1592
 6928TIP3   OH242274   2.914   6.266   0.679 -0.2643  0.8798 -0.0077
 6928TIP3    H142275   2.971   6.231   0.612 -1.0539  0.8254 -0.6689
 6928TIP3    H242276   2.888   6.190   0.731  0.8334  1.0083  0.7525
 6929TIP3   OH242277   5.114   2.487   4.431  0.2018  0.2512  0.1333
 6929TIP3    H142278   5.034   2.532   4.459 -0.5214 -1.0995  0.3148
 6929TIP3    H242279   5.095   2.394   4.444  1.0131 -0.2463 -1.8206
 6930TIP3   OH242280   3.759   5.662   0.173 -0.2343  0.4205  0.0526
 6930TIP3    H142281   3.818   5.714   0.228 -1.7372 -0.7086  2.9340
 6930TIP3    H242282   3.697   5.726   0.137 -0.2282  1.0133  1.0687
 6931TIP3   OH242283   2.013   0.688  11.552  0.3722  0.1666  0.7272
 6931TIP3    H142284   1.942   0.724  11.606  1.3274 -0.8942  2.7907
 6931TIP3    H242285   2.092   0.699  11.605  1.2988 -1.2987 -0.2751
 6932TIP3   OH242286   4.350   3.302   1.839  0.7975  0.5082 -0.1488
 6932TIP3    H142287   4.331   3.253   1.758  1.7998  0.8468 -0.6158
 6932TIP3    H242288   4.405   3.242   1.890  1.0551  0.6958 -0.2033
 6933TIP3   OH242289   4.901   5.369   2.812  0.4299 -0.3169  0.0015
 6933TIP3    H142290   4.848   5.340   2.886  0.6052  1.0786  0.7157
 6933TIP3    H242291   4.917   5.289   2.761 -1.4046 -0.9514  0.3474
 6934TIP3   OH242292   1.964   0.762  13.336  0.2531  0.0971  0.5660
 6934TIP3    H142293   1.878   0.730  13.308  0.3276  0.3862 -0.0127
 6934TIP3    H242294   2.016   0.683  13.350  0.9987 -0.1168 -2.6112
 6935TIP3   OH242295   6.637   6.240  11.339 -0.0193  0.3826 -0.0241
 6935TIP3    H142296   6.588   6.321  11.330  1.7575  1.4775 -0.2400
 6935TIP3    H242297   6.712   6.263  11.394  1.4245 -0.6609 -1.4733
 6936TIP3   OH242298   6.005   1.266  15.573  0.1742 -0.2332  0.4329
 6936TIP3    H142299   5.919   1.248  15.611  0.8029 -0.0766  2.0233
 6936TIP3    H242300   6.020   1.193  15.513 -1.3490  0.1065 -0.4142
 6937TIP3   OH242301   1.901   5.793   0.672  0.6295  0.3167 -0.7001
 6937TIP3    H142302   1.921   5.703   0.700  2.0698  0.1067 -2.2503
 6937TIP3    H242303   1.975   5.845   0.702 -0.0706  0.9627 -0.0459
 6938TIP3   OH242304   0.652   3.599  11.839 -0.1945  0.3866 -0.6464
 6938TIP3    H142305   0.639   3.506  11.818  1.0867 -0.1404  0.7158
 6938TIP3    H242306   0.734   3.601  11.888 -0.7666  2.1188  0.3092
 6939TIP3   OH242307   5.118   6.113   2.133  0.3574 -0.3236 -0.2644
 6939TIP3    H142308   5.162   6.082   2.055  0.7641  0.5821 -0.4037
 6939TIP3    H242309   5.135   6.046   2.199 -1.9000 -2.2654 -1.5180
 6940TIP3   OH242310   6.412   6.270   2.370 -0.1464  0.2386 -0.2006
 6940TIP3    H142311   6.500   6.285   2.336 -0.3522  1.0405 -0.3970
 6940TIP3    H242312   6.399   6.175   2.361  0.8681  0.0487  0.2795
 6941TIP3   OH242313   0.730   0.310  10.461  0.4420  0.1058 -0.2846
 6941TIP3    H142314   0.678   0.279  10.387 -0.7151 -2.1282  1.3296
 6941TIP3    H242315   0.719   0.405  10.460  0.4013  0.1470 -2.8651
 6942TIP3   OH242316   4.260   4.830   0.127  0.6113  0.0100  0.3109
 6942TIP3    H142317   4.278   4.736   0.124 -1.4844 -0.5333  2.2804
 6942TIP3    H242318   4.302   4.860   0.208 -2.0171 -0.1183  1.8226
 6943TIP3   OH242319   0.626   2.760  14.502  0.0941  0.5266  0.3919
 6943TIP3    H142320   0.650   2.810  14.581 -0.9757  0.5895  0.6884
 6943TIP3    H242321   0.660   2.672  14.518 -0.9772  0.2632  1.3891
 6944TIP3   OH242322   3.190   1.988   2.819 -0.1374 -0.2138 -0.0378
 6944TIP3    H142323   3.185   1.896   2.844  0.5647 -0.6291 -1.3432
 6944TIP3    H242324   3.122   2.031   2.871 -0.6002 -1.4917  0.4465
 6945TIP3   OH242325   5.431   5.352  12.139 -0.1458 -0.4704  0.1988
 6945TIP3    H142326   5.348   5.305  12.134  0.3985 -1.3409 -1.1216
 6945TIP3    H242327   5.491   5.303  12.082  1.1681  0.3633  0.7958
 6946TIP3   OH242328   2.737   1.317  13.141  0.0225  0.0664  0.4351
 6946TIP3    H142329   2.730   1.322  13.236  0.1089 -1.1279  0.5227
 6946TIP3    H242330   2.661   1.264  13.114 -0.5311  1.1787 -0.2609
 6947TIP3   OH242331   0.731   2.984  15.544  0.1593  0.0515  0.3029
 6947TIP3    H142332   0.666   2.913  15.537 -1.2682  1.2645  0.7018
 6947TIP3    H242333   0.765   2.975  15.634  0.8204 -0.7917 -0.0160
 6948TIP3   OH242334   1.611   4.567   5.569  0.0464  0.2265  0.0380
 6948TIP3    H142335   1.690   4.532   5.529  1.1870  0.9035  1.5725
 6948TIP3    H242336   1.560   4.602   5.496  0.0902 -2.1556 -1.2375
 6949TIP3   OH242337   1.178   4.727  13.993 -0.3530 -0.1853 -0.2227
 6949TIP3    H142338   1.115   4.797  13.977 -0.4979 -0.4481 -0.8281
 6949TIP3    H242339   1.140   4.650  13.950  1.2840  0.1088 -2.3841
 6950TIP3   OH242340   4.961   3.941   1.588  0.0965 -0.4061  0.3437
 6950TIP3    H142341   4.890   3.877   1.586 -0.1600 -0.1020 -1.6809
 6950TIP3    H242342   4.947   3.989   1.670 -0.2233 -2.3259  1.4588
 6951TIP3   OH242343   6.003   5.950  16.889 -0.3585 -0.5009 -0.1846
 6951TIP3    H142344   6.044   5.924  16.971 -0.1352 -0.2406 -0.2124
 6951TIP3    H242345   5.911   5.965  16.912  0.2508  2.5405  0.6946
 6952TIP3   OH242346   2.170   4.419   5.630 -0.0752  0.2038  0.4062
 6952TIP3    H142347   2.206   4.377   5.708 -0.7982 -0.1327  0.5634
 6952TIP3    H242348   2.077   4.430   5.649  0.0045  1.4990  0.2007
 6953TIP3   OH242349   3.604   3.133  12.543  0.7282 -0.1543 -0.3832
 6953TIP3    H142350   3.617   3.061  12.604  2.1103 -1.1685 -1.7722
 6953TIP3    H242351   3.682   3.130  12.486  0.4252  1.9280 -0.9911
 6954TIP3   OH242352   4.942   4.933  17.213  0.1947 -0.1875 -0.4440
 6954TIP3    H142353   4.924   4.984  17.134  0.6218  0.7405  0.0428
 6954TIP3    H242354   4.871   4.957  17.273  0.7686  0.3559  0.0258
 6955TIP3   OH242355   5.449   3.942  16.598 -0.5404  0.0757 -0.3151
 6955TIP3    H142356   5.526   3.891  16.571  0.5644 -0.0153  2.5621
 6955TIP3    H242357   5.404   3.885  16.660 -2.1974  0.6751 -0.9208
 6956TIP3   OH242358   2.638   1.205   2.381 -0.0194  0.1840 -0.1839
 6956TIP3    H142359   2.713   1.217   2.322  0.3950 -3.0840 -0.5222
 6956TIP3    H242360   2.678   1.199   2.468 -0.4510  3.0806  0.3130
 6957TIP3   OH242361   2.708   1.368  16.164 -0.0130 -0.0542  0.8914
 6957TIP3    H142362   2.705   1.464  16.163 -1.1690 -0.0685 -0.4528
 6957TIP3    H242363   2.799   1.347  16.143 -0.0308  0.7639 -0.0811
 6958TIP3   OH242364   2.425   6.757  13.055  0.2839  0.5591 -0.3288
 6958TIP3    H142365   2.495   6.818  13.076  1.4863 -0.3661 -1.4755
 6958TIP3    H242366   2.471   6.678  13.024 -1.2130 -0.7368  0.6031
 6959TIP3   OH242367   0.041   6.170   3.796  0.0815 -0.1637 -0.1859
 6959TIP3    H142368   0.089   6.088   3.814 -1.4623 -0.7602  1.5783
 6959TIP3    H242369  -0.028   6.144   3.735 -1.1695 -0.5166  1.3138
 6960TIP3   OH242370   3.297   4.865   5.583  0.2147 -0.7200 -0.2586
 6960TIP3    H142371   3.235   4.913   5.639 -0.4090  0.5439 -1.9581
 6960TIP3    H242372   3.383   4.888   5.619 -0.1777 -0.2256  0.3968
 6961TIP3   OH242373   2.281   4.644  15.132  0.5713 -0.2830 -0.4736
 6961TIP3    H142374   2.365   4.624  15.173  0.9196 -1.8539 -1.8337
 6961TIP3    H242375   2.289   4.612  15.042 -1.7600 -1.3601 -0.3929
 6962TIP3   OH242376   1.653   3.213   0.360 -0.4036 -0.2097 -0.0157
 6962TIP3    H142377   1.641   3.168   0.277  1.1680 -0.2340 -0.2631
 6962TIP3    H242378   1.627   3.303   0.343  2.1253  0.3802 -1.2820
 6963TIP3   OH242379   2.147   0.937  13.215 -0.8447 -0.1080 -0.2025
 6963TIP3    H142380   2.068   0.887  13.233 -2.0208  1.3786 -1.0576
 6963TIP3    H242381   2.199   0.880  13.158 -2.4762 -0.1026 -1.7492
 6964TIP3   OH242382   3.173   4.628   2.209 -0.0568  0.0432  0.0558
 6964TIP3    H142383   3.162   4.560   2.276  0.5177 -0.4658 -0.3489
 6964TIP3    H242384   3.257   4.607   2.167 -0.1325  0.6896 -0.4359
 6965TIP3   OH242385   3.068   3.116  14.567  0.4136  0.0991 -0.0325
 6965TIP3    H142386   2.983   3.075  14.552  0.5051 -0.3724  0.7431
 6965TIP3    H242387   3.115   3.102  14.485 -0.4662  0.9018 -0.6975
 6966TIP3   OH242388   2.669   3.161  10.681  0.0607 -0.5635 -0.2774
 6966TIP3    H142389   2.764   3.169  10.675 -0.0364  0.1008 -1.1450
 6966TIP3    H242390   2.651   3.069  10.664  0.6038 -0.9242  0.9519
 6967TIP3   OH242391   6.241   1.214   4.054 -0.0485 -0.0083 -0.1276
 6967TIP3    H142392   6.222   1.202   3.961 -0.0779  0.6670 -0.2136
 6967TIP3    H242393   6.225   1.128   4.093 -0.9833 -0.0557 -0.5874
 6968TIP3   OH242394   2.247   5.685  15.115  0.3784 -0.2202 -0.6034
 6968TIP3    H142395   2.233   5.780  15.117 -0.1632 -0.3080  1.4235
 6968TIP3    H242396   2.332   5.675  15.071  2.9471  1.6215  3.3329
 6969TIP3   OH242397   0.035   2.874  13.622 -0.5957 -0.0362 -0.3771
 6969TIP3    H142398   0.054   2.823  13.543 -0.4700 -0.7848  0.1224
 6969TIP3    H242399  -0.055   2.852  13.644  0.0265 -1.5373  0.8874
 6970TIP3   OH242400   5.094   4.249  13.999 -0.1226  0.0134 -0.2038
 6970TIP3    H142401   5.032   4.230  13.928  0.2030  0.5087 -0.6260
 6970TIP3    H242402   5.039   4.262  14.076 -0.4582 -0.9727 -0.2566
 6971TIP3   OH242403   3.585   2.176   4.791  0.2364 -0.4253  0.1246
 6971TIP3    H142404   3.506   2.162   4.738 -0.7308 -1.0380  1.6447
 6971TIP3    H242405   3.643   2.105   4.767 -1.0708 -2.0032  1.3803
 6972TIP3   OH242406   1.273   2.638  11.986  0.3979  0.3201  0.0628
 6972TIP3    H142407   1.268   2.553  12.030 -0.7444  0.4239  0.1650
 6972TIP3    H242408   1.305   2.617  11.898  0.5066 -0.1628  0.2124
 6973TIP3   OH242409   2.425   0.304   3.692  0.8694  0.0853  0.0311
 6973TIP3    H142410   2.502   0.306   3.635  0.0346  1.3633 -1.1055
 6973TIP3    H242411   2.435   0.379   3.750  0.2302  0.5901 -0.4933
 6974TIP3   OH242412   1.982   3.260   5.712  0.5360  0.1547  0.1882
 6974TIP3    H142413   2.067   3.229   5.741  1.4079  0.5480 -1.8115
 6974TIP3    H242414   1.920   3.197   5.749  1.9305 -1.7925 -0.6186
 6975TIP3   OH242415   5.974   1.140   4.256  0.4002 -0.2376  0.3053
 6975TIP3    H142416   5.919   1.120   4.332 -0.2873  0.7055  0.0747
 6975TIP3    H242417   5.915   1.129   4.181  0.2568  1.6097  0.1020
 6976TIP3   OH242418   3.026   2.449  16.488 -0.0829 -0.0477  0.3108
 6976TIP3    H142419   3.049   2.356  16.485  1.5266  0.3415 -1.6585
 6976TIP3    H242420   2.970   2.463  16.412  0.5511  0.7857 -0.0140
 6977TIP3   OH242421   0.001   6.582  13.124  0.2856  0.1395  0.0801
 6977TIP3    H142422  -0.025   6.659  13.175  0.3417 -0.9902  1.9251
 6977TIP3    H242423   0.023   6.517  13.190  2.9862 -0.5812 -1.3895
 6978TIP3   OH242424   3.446   0.857  13.763 -0.3165  0.3640  0.4447
 6978TIP3    H142425   3.511   0.910  13.810  0.8130 -0.8505  0.3010
 6978TIP3    H242426   3.362   0.898  13.785  0.6010  3.3945 -1.2171
 6979TIP3   OH242427   5.180   4.746  14.143  0.3818 -0.2084 -0.1609
 6979TIP3    H142428   5.228   4.680  14.193  1.3055  1.2228  0.9250
 6979TIP3    H242429   5.223   4.748  14.058  0.5744 -0.7460 -0.0804
 6980TIP3   OH242430   5.477   0.281  15.658 -0.4661  0.4372  0.0647
 6980TIP3    H142431   5.457   0.292  15.565  0.6496 -1.8838 -0.5171
 6980TIP3    H242432   5.462   0.188  15.674  0.6894  0.5376  1.8743
 6981TIP3   OH242433   1.334   3.622   5.867  0.6874 -0.2597  0.1601
 6981TIP3    H142434   1.372   3.621   5.779 -1.1468 -0.8689 -0.6657
 6981TIP3    H242435   1.290   3.538   5.876 -1.2015  0.7262  0.7014
 6982TIP3   OH242436   4.546   5.899  11.862 -0.0407 -0.1572 -0.0079
 6982TIP3    H142437   4.528   5.902  11.956 -0.0316  0.3843 -0.0248
 6982TIP3    H242438   4.487   5.830  11.829  0.2026 -0.5930  0.4441
 6983TIP3   OH242439   6.074   3.361   0.073 -0.2188  0.1795  0.0808
 6983TIP3    H142440   6.033   3.284   0.034 -0.0284 -0.5339  1.2340
 6983TIP3    H242441   6.138   3.325   0.134 -1.7676  1.1840  2.4469
 6984TIP3   OH242442   6.325   4.092  13.195 -0.7656 -0.4525 -0.6018
 6984TIP3    H142443   6.261   4.022  13.185 -0.4640 -0.5978 -1.5984
 6984TIP3    H242444   6.403   4.049  13.230 -1.1427 -0.2960  0.4932
 6985TIP3   OH242445   6.315   1.460   5.768  0.1416  0.3476 -0.5849
 6985TIP3    H142446   6.375   1.501   5.831 -1.2069  2.7994 -0.7655
 6985TIP3    H242447   6.345   1.491   5.683 -1.2562  1.5316 -0.6831
 6986TIP3   OH242448   1.674   3.142  15.911 -0.5507  0.3959  0.6533
 6986TIP3    H142449   1.739   3.193  15.862  0.7902 -1.1358  0.7408
 6986TIP3    H242450   1.698   3.051  15.893 -2.4475 -0.2122  1.0439
 6987TIP3   OH242451   4.820   1.928   4.345  0.0609 -0.1100  0.5131
 6987TIP3    H142452   4.817   1.952   4.438 -1.4282  1.6971  0.0653
 6987TIP3    H242453   4.729   1.908   4.323  0.0694  1.2519 -0.9411
 6988TIP3   OH242454   4.297   4.218   3.380  0.1425  0.5712  0.0627
 6988TIP3    H142455   4.354   4.210   3.456 -2.3824 -1.5558  1.9165
 6988TIP3    H242456   4.245   4.297   3.398 -1.7633 -0.9408  1.6629
 6989TIP3   OH242457   6.442   6.054  17.198 -0.0545  0.0939 -0.1123
 6989TIP3    H142458   6.536   6.068  17.193 -0.0081 -0.0830  0.1988
 6989TIP3    H242459   6.405   6.142  17.205  0.2750  0.1101  2.4127
 6990TIP3   OH242460   5.655   6.388   2.974  0.0436 -0.2447  0.2182
 6990TIP3    H142461   5.611   6.370   3.058 -1.2615 -1.0426 -0.6003
 6990TIP3    H242462   5.745   6.410   2.999 -0.2274 -0.7588  1.8148
 6991TIP3   OH242463   6.509   5.655   3.489 -0.0771 -0.2871  0.0630
 6991TIP3    H142464   6.520   5.583   3.427 -1.0397 -1.2174  0.9568
 6991TIP3    H242465   6.572   5.637   3.558  0.2269  0.1631 -0.0902
 6992TIP3   OH242466   6.593   4.418   0.917  0.5772  0.4399  0.3788
 6992TIP3    H142467   6.657   4.478   0.956  0.3566  1.9366 -1.4109
 6992TIP3    H242468   6.620   4.410   0.826 -2.6944  2.6199 -0.9680
 6993TIP3   OH242469   2.721   3.651   3.608  0.3456  0.5630  0.0283
 6993TIP3    H142470   2.654   3.711   3.576  0.1590 -0.1958 -1.0524
 6993TIP3    H242471   2.784   3.645   3.536  1.1840  0.6811  0.7415
 6994TIP3   OH242472   6.245   4.340  12.694 -0.3331  0.1831  0.1982
 6994TIP3    H142473   6.199   4.350  12.778 -1.9634  1.9794 -0.8534
 6994TIP3    H242474   6.176   4.336  12.629  0.9495  1.1769 -1.2844
 6995TIP3   OH242475   1.393   3.619  14.332 -0.1580  0.2036 -0.0586
 6995TIP3    H142476   1.361   3.677  14.263 -2.2595 -0.4791  0.2782
 6995TIP3    H242477   1.317   3.603  14.387  0.9240 -1.0986  1.1300
 6996TIP3   OH242478   0.908   0.534   3.085 -0.0810 -0.7631 -0.0371
 6996TIP3    H142479   0.981   0.595   3.093  0.2904 -1.0397 -1.1311
 6996TIP3    H242480   0.839   0.585   3.042  0.8469 -1.5283 -2.6510
 6997TIP3   OH242481   2.511   0.968  10.751 -0.8999  0.6462 -0.3161
 6997TIP3    H142482   2.604   0.958  10.770 -0.5528  1.4889 -1.4247
 6997TIP3    H242483   2.467   0.908  10.812  0.2917  0.9231  0.8596
 6998TIP3   OH242484   1.765   3.398  14.819 -0.0217 -0.6579  0.3925
 6998TIP3    H142485   1.789   3.369  14.732 -0.3877  1.3207 -0.4335
 6998TIP3    H242486   1.703   3.333  14.850 -1.7085 -0.2195 -1.8113
 6999TIP3   OH242487   5.605   2.601   5.335  0.1882 -0.5255  0.6836
 6999TIP3    H142488   5.561   2.522   5.304 -1.5560 -0.0688  1.8588
 6999TIP3    H242489   5.542   2.671   5.321  1.2882  0.5026  0.6798
 7000TIP3   OH242490   1.587   3.131   0.055  0.6365  0.4224  0.1252
 7000TIP3    H142491   1.595   3.049   0.104  3.0037  0.4416 -0.1229
 7000TIP3    H242492   1.573   3.104  -0.035 -0.7524  0.3520  0.3422
 7001TIP3   OH242493   0.599   3.615  11.134 -0.1396  0.5125  0.1273
 7001TIP3    H142494   0.600   3.661  11.050  0.2064  1.4150  0.6130
 7001TIP3    H242495   0.620   3.525  11.112  2.2652  1.1498 -0.5286
 7002TIP3   OH242496   4.988   6.676   0.075 -1.1031  0.8020  0.1883
 7002TIP3    H142497   5.049   6.718   0.135 -1.0765  0.8073  0.1581
 7002TIP3    H242498   4.956   6.599   0.123  1.1902 -0.9269 -0.8495
 7003TIP3   OH242499   0.119   3.884   4.249  0.0058  0.3299 -0.3430
 7003TIP3    H142500   0.098   3.848   4.335 -0.9723 -2.9202 -1.7777
 7003TIP3    H242501   0.205   3.924   4.261 -0.3866  0.5949  2.2570
 7004TIP3   OH242502   4.771   5.602  11.387 -0.1953  0.0978  0.0800
 7004TIP3    H142503   4.736   5.661  11.321 -0.4386 -2.6033 -2.4370
 7004TIP3    H242504   4.837   5.551  11.340  1.2848 -0.4599  2.5750
 7005TIP3   OH242505   2.797   5.194   2.635  0.7009 -0.0372  0.8090
 7005TIP3    H142506   2.833   5.132   2.698  0.6749 -1.9728 -0.9952
 7005TIP3    H242507   2.718   5.152   2.601  1.2306  0.4578 -1.2044
 7006TIP3   OH242508   5.663   0.274   1.717 -0.1354  0.1322  0.0186
 7006TIP3    H142509   5.698   0.362   1.730 -1.2284  0.5149  0.4660
 7006TIP3    H242510   5.594   0.266   1.782  0.2579 -1.2392  0.2888
 7007TIP3   OH242511   0.223   6.807  11.075 -0.4775  0.0758  0.3782
 7007TIP3    H142512   0.274   6.845  11.147 -0.1519  1.2693 -0.4477
 7007TIP3    H242513   0.136   6.792  11.112 -0.8225  2.2993  0.5712
 7008TIP3   OH242514   1.632   3.354  12.403 -0.1418  0.0031 -0.1210
 7008TIP3    H142515   1.538   3.343  12.417  0.0440 -0.6563  0.6973
 7008TIP3    H242516   1.657   3.280  12.348  0.2233 -0.8864  1.2206
 7009TIP3   OH242517   2.547   4.887   2.407 -0.3733 -0.5364  0.4965
 7009TIP3    H142518   2.524   4.814   2.349 -0.6479 -1.6571  1.9503
 7009TIP3    H242519   2.536   4.965   2.353  1.3486 -1.6083 -1.5738
 7010TIP3   OH242520   4.088   1.419   4.676 -0.6034  0.2548  0.2276
 7010TIP3    H142521   4.121   1.385   4.593 -0.1275 -1.1812  0.9783
 7010TIP3    H242522   4.147   1.491   4.697 -1.3610  1.3363 -1.1741
 7011TIP3   OH242523   1.791   2.047   0.839 -0.2802 -0.5774  0.2571
 7011TIP3    H142524   1.738   2.123   0.814 -0.1024  0.1108  1.8725
 7011TIP3    H242525   1.780   1.985   0.766 -2.6148 -0.1288  0.1636
 7012TIP3   OH242526   3.824   3.320  15.143  0.2286 -0.1078  0.5289
 7012TIP3    H142527   3.868   3.352  15.222 -0.2713 -0.4711  0.9656
 7012TIP3    H242528   3.747   3.274  15.176  0.0287 -0.2873 -0.1745
 7013TIP3   OH242529   0.844   1.945  14.695 -0.1249  0.0019 -0.5056
 7013TIP3    H142530   0.888   2.027  14.669 -1.0971  0.7007 -0.0020
 7013TIP3    H242531   0.863   1.885  14.623  1.3396  0.3820 -0.4871
 7014TIP3   OH242532   0.774   0.843  11.666  0.6167  0.2834  0.0001
 7014TIP3    H142533   0.717   0.859  11.742  1.5086  0.3946  0.6563
 7014TIP3    H242534   0.823   0.925  11.656 -2.8352  2.2682 -3.7157
 7015TIP3   OH242535   0.009   5.012   1.092  0.4344 -0.2701 -0.5909
 7015TIP3    H142536   0.024   4.966   1.174 -1.6973 -0.0932 -0.0295
 7015TIP3    H242537   0.009   4.943   1.025 -0.9127 -0.8837  0.0038
 7016TIP3   OH242538   6.677   6.521  14.167  0.1625 -0.7977  0.2933
 7016TIP3    H142539   6.769   6.545  14.178 -0.2537  4.1730 -3.4957
 7016TIP3    H242540   6.628   6.586  14.217 -1.3358 -2.1605  0.6791
 7017TIP3   OH242541   0.658   1.300   4.244 -0.0150  0.6943 -0.7757
 7017TIP3    H142542   0.590   1.282   4.309  0.3512  0.7705 -0.3661
 7017TIP3    H242543   0.615   1.285   4.160 -0.4055  0.2857 -0.5099
 7018TIP3   OH242544   6.644   1.639  14.662 -1.1575  0.6050  0.0479
 7018TIP3    H142545   6.656   1.717  14.609  0.1771  0.2456 -0.2246
 7018TIP3    H242546   6.597   1.669  14.740  1.3801  2.2173  1.0955
 7019TIP3   OH242547   5.013   6.389   3.436  0.3925 -0.0372 -0.4189
 7019TIP3    H142548   5.010   6.331   3.360 -0.4478  0.7096 -0.9777
 7019TIP3    H242549   5.039   6.332   3.509  0.1617 -0.9866 -1.0582
 7020TIP3   OH242550   4.075   6.196  16.531  0.7924 -0.0023  0.1552
 7020TIP3    H142551   4.150   6.236  16.487 -0.4903  0.9267 -1.2746
 7020TIP3    H242552   4.032   6.145  16.462  0.3946 -0.9744  1.0933
 7021TIP3   OH242553   6.706   4.695  11.178 -0.6234  0.3860 -0.0183
 7021TIP3    H142554   6.651   4.650  11.114  0.9681 -0.2971 -0.9628
 7021TIP3    H242555   6.713   4.785  11.144  2.1931 -0.5188 -2.3393
 7022TIP3   OH242556   0.411   6.701   2.190 -0.0604  0.0713  0.1638
 7022TIP3    H142557   0.492   6.725   2.236  0.5704 -1.4753 -0.0907
 7022TIP3    H242558   0.367   6.640   2.249 -0.1074 -0.5550 -0.5000
 7023TIP3   OH242559   4.095   2.890  12.393 -0.0855 -1.1370  0.5626
 7023TIP3    H142560   4.028   2.920  12.332 -0.2603 -0.6438  0.9879
 7023TIP3    H242561   4.136   2.815  12.349  1.3287  0.5355 -1.2229
 7024TIP3   OH242562   6.081   4.753   5.200  0.1858 -0.0413 -0.1658
 7024TIP3    H142563   6.176   4.767   5.192  0.3451 -1.0458 -0.1254
 7024TIP3    H242564   6.070   4.659   5.194 -1.0049  0.1495 -2.3205
 7025TIP3   OH242565   3.554   6.730   4.719  0.1861  0.2333  0.9171
 7025TIP3    H142566   3.509   6.657   4.762 -2.1664  0.2162 -1.3595
 7025TIP3    H242567   3.585   6.695   4.636 -1.2029  1.7828 -0.3389
 7026TIP3   OH242568   5.343   3.247   4.326 -0.5193 -0.0901 -0.2544
 7026TIP3    H142569   5.415   3.279   4.379 -0.5722 -0.0371 -0.2137
 7026TIP3    H242570   5.282   3.320   4.322 -0.4885 -0.0743 -0.4369
 7027TIP3   OH242571   4.858   5.467  14.463  0.0593 -0.0268 -0.6193
 7027TIP3    H142572   4.808   5.482  14.544  2.8330 -1.7152  1.5758
 7027TIP3    H242573   4.933   5.526  14.470  1.1813 -1.3560 -1.1088
 7028TIP3   OH242574   2.160   4.229   4.727 -0.3669 -0.3523 -0.5404
 7028TIP3    H142575   2.255   4.234   4.739 -0.1978  0.6666 -2.0689
 7028TIP3    H242576   2.149   4.214   4.633 -1.7462  0.7183 -0.5634
 7029TIP3   OH242577   4.988   4.951  11.699  0.0327  0.3650  0.2523
 7029TIP3    H142578   5.019   5.002  11.624  0.1088 -0.0687 -0.0114
 7029TIP3    H242579   4.976   4.863  11.665 -0.4413  0.2820  0.6226
 7030TIP3   OH242580   2.641   5.018   5.246  0.1413  0.1806 -0.2845
 7030TIP3    H142581   2.694   5.096   5.265 -2.3060  1.4767  1.7441
 7030TIP3    H242582   2.551   5.049   5.247 -1.1254 -2.9384  2.5880
 7031TIP3   OH242583   3.721   2.773   4.964  0.2027 -0.3227  0.6202
 7031TIP3    H142584   3.768   2.831   5.023 -1.4245  0.2805  1.3971
 7031TIP3    H242585   3.789   2.726   4.916  1.5604  0.2012  1.9686
 7032TIP3   OH242586   0.124   1.401  17.054  0.0718 -0.7627  0.2241
 7032TIP3    H142587   0.059   1.467  17.079 -0.4988 -1.5640  0.8872
 7032TIP3    H242588   0.197   1.453  17.019 -0.4296  0.2132  0.5660
 7033TIP3   OH242589   2.729   6.573  15.059  0.3914 -0.1191 -0.7380
 7033TIP3    H142590   2.752   6.502  15.119 -0.6455 -0.6776 -0.9819
 7033TIP3    H242591   2.742   6.537  14.972  0.6501  0.2664 -0.8626
 7034TIP3   OH242592   5.179   0.450   1.575 -0.3592  0.1874 -0.6336
 7034TIP3    H142593   5.091   0.487   1.572 -0.2805  0.3364 -2.2024
 7034TIP3    H242594   5.235   0.519   1.538  0.8913  1.1631  2.6883
 7035TIP3   OH242595   2.318   6.292   4.442 -0.0073 -1.1741  0.0872
 7035TIP3    H142596   2.285   6.294   4.532 -0.7452  0.6857 -0.1738
 7035TIP3    H242597   2.377   6.367   4.436  0.0293 -1.2694 -0.9705
 7036TIP3   OH242598   5.516   1.655  16.253 -0.0514  0.0145  0.4592
 7036TIP3    H142599   5.453   1.655  16.325 -1.5123 -0.2267 -0.7581
 7036TIP3    H242600   5.572   1.579  16.270 -1.4933 -1.0956  0.4381
 7037TIP3   OH242601   3.937   1.287  12.111 -0.1599 -0.4431 -0.0305
 7037TIP3    H142602   3.959   1.282  12.204 -0.5318  0.7933  0.1415
 7037TIP3    H242603   3.881   1.364  12.104  0.1543 -0.3109 -1.3436
 7038TIP3   OH242604   4.394   0.761  15.097  0.1356  0.4000 -0.6160
 7038TIP3    H142605   4.436   0.770  15.011 -1.6758 -0.0565 -1.6018
 7038TIP3    H242606   4.347   0.843  15.110 -1.1925 -0.2656 -1.0093
 7039TIP3   OH242607   1.980   3.563   0.072 -0.2655 -0.1755  0.0138
 7039TIP3    H142608   1.933   3.482   0.093 -0.0695 -0.2163  0.3144
 7039TIP3    H242609   1.974   3.571  -0.023 -0.3738 -0.4904 -0.0075
 7040TIP3   OH242610   6.190   4.933  11.381 -0.2288 -0.2008  0.2546
 7040TIP3    H142611   6.158   4.905  11.296  0.2861  0.2339 -0.0861
 7040TIP3    H242612   6.270   4.882  11.395 -1.1864 -1.5088  1.2381
 7041TIP3   OH242613   6.111   4.566  14.338  0.0326  0.0928 -0.1067
 7041TIP3    H142614   6.205   4.550  14.326  0.0863 -0.4419  0.9502
 7041TIP3    H242615   6.077   4.571  14.249  0.9047 -0.6779 -0.5062
 7042TIP3   OH242616   6.258   5.707  15.361 -0.4379  0.0586 -0.1458
 7042TIP3    H142617   6.340   5.756  15.366 -0.5227  0.1725  0.1679
 7042TIP3    H242618   6.282   5.617  15.384 -0.6224  0.3508  1.3105
 7043TIP3   OH242619   5.093   0.530  12.932  0.1056 -0.1437  0.0451
 7043TIP3    H142620   5.044   0.523  13.014 -0.3304  0.8809 -0.1106
 7043TIP3    H242621   5.168   0.586  12.953  0.1880 -0.1717 -0.1667
 7044TIP3   OH242622   0.576   4.524  14.011 -0.2519  0.3249 -0.2920
 7044TIP3    H142623   0.601   4.613  13.988  0.2281  0.9951  2.5121
 7044TIP3    H242624   0.496   4.533  14.062 -1.9554 -1.1882 -2.4931
 7045TIP3   OH242625   5.271   1.743   1.837 -0.3290  0.2085 -0.2862
 7045TIP3    H142626   5.257   1.681   1.765 -1.0949 -0.5001  0.4628
 7045TIP3    H242627   5.292   1.688   1.912  0.2807  0.9429  0.0917
 7046TIP3   OH242628   3.615   0.863   0.430  0.0696 -0.2979 -0.6902
 7046TIP3    H142629   3.578   0.776   0.416  1.5599 -1.4292  1.7524
 7046TIP3    H242630   3.693   0.848   0.484  0.5113  2.5535 -0.3609
 7047TIP3   OH242631   1.521   6.221   1.367 -0.1635 -0.1843 -0.1363
 7047TIP3    H142632   1.520   6.307   1.326 -1.1488 -0.8787 -1.6775
 7047TIP3    H242633   1.440   6.179   1.337  0.5366 -1.8278  0.1487
 7048TIP3   OH242634   6.524   4.274   0.557  0.1502  0.3190  0.3924
 7048TIP3    H142635   6.580   4.203   0.525  1.5774  1.2978  0.6667
 7048TIP3    H242636   6.475   4.302   0.479  0.3183 -0.2805  0.0610
 7049TIP3   OH242637   4.793   6.404  12.954 -0.1398 -0.1953  0.1796
 7049TIP3    H142638   4.888   6.411  12.942 -0.2958 -1.1630 -2.1263
 7049TIP3    H242639   4.783   6.372  13.044  1.6751  0.3507  0.6178
 7050TIP3   OH242640   3.529   1.352   3.016  0.4878 -0.1048  0.6897
 7050TIP3    H142641   3.542   1.281   3.078  1.0479 -1.7199 -1.1901
 7050TIP3    H242642   3.443   1.389   3.039 -0.5600 -2.4291  0.7305
 7051TIP3   OH242643   6.200   2.740   5.379  0.7464 -0.2918 -0.1841
 7051TIP3    H142644   6.206   2.812   5.442  2.6142  1.1711 -1.8901
 7051TIP3    H242645   6.282   2.692   5.388  0.7122 -0.5124 -0.9351
 7052TIP3   OH242646   3.241   5.482  15.766  0.2361  0.0130  0.2879
 7052TIP3    H142647   3.252   5.451  15.676  1.4334  1.6542 -0.1824
 7052TIP3    H242648   3.165   5.539  15.763 -0.5842 -1.0229  0.6592
 7053TIP3   OH242649   3.211   0.443  11.365  0.2696  0.3618 -0.5934
 7053TIP3    H142650   3.279   0.386  11.400 -0.2141 -1.3252 -2.1871
 7053TIP3    H242651   3.258   0.510  11.316  0.8852  2.0034  2.0581
 7054TIP3   OH242652   6.697   5.866   2.876  0.0234  0.0138  0.0836
 7054TIP3    H142653   6.651   5.950   2.882 -0.9531 -0.4875 -0.1271
 7054TIP3    H242654   6.732   5.851   2.963 -0.2385  0.4022  0.2595
 7055TIP3   OH242655   1.780   4.987  12.803 -0.1131  0.4750 -0.0666
 7055TIP3    H142656   1.827   4.908  12.829  1.8297  1.0611 -1.5370
 7055TIP3    H242657   1.718   5.003  12.874  0.4529 -1.5330  0.9498
 7056TIP3   OH242658   0.263   5.516   0.905 -0.2513 -0.1026 -0.4510
 7056TIP3    H142659   0.282   5.505   0.998  0.0879 -0.6088 -0.5734
 7056TIP3    H242660   0.170   5.540   0.902 -0.4672 -0.8306 -0.0167
 7057TIP3   OH242661   1.361   4.276   1.634 -0.1012  0.4747  0.4512
 7057TIP3    H142662   1.311   4.213   1.583  1.5418 -0.0228 -0.6479
 7057TIP3    H242663   1.336   4.361   1.600 -0.1377  0.2294 -0.1472
 7058TIP3   OH242664   0.030   6.182   4.616  0.1841  0.0074  0.5266
 7058TIP3    H142665   0.006   6.163   4.525 -0.0575 -0.1183  0.6158
 7058TIP3    H242666  -0.048   6.159   4.667 -0.0930  1.1440  0.6551
 7059TIP3   OH242667   4.785   0.508  15.943  0.0602 -0.2918  0.4348
 7059TIP3    H142668   4.844   0.581  15.924 -1.2647  0.8659  0.6149
 7059TIP3    H242669   4.700   0.549  15.960 -0.5455 -1.8138  1.3471
 7060TIP3   OH242670   6.525   3.207  14.649 -0.3504  0.0166  0.5081
 7060TIP3    H142671   6.618   3.188  14.639 -0.0157  2.0683 -1.0578
 7060TIP3    H242672   6.488   3.192  14.562 -0.6683  2.8560  0.0646
 7061TIP3   OH242673   5.078   6.117  11.532  0.3846  0.0125  0.3358
 7061TIP3    H142674   5.077   6.163  11.448  2.1653  1.0632  0.8254
 7061TIP3    H242675   5.158   6.148  11.575 -0.2633 -0.8089  2.2478
 7062TIP3   OH242676   1.035   0.877  13.709  0.1303  0.0960  0.6784
 7062TIP3    H142677   1.084   0.826  13.774 -0.6341  0.4418  1.5534
 7062TIP3    H242678   1.102   0.917  13.654  0.7767 -0.7342  0.8377
 7063TIP3   OH242679   3.976   4.911  15.330  0.0607 -0.2125 -0.0935
 7063TIP3    H142680   3.913   4.866  15.274  0.6398 -1.3060  0.1014
 7063TIP3    H242681   3.923   4.974  15.379 -0.9385 -1.2883  0.2640
 7064TIP3   OH242682   0.273   4.526  13.457  0.1729  0.5058 -0.2608
 7064TIP3    H142683   0.272   4.486  13.544  1.6517 -0.2899 -0.5865
 7064TIP3    H242684   0.277   4.620  13.474 -0.0841  0.3772  0.5301
 7065TIP3   OH242685   0.911   2.708  11.671  0.1227  0.2240 -0.0009
 7065TIP3    H142686   0.921   2.751  11.587 -2.2710  0.9266  0.0145
 7065TIP3    H242687   0.820   2.722  11.696 -0.7154 -4.2118  0.3415
 7066TIP3   OH242688   4.428   4.800  11.473  0.1951 -0.1833 -0.0265
 7066TIP3    H142689   4.350   4.816  11.421  0.4320 -1.5571 -0.8519
 7066TIP3    H242690   4.397   4.749  11.548  0.3837 -1.4443 -0.7742
 7067TIP3   OH242691   0.021   3.608   0.770  0.3953  0.5611 -0.6866
 7067TIP3    H142692  -0.055   3.589   0.716 -1.2735 -0.1365  1.7193
 7067TIP3    H242693   0.011   3.699   0.795 -2.7309 -0.6704  3.7455
 7068TIP3   OH242694   1.146   1.401   5.715 -0.0990 -0.1715  0.0223
 7068TIP3    H142695   1.088   1.359   5.652  3.2474 -3.5448 -1.2118
 7068TIP3    H242696   1.218   1.436   5.663  0.4263  1.3269  1.6417
 7069TIP3   OH242697   2.786   5.992  15.480 -0.1026  0.0876  0.0629
 7069TIP3    H142698   2.854   6.008  15.415  0.1821  1.1475  0.6043
 7069TIP3    H242699   2.704   5.998  15.431  0.1062  0.9405 -0.1956
 7070TIP3   OH242700   3.225   5.555  14.179  0.3399 -0.0286  0.2412
 7070TIP3    H142701   3.313   5.519  14.184  0.1082 -0.9514 -1.4539
 7070TIP3    H242702   3.175   5.489  14.129 -0.8507  1.2822 -0.3772
 7071TIP3   OH242703   6.290   3.927   3.803  0.2801 -0.1432  0.0174
 7071TIP3    H142704   6.295   3.832   3.791  0.7732 -0.3223  1.3826
 7071TIP3    H242705   6.356   3.945   3.870 -0.3918  1.0454  0.3764
 7072TIP3   OH242706   0.327   0.135  17.111 -0.1192 -0.2402 -0.5320
 7072TIP3    H142707   0.326   0.197  17.038  1.3273  0.9787  0.4229
 7072TIP3    H242708   0.365   0.055  17.074 -0.3485  0.0271 -1.3589
 7073TIP3   OH242709   1.002   3.476  17.304 -0.1796  0.3200 -0.0484
 7073TIP3    H142710   0.962   3.560  17.327  0.0385  0.0988  1.2088
 7073TIP3    H242711   1.087   3.499  17.267 -0.2060  0.6559  0.0981
 7074TIP3   OH242712   5.092   0.046  16.714  0.1715  0.5502 -0.0704
 7074TIP3    H142713   5.098   0.135  16.679 -0.5829  1.0853  1.1047
 7074TIP3    H242714   5.102   0.056  16.809 -4.5005  0.0688  0.7591
 7075TIP3   OH242715   4.912   6.818   1.113 -0.3343 -0.1832 -0.2504
 7075TIP3    H142716   4.909   6.830   1.018 -1.2734  1.5685 -0.0354
 7075TIP3    H242717   5.005   6.802   1.131 -0.2324 -1.2353 -1.5074
 7076TIP3   OH242718   6.434   2.642   0.768 -0.3690 -0.4397 -0.3505
 7076TIP3    H142719   6.382   2.720   0.790  0.1620 -0.0934 -0.2956
 7076TIP3    H242720   6.518   2.658   0.810 -0.1730 -0.9345 -0.5569
 7077TIP3   OH242721   3.152   5.540  11.705 -0.0128  0.1205  0.0397
 7077TIP3    H142722   3.222   5.603  11.686  1.1150 -1.5805 -1.8600
 7077TIP3    H242723   3.102   5.581  11.776  4.6870  0.1166  3.8583
 7078TIP3   OH242724   5.485   2.686  12.708  0.6801  0.0495  0.6573
 7078TIP3    H142725   5.416   2.748  12.684 -0.4767 -1.5358 -0.3981
 7078TIP3    H242726   5.450   2.641  12.785 -0.6341 -2.3287 -1.1775
 7079TIP3   OH242727   6.669   1.444   6.086 -0.4753  0.7443  0.5832
 7079TIP3    H142728   6.587   1.395   6.088 -0.0303 -0.0308  3.1314
 7079TIP3    H242729   6.664   1.503   6.161  1.7295 -0.1665  1.5350
 7080TIP3   OH242730   5.783   4.161   5.319  0.2487 -0.1777 -0.1591
 7080TIP3    H142731   5.868   4.147   5.276  0.9179 -0.9035  1.3355
 7080TIP3    H242732   5.721   4.170   5.247  1.8502  2.3205 -1.3885
 7081TIP3   OH242733   4.251   0.796   4.680  0.2722  0.1423  0.4933
 7081TIP3    H142734   4.261   0.806   4.585 -0.4074 -0.1640  0.3832
 7081TIP3    H242735   4.230   0.703   4.691 -0.8222  0.4231  0.8390
 7082TIP3   OH242736   1.683   2.221  12.458  0.2533  0.4571 -0.1005
 7082TIP3    H142737   1.689   2.170  12.377 -0.4038  0.7447 -0.3364
 7082TIP3    H242738   1.759   2.193  12.509 -0.4063 -1.1915  0.0292
 7083TIP3   OH242739   0.979   2.031   5.998 -0.7842 -0.2680 -0.7545
 7083TIP3    H142740   1.004   1.969   5.930 -2.6860 -1.4291 -0.4710
 7083TIP3    H242741   1.009   1.990   6.079 -0.0262  0.3112 -0.7251
 7084TIP3   OH242742   5.750   1.381  15.899 -0.5065  0.2281  1.0964
 7084TIP3    H142743   5.815   1.449  15.882 -0.4407  0.0613  0.6705
 7084TIP3    H242744   5.762   1.318  15.827 -1.1494  0.2072  1.0058
 7085TIP3   OH242745   2.111   1.714   6.107 -0.5090  0.4250 -0.2311
 7085TIP3    H142746   2.128   1.803   6.139  1.7942 -0.3693  1.0119
 7085TIP3    H242747   2.099   1.662   6.186 -0.9966 -0.5345 -0.9191
 7086TIP3   OH242748   5.305   3.770  15.117 -0.6165  0.4887  0.5008
 7086TIP3    H142749   5.240   3.837  15.097 -1.1408 -0.2476 -0.3190
 7086TIP3    H242750   5.384   3.797  15.069 -0.9537  0.3078 -0.1620
 7087TIP3   OH242751   0.190   0.211   3.423 -0.1460  0.2235  0.4228
 7087TIP3    H142752   0.136   0.249   3.354  0.9470 -0.8287 -1.0936
 7087TIP3    H242753   0.152   0.125   3.441  2.2192 -1.6432 -2.4441
 7088TIP3   OH242754   4.929   6.270   1.512  0.2564  0.5418  0.4894
 7088TIP3    H142755   4.992   6.298   1.447  0.4139  1.0314  0.8504
 7088TIP3    H242756   4.894   6.188   1.477 -1.0046  1.6906 -1.1007
 7089TIP3   OH242757   2.892   3.794   3.369  0.0447 -0.4091  0.1437
 7089TIP3    H142758   2.859   3.825   3.285  0.1019 -2.1603 -0.5553
 7089TIP3    H242759   2.980   3.761   3.350  0.1073 -0.7029  0.9114
 7090TIP3   OH242760   4.210   1.375   2.353 -0.6378 -0.0987  0.5046
 7090TIP3    H142761   4.156   1.395   2.430 -1.9391 -0.6497 -0.2242
 7090TIP3    H242762   4.245   1.288   2.370 -0.5527 -0.0317  0.6739
 7091TIP3   OH242763   3.453   2.630  16.932 -0.7798 -0.1725  0.3978
 7091TIP3    H142764   3.385   2.696  16.949  0.0425  0.6441  0.6422
 7091TIP3    H242765   3.481   2.601  17.019 -0.0402  0.3415  0.3494
 7092TIP3   OH242766   6.032   0.854   3.806  0.1526  0.3730 -0.4887
 7092TIP3    H142767   5.947   0.830   3.769 -0.6652 -0.1828  1.5746
 7092TIP3    H242768   6.018   0.849   3.901  2.5900 -0.0215 -0.0949
 7093TIP3   OH242769   6.566   3.355   0.704  0.1795 -0.3022  0.4801
 7093TIP3    H142770   6.584   3.411   0.629  0.6373 -0.1689  0.6838
 7093TIP3    H242771   6.650   3.350   0.750  0.1583 -1.1662  0.4516
 7094TIP3   OH242772   0.979   0.738   1.200 -0.4833 -0.1290  0.0352
 7094TIP3    H142773   0.984   0.754   1.294  0.4052  3.9552 -0.5116
 7094TIP3    H242774   0.887   0.751   1.178 -0.3370  1.0905  0.0924
 7095TIP3   OH242775   5.732   1.419  15.134 -0.1813  0.2782 -0.8613
 7095TIP3    H142776   5.781   1.408  15.215 -1.9639 -1.9881  0.0109
 7095TIP3    H242777   5.675   1.493  15.151 -0.3176  0.0212 -0.1622
 7096TIP3   OH242778   0.144   2.469  14.932 -0.4506 -0.2418 -0.4999
 7096TIP3    H142779   0.229   2.513  14.928 -0.3973 -0.4302 -2.1091
 7096TIP3    H242780   0.096   2.516  15.001  1.5950 -1.3769  1.8394
 7097TIP3   OH242781   5.404   4.842   1.470  0.2710 -0.0118 -0.3840
 7097TIP3    H142782   5.425   4.870   1.381  2.8969 -1.7963 -0.4406
 7097TIP3    H242783   5.430   4.750   1.473  2.6937  0.5669  2.8445
 7098TIP3   OH242784   5.442   6.797  11.390  0.6904  0.3365 -0.1558
 7098TIP3    H142785   5.444   6.891  11.409 -1.3048  0.2531  0.7883
 7098TIP3    H242786   5.349   6.777  11.380  0.8003 -2.0193  2.3774
 7099TIP3   OH242787   0.069   3.840   1.215  0.2705 -0.5603  0.4044
 7099TIP3    H142788   0.057   3.747   1.233 -1.4440 -0.6478 -0.8597
 7099TIP3    H242789   0.104   3.843   1.126  2.4356 -0.0137  1.2290
 7100TIP3   OH242790   4.755   2.160  16.305 -0.8246 -0.2142 -0.8988
 7100TIP3    H142791   4.716   2.092  16.360  0.4720 -0.2657  0.0134
 7100TIP3    H242792   4.817   2.113  16.250  1.6947  0.3742  1.2325
 7101TIP3   OH242793   1.255   3.889   5.335 -0.0444 -0.2860 -0.0675
 7101TIP3    H142794   1.301   3.813   5.371  0.0946 -0.6751 -1.0406
 7101TIP3    H242795   1.210   3.855   5.257  1.8530  1.0663 -1.8390
 7102TIP3   OH242796   6.163   5.855   5.863 -0.3677  0.3126  0.1361
 7102TIP3    H142797   6.080   5.893   5.836  0.0726  0.1552 -1.5561
 7102TIP3    H242798   6.212   5.844   5.781  1.6841  1.2598  1.1629
 7103TIP3   OH242799   0.951   1.518   0.018  0.9680 -0.8582 -0.3020
 7103TIP3    H142800   0.960   1.534   0.112  0.5050 -0.6026 -0.2985
 7103TIP3    H242801   0.875   1.459   0.011  0.4557 -0.1816 -0.5731
 7104TIP3   OH242802   0.216   1.513  13.800  0.1107  0.3238  0.3171
 7104TIP3    H142803   0.272   1.499  13.724  1.5616 -0.3363  1.4671
 7104TIP3    H242804   0.133   1.472  13.776  0.4812  0.2662 -0.9576
 7105TIP3   OH242805   1.058   0.035   1.183  0.0688  0.0067 -0.0713
 7105TIP3    H142806   1.140   0.028   1.232  0.4610  0.3926 -0.6534
 7105TIP3    H242807   0.994  -0.013   1.235  1.0392 -1.7647 -0.4647
 7106TIP3   OH242808   3.139   3.019  15.731 -0.0685 -0.0143  0.1101
 7106TIP3    H142809   3.163   2.927  15.745 -1.2373 -0.6023 -1.4362
 7106TIP3    H242810   3.049   3.025  15.761 -0.6673  0.0918 -1.5685
 7107TIP3   OH242811   6.017   2.507   0.031  0.6415  0.1874  0.1514
 7107TIP3    H142812   6.059   2.577  -0.019  1.2180 -0.5664 -0.4366
 7107TIP3    H242813   6.089   2.466   0.080  0.3396 -0.1214  0.3400
 7108TIP3   OH242814   4.846   2.736   6.362 -1.0013 -0.0348  0.2233
 7108TIP3    H142815   4.794   2.655   6.367 -0.5281 -0.2754  2.3599
 7108TIP3    H242816   4.935   2.706   6.342 -1.2101  0.1600 -1.0359
 7109TIP3   OH242817   0.068   6.763  11.886 -0.2804 -0.0672 -0.2349
 7109TIP3    H142818   0.001   6.705  11.848  0.6417 -0.4941 -1.2857
 7109TIP3    H242819   0.076   6.734  11.977 -0.9294 -0.5604 -0.3231
 7110TIP3   OH242820   4.700   4.083   2.194  0.8207  0.0958 -0.0290
 7110TIP3    H142821   4.706   4.167   2.241 -1.3234  0.4366 -0.2640
 7110TIP3    H242822   4.712   4.106   2.102  0.7320  0.0830 -0.0442
 7111TIP3   OH242823   6.315   3.587  14.726 -0.3308  0.3014 -0.4635
 7111TIP3    H142824   6.292   3.558  14.814 -1.3684 -0.4435 -0.9632
 7111TIP3    H242825   6.284   3.677  14.721 -1.9989 -0.2567 -0.6744
 7112TIP3   OH242826   0.532   0.759   3.725  0.6454 -0.1082  0.2571
 7112TIP3    H142827   0.554   0.698   3.796 -1.5785 -1.2135  0.1156
 7112TIP3    H242828   0.513   0.842   3.770  0.4698 -0.4560  0.8464
 7113TIP3   OH242829   0.751   2.937   1.225 -0.1234 -0.3665 -0.1719
 7113TIP3    H142830   0.793   3.023   1.234  0.3884 -0.4940 -1.2061
 7113TIP3    H242831   0.743   2.924   1.131  1.1581 -2.0860 -0.0946
 7114TIP3   OH242832   0.846   6.301  13.612 -0.4031  0.1150  0.1901
 7114TIP3    H142833   0.836   6.331  13.521 -0.0405 -0.4992 -0.0588
 7114TIP3    H242834   0.898   6.369  13.654  2.5132 -1.2317 -0.9854
 7115TIP3   OH242835   1.580   0.628  12.489 -0.0160 -0.1028  0.1037
 7115TIP3    H142836   1.533   0.695  12.439 -0.9183 -1.0112 -0.2959
 7115TIP3    H242837   1.646   0.595  12.428  2.5016  2.4307  1.2172
 7116TIP3   OH242838   6.253   3.722  13.612 -0.0623 -0.7863  0.3144
 7116TIP3    H142839   6.241   3.777  13.535 -1.1110 -0.7780  0.4667
 7116TIP3    H242840   6.345   3.695  13.608  0.7380  1.6208  0.6833
 7117TIP3   OH242841   1.400   1.135   2.648  0.1380 -0.3995 -0.1289
 7117TIP3    H142842   1.476   1.158   2.702  0.3466 -1.0246 -0.1478
 7117TIP3    H242843   1.436   1.076   2.582 -0.1646  0.1545 -0.7951
 7118TIP3   OH242844   1.198   5.938   0.349  0.4196  0.4173  0.1175
 7118TIP3    H142845   1.120   5.966   0.396  0.3322 -1.6230  1.3164
 7118TIP3    H242846   1.237   5.870   0.405  1.4508 -0.6646 -1.7881
 7119TIP3   OH242847   3.259   0.897   5.170  0.0162  0.2383 -0.5494
 7119TIP3    H142848   3.290   0.816   5.211 -0.2535  0.7018  0.6135
 7119TIP3    H242849   3.165   0.898   5.188 -0.2199  0.1749 -1.7023
 7120TIP3   OH242850   5.761   3.283  12.668  0.3991 -0.4310 -0.1889
 7120TIP3    H142851   5.760   3.229  12.589 -0.6244 -0.1723 -0.3593
 7120TIP3    H242852   5.676   3.268  12.710  0.4613  0.3315  0.2441
 7121TIP3   OH242853   5.611   1.682   6.158 -0.3653  0.1273 -0.4333
 7121TIP3    H142854   5.649   1.594   6.167  0.7121  0.5016 -1.1262
 7121TIP3    H242855   5.520   1.672   6.186 -0.0020 -1.0021  0.4088
 7122TIP3   OH242856   6.176   2.445   5.285 -0.0965  0.0553 -0.4461
 7122TIP3    H142857   6.113   2.430   5.355 -1.4301 -0.3572 -1.6794
 7122TIP3    H242858   6.164   2.371   5.225  0.1832  0.9727 -1.6795
 7123TIP3   OH242859   2.144   6.194   2.070  0.5385 -0.3388  0.3503
 7123TIP3    H142860   2.114   6.236   1.989 -0.3604 -2.6713 -0.6110
 7123TIP3    H242861   2.239   6.190   2.061  0.4365 -0.7008 -0.6822
 7124TIP3   OH242862   0.580   5.147   2.018  0.4433 -0.2250 -0.5409
 7124TIP3    H142863   0.586   5.108   1.931  0.1800 -0.4092 -0.4754
 7124TIP3    H242864   0.552   5.237   2.002 -2.3114 -0.9855 -0.5066
 7125TIP3   OH242865   5.095   1.622   2.599 -0.3675 -0.7657 -0.1231
 7125TIP3    H142866   5.081   1.716   2.587 -1.9146 -0.9778 -0.1444
 7125TIP3    H242867   5.058   1.603   2.685  0.7035 -1.2293  0.2599
 7126TIP3   OH242868   2.260   2.044   0.603  0.1805 -0.4367 -0.5108
 7126TIP3    H142869   2.350   2.041   0.634  0.1747 -0.5295 -0.5025
 7126TIP3    H242870   2.234   1.952   0.595 -0.6455 -0.4600  1.6393
 7127TIP3   OH242871   3.913   0.611  10.730 -0.4475 -0.3657  0.4376
 7127TIP3    H142872   4.004   0.591  10.706 -0.6331 -1.6449  0.7093
 7127TIP3    H242873   3.902   0.571  10.816 -0.5159  2.0588  1.6339
 7128TIP3   OH242874   1.833   4.896  14.770 -0.5797  0.4474  0.1933
 7128TIP3    H142875   1.742   4.866  14.780 -1.0413  1.7257  0.0537
 7128TIP3    H242876   1.837   4.976  14.823  1.0671 -0.7099  1.9284
 7129TIP3   OH242877   2.683   2.675   3.466 -0.3264 -0.7430 -0.2230
 7129TIP3    H142878   2.636   2.671   3.383 -1.3220  0.3758  0.2459
 7129TIP3    H242879   2.614   2.665   3.532  0.2385 -0.1400  0.4792
 7130TIP3   OH242880   6.008   0.695  15.152 -0.2799 -0.4920  0.1480
 7130TIP3    H142881   5.967   0.667  15.070  1.9495 -1.2406 -0.8051
 7130TIP3    H242882   5.949   0.664  15.220 -1.3606 -1.3555 -1.1254
 7131TIP3   OH242883   1.673   3.574  11.763 -0.4675  0.4735  0.0783
 7131TIP3    H142884   1.619   3.636  11.714 -0.5292 -1.6826 -2.8450
 7131TIP3    H242885   1.762   3.607  11.755 -0.6371  0.8338 -0.3416
 7132TIP3   OH242886   4.701   2.934   6.492  0.3816  0.6592 -0.2628
 7132TIP3    H142887   4.761   2.873   6.449  0.5903  0.1805  0.7058
 7132TIP3    H242888   4.754   3.013   6.506 -0.0021  1.2540 -1.8877
 7133TIP3   OH242889   3.945   0.681   3.997 -0.9843 -0.7158  0.5974
 7133TIP3    H142890   3.968   0.662   4.089  2.7196 -2.5641 -0.5004
 7133TIP3    H242891   3.991   0.613   3.947 -3.9486 -0.6200 -2.6534
 7134TIP3   OH242892   1.741   1.821  11.296 -0.1978 -0.3850  0.0613
 7134TIP3    H142893   1.716   1.858  11.381 -0.1745 -1.1933  0.4361
 7134TIP3    H242894   1.679   1.859  11.234 -3.0357 -2.9465  1.0744
 7135TIP3   OH242895   6.143   6.256   4.288 -0.7522  0.1158 -0.0213
 7135TIP3    H142896   6.049   6.241   4.292 -0.3513 -3.5006 -0.5002
 7135TIP3    H242897   6.157   6.303   4.205 -2.0493 -0.3509 -0.5193
 7136TIP3   OH242898   2.685   3.035  16.590  0.2961 -0.1795  0.0737
 7136TIP3    H142899   2.765   3.080  16.559  1.1665 -2.2312 -0.8352
 7136TIP3    H242900   2.631   3.027  16.511 -1.1401  1.7140  0.7980
 7137TIP3   OH242901   3.985   3.186  14.237 -0.1072 -0.5072  0.4821
 7137TIP3    H142902   3.945   3.113  14.283 -0.0059 -1.7217 -1.2623
 7137TIP3    H242903   4.035   3.146  14.166 -0.4878  1.2685 -0.8727
 7138TIP3   OH242904   6.135   5.624   3.533 -0.4961 -0.1996 -0.0953
 7138TIP3    H142905   6.139   5.544   3.481  2.3354 -1.6292  2.0512
 7138TIP3    H242906   6.123   5.594   3.624  0.0086  1.8486  0.7127
 7139TIP3   OH242907   3.940   6.785  15.880  0.7895  0.0900 -0.2622
 7139TIP3    H142908   3.925   6.839  15.958  1.5665 -0.6058  0.3858
 7139TIP3    H242909   3.983   6.706  15.914  3.2108  0.7266 -1.6297
 7140TIP3   OH242910   3.920   2.981  14.021 -0.0215 -0.2885  0.4042
 7140TIP3    H142911   3.994   3.005  13.965  0.3333 -1.0357  0.5467
 7140TIP3    H242912   3.956   2.919  14.084 -1.2296 -2.3991 -0.8700
 7141TIP3   OH242913   5.229   4.403   4.506 -0.1086  0.0281 -0.2326
 7141TIP3    H142914   5.172   4.326   4.515  1.5875 -1.4942 -1.5740
 7141TIP3    H242915   5.306   4.381   4.559  0.9169  0.2285 -1.5928
 7142TIP3   OH242916   5.246   0.077   4.219  0.4869  0.1364  0.5818
 7142TIP3    H142917   5.186   0.151   4.209 -0.9031 -1.0436 -0.2706
 7142TIP3    H242918   5.317   0.111   4.274 -0.5030  1.8487  0.8883
 7143TIP3   OH242919   2.976   0.914   5.545  0.4046  0.3545  0.5602
 7143TIP3    H142920   2.904   0.857   5.569  0.8149 -0.9536 -1.1063
 7143TIP3    H242921   3.037   0.909   5.619 -0.0128 -0.6133  0.8505
 7144TIP3   OH242922   0.553   2.592   2.929 -0.1906 -0.1583 -0.6489
 7144TIP3    H142923   0.592   2.515   2.970  0.6951  0.4636 -0.2675
 7144TIP3    H242924   0.600   2.601   2.846  0.2948  0.4218 -0.3240
 7145TIP3   OH242925   6.522   3.283  16.617 -0.3399  0.1008 -0.0116
 7145TIP3    H142926   6.563   3.257  16.699 -0.6067 -0.3773 -0.0270
 7145TIP3    H242927   6.432   3.307  16.642  0.2817  2.4033  0.2342
 7146TIP3   OH242928   4.314   0.114   3.667  0.3382  0.1053  0.1139
 7146TIP3    H142929   4.282   0.029   3.635  0.2868 -0.4337  1.5335
 7146TIP3    H242930   4.288   0.116   3.759  0.7613  1.4681  0.2191
 7147TIP3   OH242931   4.147   5.226   5.083  0.6086  0.2683  0.6974
 7147TIP3    H142932   4.064   5.239   5.129  0.0206 -0.7298 -0.0527
 7147TIP3    H242933   4.212   5.220   5.153 -0.2395 -0.9976  1.4215
 7148TIP3   OH242934   5.159   5.889   3.755  0.2187 -0.0627 -0.3357
 7148TIP3    H142935   5.182   5.818   3.814  1.3789  0.3478 -0.2756
 7148TIP3    H242936   5.103   5.848   3.688  0.9075 -1.0333 -0.3233
 7149TIP3   OH242937   6.014   4.328  16.103 -0.2247 -0.3047  0.6516
 7149TIP3    H142938   5.943   4.312  16.041  0.3797 -0.2890 -0.0584
 7149TIP3    H242939   6.075   4.384  16.055  1.2017 -1.8697  0.5553
 7150TIP3   OH242940   4.043   5.696   2.692  0.3900  0.2315 -0.0390
 7150TIP3    H142941   4.044   5.634   2.765  1.2377 -0.9114 -0.9789
 7150TIP3    H242942   4.103   5.658   2.627 -0.0140  1.4237 -1.1600
 7151TIP3   OH242943   3.746   4.993   0.332  0.3498  0.2844  0.0394
 7151TIP3    H142944   3.725   4.923   0.392 -0.9902 -0.9372 -1.7306
 7151TIP3    H242945   3.669   5.051   0.335  0.5780  0.5907  0.0241
 7152TIP3   OH242946   0.721   5.204  15.978 -0.0498  0.0186 -0.0173
 7152TIP3    H142947   0.757   5.285  15.941  0.4304 -0.4540 -0.6159
 7152TIP3    H242948   0.652   5.179  15.917  0.8013 -0.8117 -0.6647
 7153TIP3   OH242949   3.339   4.494  13.520 -0.5286 -0.7637 -0.6647
 7153TIP3    H142950   3.360   4.409  13.482  0.7520 -1.8446  2.1593
 7153TIP3    H242951   3.317   4.474  13.611 -0.1637  1.9210  0.0920
 7154TIP3   OH242952   4.109   5.936   0.495  0.0150 -0.7266  0.0729
 7154TIP3    H142953   4.126   5.847   0.526 -1.3378 -0.6790  1.0186
 7154TIP3    H242954   4.127   5.992   0.570 -1.3211 -0.4227  0.1910
 7155TIP3   OH242955   4.126   5.564  13.866 -0.9260  0.0028  0.4916
 7155TIP3    H142956   4.045   5.612  13.852 -2.7573 -3.3879 -2.0862
 7155TIP3    H242957   4.099   5.482  13.908  1.4468 -0.5137  1.1736
 7156TIP3   OH242958   5.921   0.177   6.334  0.8026  0.5787 -0.6755
 7156TIP3    H142959   5.918   0.239   6.262  1.2436 -0.4597 -1.6097
 7156TIP3    H242960   5.949   0.094   6.294  1.5144  0.0888  0.7484
 7157TIP3   OH242961   0.116   6.222   5.621  0.3019 -0.0711  0.1219
 7157TIP3    H142962   0.129   6.170   5.542 -0.8746  1.7524 -1.3760
 7157TIP3    H242963   0.079   6.161   5.684  0.8328 -1.4812 -0.8720
 7158TIP3   OH242964   4.702   0.350   5.922 -0.4020 -0.3810 -0.0153
 7158TIP3    H142965   4.701   0.258   5.895  2.5716 -0.0680 -1.6024
 7158TIP3    H242966   4.781   0.358   5.975  0.0128  1.4704 -0.8319
 7159TIP3   OH242967   0.464   5.465   3.609 -0.0429 -0.1137  0.1684
 7159TIP3    H142968   0.411   5.538   3.641 -0.1249 -0.3133  0.4906
 7159TIP3    H242969   0.540   5.507   3.568  0.3193  0.1477  1.0620
 7160TIP3   OH242970   4.814   4.159   0.648 -0.5344  0.2696 -0.1075
 7160TIP3    H142971   4.892   4.104   0.635 -0.4084  0.4701 -0.1951
 7160TIP3    H242972   4.823   4.191   0.738 -0.6436  0.0911 -0.0326
 7161TIP3   OH242973   2.578   4.245  15.655  0.2956 -0.2610  0.2213
 7161TIP3    H142974   2.597   4.248  15.749 -1.5081 -0.6092  0.6466
 7161TIP3    H242975   2.482   4.251  15.650  0.2619 -1.5164 -1.5416
 7162TIP3   OH242976   0.720   4.857   0.608 -0.3218 -0.2336 -0.3529
 7162TIP3    H142977   0.628   4.884   0.616 -0.0901  0.9117 -1.2462
 7162TIP3    H242978   0.739   4.867   0.514  1.0350  0.6999 -0.0074
 7163TIP3   OH242979   1.316   4.858   4.686  0.0943  0.1364 -0.1940
 7163TIP3    H142980   1.289   4.816   4.767  0.0702  1.2951  0.4188
 7163TIP3    H242981   1.348   4.787   4.631 -0.4989 -0.7452  0.5828
 7164TIP3   OH242982   0.560   2.457   4.958  0.0665 -0.8793 -0.4677
 7164TIP3    H142983   0.486   2.493   4.910  2.4082  1.3832 -2.6881
 7164TIP3    H242984   0.546   2.484   5.048 -0.8090  1.3488 -1.2155
 7165TIP3   OH242985   4.172   3.291  17.019 -0.3486  0.2891 -0.1358
 7165TIP3    H142986   4.113   3.328  17.085 -0.7288  0.2651 -0.4608
 7165TIP3    H242987   4.146   3.334  16.938  0.7490  1.0406 -0.1143
 7166TIP3   OH242988   6.178   2.711   3.614  0.3304 -0.0524  0.1766
 7166TIP3    H142989   6.246   2.766   3.576 -0.4899  0.0362 -1.2333
 7166TIP3    H242990   6.212   2.622   3.607 -1.0387 -0.4409 -3.8411
 7167TIP3   OH242991   0.055   5.783  12.012  0.1067 -0.0392 -0.3299
 7167TIP3    H142992   0.141   5.805  11.978  0.6387 -0.6899  0.5510
 7167TIP3    H242993   0.052   5.687  12.011  0.1002 -0.0843  1.2777
 7168TIP3   OH242994   0.954   5.798  16.824  0.1864 -0.4144 -0.1494
 7168TIP3    H142995   0.911   5.864  16.769  0.5660 -0.4086 -0.4519
 7168TIP3    H242996   0.883   5.749  16.864 -0.1027  0.2216  0.1298
 7169TIP3   OH242997   6.297   6.825  12.294 -0.3761  0.0371 -0.2754
 7169TIP3    H142998   6.270   6.742  12.333 -1.4654  0.9065  0.9218
 7169TIP3    H242999   6.271   6.818  12.202  4.0085 -2.8497 -1.6226
 7170TIP3   OH243000   3.479   3.683   5.178  0.3824 -0.1101  0.4912
 7170TIP3    H143001   3.519   3.642   5.101  0.8818  0.2024  0.5858
 7170TIP3    H243002   3.515   3.771   5.181 -0.5051  0.2664  0.4354
 7171TIP3   OH243003   1.020   6.379  16.517 -0.1785 -0.7310 -0.0900
 7171TIP3    H143004   0.963   6.417  16.583 -1.7337 -0.8457 -1.2988
 7171TIP3    H243005   1.048   6.454  16.464 -0.1577 -0.8165 -0.2002
 7172TIP3   OH243006   2.165   4.526   3.672  0.0243  0.4446 -0.1668
 7172TIP3    H143007   2.139   4.575   3.595 -0.9183  0.3131  0.0653
 7172TIP3    H243008   2.207   4.447   3.637  0.8519  1.0328 -0.5349
 7173TIP3   OH243009   0.627   4.863  13.494 -0.6408 -0.1403  0.2759
 7173TIP3    H143010   0.596   4.854  13.403  0.1631  0.8944 -0.1173
 7173TIP3    H243011   0.552   4.835  13.547 -1.5248  0.3143 -0.6882
 7174TIP3   OH243012   0.063   3.822   1.848  1.0936  0.3583 -0.3249
 7174TIP3    H143013  -0.012   3.826   1.907  0.1745 -4.0429 -0.8502
 7174TIP3    H243014   0.140   3.823   1.905  0.4381  0.8245  0.5591
 7175TIP3   OH243015   6.359   1.734   1.972 -0.0705  0.1215 -0.0671
 7175TIP3    H143016   6.296   1.806   1.987 -0.1473 -0.0510  0.4875
 7175TIP3    H243017   6.419   1.740   2.047 -0.5893 -0.9219  0.4585
 7176TIP3   OH243018   1.431   2.885   0.745 -0.0364 -0.7696  0.5763
 7176TIP3    H143019   1.478   2.951   0.694 -1.9898 -1.2677 -2.1338
 7176TIP3    H243020   1.364   2.934   0.792 -0.0637 -0.5792  0.3428
 7177TIP3   OH243021   3.312   5.772   0.634 -0.0706  0.4374  0.5774
 7177TIP3    H143022   3.293   5.852   0.683  0.4201  1.2412 -0.5217
 7177TIP3    H243023   3.335   5.802   0.546 -0.8724 -0.9637 -0.1518
 7178TIP3   OH243024   5.875   6.312  15.339  0.6221  0.0595  0.3474
 7178TIP3    H143025   5.912   6.356  15.415  0.2482  0.6051  0.2214
 7178TIP3    H243026   5.780   6.325  15.348  0.6195  0.8614 -0.6428
 7179TIP3   OH243027   0.059   4.815   0.615 -0.5661  0.2246  0.1640
 7179TIP3    H143028   0.015   4.757   0.553  0.2755 -0.1574 -0.0856
 7179TIP3    H243029   0.138   4.843   0.570 -0.4552  0.7670  0.6770
 7180TIP3   OH243030   6.427   1.491  14.590  0.4978  0.5033  0.2924
 7180TIP3    H143031   6.401   1.480  14.681  0.4923  0.1948  0.2546
 7180TIP3    H243032   6.517   1.523  14.594  0.1022  1.6275  0.4239
 7181TIP3   OH243033   1.722   5.232  15.899  0.4046 -0.2213 -0.6372
 7181TIP3    H143034   1.631   5.261  15.894  0.8528  1.2935 -0.5495
 7181TIP3    H243035   1.772   5.301  15.854  1.8110  0.5249  1.8728
 7182TIP3   OH243036   0.126   2.116   4.646  0.2122  0.7639  1.1713
 7182TIP3    H143037   0.126   2.026   4.616  0.3803  0.1186  2.9663
 7182TIP3    H243038   0.034   2.139   4.655  0.1624  0.9654  0.2035
 7183TIP3   OH243039   0.408   2.506   3.839 -0.4650  0.0754  0.2690
 7183TIP3    H143040   0.393   2.474   3.750  0.9283  0.5280 -0.1600
 7183TIP3    H243041   0.417   2.427   3.892 -0.7990 -0.2014 -0.0878
 7184TIP3   OH243042   5.912   5.868   0.367 -0.2579 -0.7743 -0.8804
 7184TIP3    H143043   5.851   5.795   0.353 -3.4743  0.5939  3.6447
 7184TIP3    H243044   5.858   5.946   0.360  0.9853  0.5743  2.5538
 7185TIP3   OH243045   3.261   0.316   6.470  0.9557 -0.2089 -0.3850
 7185TIP3    H143046   3.330   0.347   6.528  2.1338 -0.7657 -1.4480
 7185TIP3    H243047   3.240   0.228   6.502  0.8535 -0.1053 -0.1662
 7186TIP3   OH243048   1.461   2.328  15.790 -0.4917 -0.1917 -0.1315
 7186TIP3    H143049   1.547   2.367  15.778 -0.0899 -1.2195 -0.7557
 7186TIP3    H243050   1.408   2.397  15.831  0.9256  0.0873  1.3084
 7187TIP3   OH243051   2.450   6.284  15.368  0.4970 -0.1216 -0.2607
 7187TIP3    H143052   2.458   6.320  15.457 -2.1526 -0.9555  0.4218
 7187TIP3    H243053   2.390   6.343  15.323  0.3829 -0.6973 -0.8893
 7188TIP3   OH243054   4.997   6.281   0.530 -0.0953 -0.0314  0.5115
 7188TIP3    H143055   4.937   6.245   0.464 -2.2380  1.0997  1.7083
 7188TIP3    H243056   5.025   6.205   0.580  0.8936 -0.8032 -1.1151
 7189TIP3   OH243057   1.753   1.140   4.959  0.2958 -0.3437 -0.4231
 7189TIP3    H143058   1.786   1.069   4.904  0.9236 -0.1857 -0.2590
 7189TIP3    H243059   1.662   1.116   4.976  0.5912 -1.2872 -0.0912
 7190TIP3   OH243060   2.744   4.433   4.043  0.4828  0.0793  0.1959
 7190TIP3    H143061   2.807   4.376   4.086  0.7771 -0.5058 -0.9535
 7190TIP3    H243062   2.668   4.378   4.027  0.9366 -0.1457 -1.3208
 7191TIP3   OH243063   2.598   1.069   3.287  0.4005  0.3772 -0.0299
 7191TIP3    H143064   2.668   1.018   3.329  0.5372  0.4489 -0.1701
 7191TIP3    H243065   2.531   1.004   3.267  0.0452  0.4459  0.9004
 7192TIP3   OH243066   2.426   6.371  12.082 -0.0759 -0.5538  0.3476
 7192TIP3    H143067   2.356   6.315  12.047  0.1575 -1.2547  0.9640
 7192TIP3    H243068   2.408   6.376  12.176  0.9142 -1.0723  0.5773
 7193TIP3   OH243069   3.100   2.001  17.252 -0.0880 -0.7365  0.6428
 7193TIP3    H143070   3.038   1.939  17.214  0.5734 -0.4503 -1.0162
 7193TIP3    H243071   3.055   2.037  17.328 -1.8237 -0.7776 -0.3139
 7194TIP3   OH243072   1.945   1.052   3.874 -0.2316 -0.1126  0.3207
 7194TIP3    H143073   1.875   1.088   3.928 -0.7887 -2.2996  1.1329
 7194TIP3    H243074   2.022   1.104   3.897 -1.1238  0.9855  0.9264
 7195TIP3   OH243075   6.391   1.934  12.007  0.3338  0.2346  0.2320
 7195TIP3    H143076   6.384   2.029  11.994 -0.1777 -0.0117 -1.5429
 7195TIP3    H243077   6.301   1.905  12.016  0.4531 -0.1498  0.1851
 7196TIP3   OH243078   1.147   4.759   3.178  0.2199  0.3086  0.8704
 7196TIP3    H143079   1.208   4.699   3.221  1.8075  0.3061 -1.2344
 7196TIP3    H243080   1.063   4.715   3.183  1.6453 -3.5407 -2.6939
 7197TIP3   OH243081   1.226   0.654  13.613  0.1791  0.2613 -0.2324
 7197TIP3    H143082   1.211   0.651  13.708  0.2769 -2.9935 -0.2289
 7197TIP3    H243083   1.322   0.654  13.605  0.1946  2.0370 -0.3729
 7198TIP3   OH243084   5.014   6.463   6.271  0.5642 -0.2416 -0.0082
 7198TIP3    H143085   5.108   6.468   6.288  0.9099  0.4984 -1.8962
 7198TIP3    H243086   4.996   6.369   6.259  1.3734 -0.2820 -1.0484
 7199TIP3   OH243087   6.542   3.904  10.988  0.3964 -0.2465  0.6478
 7199TIP3    H143088   6.477   3.933  10.925  0.7498  1.3354  0.9735
 7199TIP3    H243089   6.606   3.855  10.936 -0.2871 -0.5671  0.0974
 7200TIP3   OH243090   1.803   5.625  13.869  0.1035 -0.3843  0.3770
 7200TIP3    H143091   1.755   5.588  13.795 -1.6062 -0.0811  1.2901
 7200TIP3    H243092   1.750   5.698  13.898  2.1764  1.2854  0.1901
 7201TIP3   OH243093   4.475   6.418   5.683  0.2879 -0.0934 -0.2190
 7201TIP3    H143094   4.457   6.326   5.662  0.0886 -0.0659 -0.1685
 7201TIP3    H243095   4.544   6.414   5.750  0.9969 -0.1782 -0.9313
 7202TIP3   OH243096   1.758   2.060   5.734 -0.2826  0.2578 -0.2042
 7202TIP3    H143097   1.671   2.074   5.770 -0.7219 -0.3988 -0.9813
 7202TIP3    H243098   1.770   1.965   5.735  0.0757  0.2913 -0.9043
 7203TIP3   OH243099   4.790   4.313  13.542 -0.6333  0.3770 -0.2163
 7203TIP3    H143100   4.694   4.311  13.551 -0.5851  0.2428  0.2739
 7203TIP3    H243101   4.814   4.404  13.557 -0.7072  0.4592 -0.5899
 7204TIP3   OH243102   0.519   2.010   0.739 -0.5571 -0.3440  0.5034
 7204TIP3    H143103   0.598   2.008   0.794 -0.3337  0.4150  0.2302
 7204TIP3    H243104   0.490   1.919   0.735  1.7581 -1.1012 -1.4638
 7205TIP3   OH243105   4.462   6.499   2.325  0.4130  0.3422 -0.3858
 7205TIP3    H143106   4.517   6.429   2.360  0.2407  0.4169  0.0447
 7205TIP3    H243107   4.412   6.529   2.400 -0.2621  0.2348 -0.7820
 7206TIP3   OH243108   5.309   1.159  14.606 -0.1395 -0.4149  0.2166
 7206TIP3    H143109   5.268   1.143  14.521 -1.3018 -1.6745  0.9838
 7206TIP3    H243110   5.242   1.204  14.657  0.1189 -0.7394  0.8517
 7207TIP3   OH243111   2.055   6.702  16.596  0.5524 -0.0604 -0.5695
 7207TIP3    H143112   2.144   6.710  16.631  0.0299  0.2409  0.7154
 7207TIP3    H243113   2.054   6.760  16.520  2.6445 -3.0010 -3.1465
 7208TIP3   OH243114   3.152   4.937  14.098 -0.3094  0.4726  0.4401
 7208TIP3    H143115   3.059   4.958  14.104 -0.2174  0.4483  2.4114
 7208TIP3    H243116   3.181   4.928  14.189  1.3919 -0.5503 -0.1568
 7209TIP3   OH243117   1.618   5.533   3.193  0.1727  0.2065  0.0419
 7209TIP3    H143118   1.685   5.580   3.243  0.3548  0.9459 -0.8693
 7209TIP3    H243119   1.666   5.496   3.118 -0.5116  1.2398 -0.9419
 7210TIP3   OH243120   6.471   6.127  14.847  0.2998  0.4983  0.4887
 7210TIP3    H143121   6.420   6.122  14.765 -0.9739 -2.0568  1.3235
 7210TIP3    H243122   6.433   6.201  14.894 -1.2914 -0.0568  0.1629
 7211TIP3   OH243123   6.719   5.938   6.133  0.1845  0.4667 -0.7661
 7211TIP3    H143124   6.676   5.864   6.090 -1.2954  1.6176 -1.3550
 7211TIP3    H243125   6.812   5.921   6.121 -0.1512 -0.5421 -2.2138
 7212TIP3   OH243126   2.556   2.231   4.378 -0.2978 -0.0914  0.7463
 7212TIP3    H143127   2.611   2.304   4.405  0.2312 -0.8529  1.7952
 7212TIP3    H243128   2.610   2.184   4.314 -1.4190  1.5214 -1.4924
 7213TIP3   OH243129   4.517   0.088  17.102  0.5213  0.0637 -0.4125
 7213TIP3    H143130   4.533   0.128  17.188  0.1624 -0.3775 -0.1335
 7213TIP3    H243131   4.484   0.001  17.123 -1.1493  0.5246 -0.9700
 7214TIP3   OH243132   5.759   2.362   4.185  0.0042 -0.4185 -0.1955
 7214TIP3    H143133   5.799   2.449   4.180 -0.5010 -0.1423  0.4938
 7214TIP3    H243134   5.688   2.372   4.248  0.4519 -1.5298  0.5085
 7215TIP3   OH243135   4.408   4.328   5.552 -0.3136  1.1311 -0.4076
 7215TIP3    H143136   4.341   4.397   5.548 -0.3142  1.0823 -1.5847
 7215TIP3    H243137   4.430   4.311   5.461 -1.6311 -1.7100 -0.3197
 7216TIP3   OH243138   0.403   5.664   1.322  0.3637  0.0588 -0.3432
 7216TIP3    H143139   0.377   5.579   1.288  2.1537  0.3923 -2.8140
 7216TIP3    H243140   0.326   5.720   1.308 -0.2072 -0.7119 -0.3548
 7217TIP3   OH243141   6.219   4.050  16.890  0.0326 -0.2127 -0.4831
 7217TIP3    H143142   6.153   4.000  16.841  0.4659 -1.6188  0.3090
 7217TIP3    H243143   6.302   4.029  16.847  0.1722  0.1381 -0.3877
 7218TIP3   OH243144   5.907   2.959   1.977 -0.2227 -0.1416  0.3625
 7218TIP3    H143145   5.877   2.972   1.887  0.1270 -0.2870  0.2229
 7218TIP3    H243146   5.837   2.996   2.031 -0.2359  0.3429  0.0198
 7219TIP3   OH243147   0.844   5.258   0.510 -0.3125 -0.2813  0.5483
 7219TIP3    H143148   0.917   5.215   0.466  0.3376  1.7323 -0.4739
 7219TIP3    H243149   0.867   5.256   0.603  0.2542 -1.0592  0.4033
 7220TIP3   OH243150   1.605   4.815   0.525 -0.3265  0.2532  0.1623
 7220TIP3    H143151   1.581   4.907   0.517 -0.7041 -0.0016 -2.6069
 7220TIP3    H243152   1.533   4.767   0.483 -0.9470 -1.4980  2.9533
 7221TIP3   OH243153   3.655   0.690  13.950 -0.3596  0.4189  0.1093
 7221TIP3    H143154   3.635   0.648  13.867 -0.6410 -0.6045  0.6692
 7221TIP3    H243155   3.576   0.676  14.003 -0.5762  1.9365  0.2261
 7222TIP3   OH243156   5.144   5.799   5.304  0.1968 -0.1996  0.2412
 7222TIP3    H143157   5.100   5.859   5.365 -0.3541  1.4244 -1.6500
 7222TIP3    H243158   5.235   5.830   5.302  0.1032  0.0635 -0.1011
 7223TIP3   OH243159   5.659   3.842   4.590 -0.2801  0.1292 -0.1532
 7223TIP3    H143160   5.597   3.870   4.657 -0.6443 -0.8003 -0.0814
 7223TIP3    H243161   5.695   3.760   4.623 -2.2399 -1.6743 -2.0860
 7224TIP3   OH243162   2.835   0.256   2.555 -0.2467  0.1381 -0.9678
 7224TIP3    H143163   2.867   0.335   2.512  0.0477  2.0788  2.4674
 7224TIP3    H243164   2.801   0.202   2.484 -1.1767  3.6401 -3.4414
 7225TIP3   OH243165   2.008   5.584   3.149  0.7521  0.5927 -0.2937
 7225TIP3    H143166   1.993   5.624   3.234  0.7738 -1.0873  0.5423
 7225TIP3    H243167   1.984   5.652   3.086 -3.0706  0.6326  0.9706
 7226TIP3   OH243168   2.394   2.999   2.007  0.0321  0.0219 -0.5171
 7226TIP3    H143169   2.381   2.912   2.044 -0.7208 -0.1448 -1.1444
 7226TIP3    H243170   2.305   3.033   1.995  0.2963  0.4661 -1.2340
 7227TIP3   OH243171   4.486   5.430   3.585 -0.2892  0.7206 -0.2286
 7227TIP3    H143172   4.501   5.434   3.491 -0.6215  1.2752 -0.2661
 7227TIP3    H243173   4.450   5.343   3.601  0.5591  0.3142 -0.4894
 7228TIP3   OH243174   4.306   4.405   0.311 -0.4958 -0.1239 -0.3248
 7228TIP3    H143175   4.390   4.402   0.266 -0.4292 -1.3105 -0.1424
 7228TIP3    H243176   4.242   4.390   0.242 -0.6088  1.3375 -0.5595
 7229TIP3   OH243177   0.179   6.557   1.908  0.2716 -0.2024  0.2357
 7229TIP3    H143178   0.209   6.648   1.910 -1.0182  0.2448 -0.0004
 7229TIP3    H243179   0.116   6.554   1.836  0.6028 -1.3929 -0.0358
 7230TIP3   OH243180   5.282   5.806  14.403  0.2148 -0.6025  0.0595
 7230TIP3    H143181   5.325   5.821  14.319 -0.7901 -3.6824 -1.1460
 7230TIP3    H243182   5.305   5.882  14.456  1.0450  1.3687 -2.9074
 7231TIP3   OH243183   2.111   3.790   5.278 -0.4672 -0.3010 -0.5928
 7231TIP3    H143184   2.117   3.869   5.331  0.7777 -1.0073  0.3696
 7231TIP3    H243185   2.156   3.812   5.197  0.9805 -0.3791  0.1577
 7232TIP3   OH243186   3.883   4.405  16.565 -0.2168  0.3723 -0.4287
 7232TIP3    H143187   3.879   4.367  16.652 -1.8905 -1.4216 -1.2024
 7232TIP3    H243188   3.937   4.484  16.575  2.5091 -1.5351  1.5247
 7233TIP3   OH243189   3.032   3.755  16.888  0.5407 -0.3857 -0.2125
 7233TIP3    H143190   2.992   3.710  16.814  1.1025  0.1556 -0.8565
 7233TIP3    H243191   3.106   3.803  16.851  1.4171 -0.8585  0.8482
 7234TIP3   OH243192   2.030   2.784  13.930  0.7228 -0.3943  0.2083
 7234TIP3    H143193   1.972   2.725  13.882  0.0121  0.4153  0.0551
 7234TIP3    H243194   2.091   2.725  13.976 -0.4763 -1.2813  0.7044
 7235TIP3   OH243195   2.383   0.329   1.105  0.2430 -0.0087 -0.0388
 7235TIP3    H143196   2.378   0.425   1.107 -0.0941 -0.0346  0.5254
 7235TIP3    H243197   2.294   0.301   1.084  0.3869 -0.1971 -0.4096
 7236TIP3   OH243198   3.584   4.349   2.556 -0.3110 -0.6294  0.2568
 7236TIP3    H143199   3.677   4.368   2.550 -0.0299 -2.1455 -0.8528
 7236TIP3    H243200   3.567   4.343   2.650  0.1302  2.0345  0.5922
 7237TIP3   OH243201   2.453   5.175   0.387 -0.4977 -0.3291  0.0534
 7237TIP3    H143202   2.518   5.246   0.386 -0.7666 -0.0878 -0.7041
 7237TIP3    H243203   2.503   5.098   0.415  0.4290 -0.4265 -1.7398
 7238TIP3   OH243204   5.689   2.721   4.020 -0.4878  0.0671 -0.3886
 7238TIP3    H143205   5.599   2.742   4.045  0.3523  1.6096  1.6578
 7238TIP3    H243206   5.707   2.775   3.943 -0.7492  1.1645  0.3093
 7239TIP3   OH243207   5.940   3.405   3.353 -0.8821  0.8310 -0.4698
 7239TIP3    H143208   6.030   3.428   3.373 -0.6665  1.8643 -2.4673
 7239TIP3    H243209   5.891   3.487   3.363 -1.4161  0.5203 -0.4568
 7240TIP3   OH243210   4.331   3.090   4.661  0.2452  0.0359  0.3872
 7240TIP3    H143211   4.426   3.097   4.651  0.0683  0.6737 -1.1096
 7240TIP3    H243212   4.306   3.170   4.706  0.4156 -0.1624  0.8414
 7241TIP3   OH243213   6.354   0.840  14.852 -0.1149  0.0157 -0.2489
 7241TIP3    H143214   6.428   0.810  14.798  0.2562 -0.0807  0.3004
 7241TIP3    H243215   6.391   0.910  14.906 -0.7897  0.9752 -0.9842
 7242TIP3   OH243216   2.644   2.033  11.811  0.0734 -0.2474  0.3909
 7242TIP3    H143217   2.727   2.065  11.846  1.0676 -2.1908 -0.0290
 7242TIP3    H243218   2.619   2.097  11.745  0.6603  0.9368  1.2838
 7243TIP3   OH243219   5.705   2.524   2.824  1.1264 -0.0306  0.0787
 7243TIP3    H143220   5.769   2.506   2.892  0.7081 -0.6178  0.3244
 7243TIP3    H243221   5.677   2.438   2.793  1.1627  0.2246 -0.7008
 7244TIP3   OH243222   2.033   6.801   5.157 -0.2745  0.1233  0.0168
 7244TIP3    H143223   2.059   6.789   5.248 -1.0198 -0.1755  0.1979
 7244TIP3    H243224   2.012   6.895   5.150  1.3548  0.5000 -0.2831
 7245TIP3   OH243225   0.945   6.091   1.181  0.0610 -0.0252 -0.1109
 7245TIP3    H143226   0.973   6.087   1.273 -1.1614  1.8931  0.3962
 7245TIP3    H243227   0.854   6.062   1.183  0.6057 -2.0161 -1.0953
 7246TIP3   OH243228   6.746   1.402   4.184 -0.1651 -0.0866 -0.5128
 7246TIP3    H143229   6.662   1.360   4.165 -0.6469  0.9986 -0.8722
 7246TIP3    H243230   6.787   1.415   4.098  0.7802 -1.3713 -0.2925
 7247TIP3   OH243231   1.884   2.780   1.333  0.5444  0.5455 -0.4667
 7247TIP3    H143232   1.907   2.738   1.250  0.4750  1.0287 -0.7316
 7247TIP3    H243233   1.800   2.740   1.357  0.4549  0.5661 -0.7403
 7248TIP3   OH243234   3.976   4.662   3.026 -0.2286 -0.3314  0.2810
 7248TIP3    H143235   3.962   4.646   3.120 -0.4484  3.5174  1.0538
 7248TIP3    H243236   3.898   4.710   2.998  0.4355 -0.2502 -1.5688
 7249TIP3   OH243237   1.252   1.672  11.449 -0.2245  0.1530  0.4256
 7249TIP3    H143238   1.239   1.755  11.494 -0.5623  0.2849  0.0954
 7249TIP3    H243239   1.163   1.638  11.435 -0.3190  1.1426 -2.0209
 7250TIP3   OH243240   4.678   1.166   0.697  0.4302  0.7855 -0.4340
 7250TIP3    H143241   4.625   1.088   0.684  1.9261 -0.3246 -0.1205
 7250TIP3    H243242   4.739   1.167   0.623 -0.3867  2.3924 -1.1452
 7251TIP3   OH243243   1.396   5.495  13.616 -0.6731  0.2532  0.0023
 7251TIP3    H143244   1.376   5.402  13.617 -0.2910  0.1647 -0.3135
 7251TIP3    H243245   1.336   5.533  13.680 -0.0928 -0.3492  0.9189
 7252TIP3   OH243246   6.471   0.199  10.552 -0.1785 -0.1352 -0.1150
 7252TIP3    H143247   6.434   0.111  10.559 -0.1097 -0.1655 -0.1275
 7252TIP3    H243248   6.407   0.248  10.501 -0.5833  0.0304  0.5390
 7253TIP3   OH243249   0.178   2.885   3.221  0.4251  0.3095 -0.2243
 7253TIP3    H143250   0.239   2.878   3.294  1.6949 -0.9405 -1.3354
 7253TIP3    H243251   0.229   2.858   3.144 -0.9706  1.1573 -1.5221
 7254TIP3   OH243252   3.712   5.239   3.223 -0.4350 -0.8154 -0.0880
 7254TIP3    H143253   3.794   5.226   3.271  0.6326 -0.3014 -1.6760
 7254TIP3    H243254   3.643   5.213   3.284  0.8404 -0.1325  1.7179
 7255TIP3   OH243255   6.704   3.789   0.164 -0.4434  0.6782  0.0599
 7255TIP3    H143256   6.623   3.743   0.143 -0.1975 -0.4765  1.5045
 7255TIP3    H243257   6.679   3.882   0.162 -1.0399  0.5388 -2.5103
 7256TIP3   OH243258   0.452   1.296  10.700 -0.3621 -0.0906  0.5598
 7256TIP3    H143259   0.365   1.299  10.660  0.1817 -0.0028 -0.6439
 7256TIP3    H243260   0.450   1.216  10.753 -0.9085 -0.5279 -0.0975
 7257TIP3   OH243261   1.059   1.852  11.868  0.0391  0.2864 -0.1187
 7257TIP3    H143262   0.983   1.796  11.851 -1.0863  1.3461  1.1603
 7257TIP3    H243263   1.047   1.926  11.809 -0.2036  0.6919  0.4315
 7258TIP3   OH243264   3.031   5.135  16.242 -0.2268 -0.3707 -0.3983
 7258TIP3    H143265   2.965   5.140  16.172 -1.0794 -2.1165  0.2084
 7258TIP3    H243266   3.023   5.218  16.289 -1.9735 -0.5060 -0.3841
 7259TIP3   OH243267   6.434   1.490  15.609 -0.0201  0.0273  0.4415
 7259TIP3    H143268   6.346   1.468  15.640  0.1627 -0.7653  0.4310
 7259TIP3    H243269   6.447   1.432  15.534  0.2372  0.6530  0.0021
 7260TIP3   OH243270   1.914   2.871  12.655 -0.2146 -0.3693  0.4478
 7260TIP3    H143271   1.986   2.927  12.682 -0.5340  0.9855 -1.3134
 7260TIP3    H243272   1.835   2.924  12.668 -0.5704 -0.5627 -0.7469
 7261TIP3   OH243273   1.633   5.710  11.261  0.1440  0.5049 -0.3912
 7261TIP3    H143274   1.585   5.771  11.317 -0.4344 -0.1822 -0.1259
 7261TIP3    H243275   1.632   5.752  11.175 -0.3104  0.8354 -0.2314
 7262TIP3   OH243276   0.463   5.886   5.345  0.2049  1.0336 -0.3543
 7262TIP3    H143277   0.400   5.844   5.405 -0.0876  1.8043 -0.1167
 7262TIP3    H243278   0.525   5.930   5.403  0.2791  1.2690 -0.6108
 7263TIP3   OH243279   3.714   5.154   3.555 -0.5961 -0.8228  0.0164
 7263TIP3    H143280   3.733   5.227   3.615 -1.5912 -0.4158 -0.1579
 7263TIP3    H243281   3.649   5.189   3.494 -1.2838 -1.9392  0.0946
 7264TIP3   OH243282   4.682   0.665  11.841  0.1693 -0.4550  0.2199
 7264TIP3    H143283   4.651   0.676  11.751 -0.7023 -0.2976  0.5339
 7264TIP3    H243284   4.750   0.731  11.851 -0.8217  0.5962  0.1694
 7265TIP3   OH243285   6.009   5.217  14.630 -0.7136 -0.4344  0.0745
 7265TIP3    H143286   6.079   5.156  14.604 -0.3872  0.8346 -2.3865
 7265TIP3    H243287   5.939   5.201  14.565 -1.7415 -0.0284  1.0504
 7266TIP3   OH243288   6.591   6.185  15.718 -0.0467  0.2147  0.2471
 7266TIP3    H143289   6.652   6.112  15.724 -1.5051 -1.1849 -1.1270
 7266TIP3    H243290   6.630   6.243  15.653  0.1548 -0.3201 -0.1140
 7267TIP3   OH243291   2.815   6.275  15.553  0.5112 -0.2470 -0.2596
 7267TIP3    H143292   2.895   6.302  15.507 -0.6672 -1.1438 -3.0889
 7267TIP3    H243293   2.815   6.180  15.548 -0.7502 -0.2624 -0.3596
 7268TIP3   OH243294   1.725   6.421   4.936  0.4417 -0.5123 -0.0215
 7268TIP3    H143295   1.759   6.380   5.016  1.0163  0.0028  0.0060
 7268TIP3    H243296   1.773   6.503   4.929 -0.0769 -0.2465 -0.5464
 7269TIP3   OH243297   3.826   0.379  17.184 -0.6001 -0.3568  0.2920
 7269TIP3    H143298   3.919   0.394  17.201 -0.8809 -0.5855  2.1711
 7269TIP3    H243299   3.780   0.433  17.248 -1.7868 -0.4386 -0.4462
 7270TIP3   OH243300   2.068   6.359   4.306 -0.1020 -0.0015  0.0996
 7270TIP3    H143301   2.146   6.318   4.343  0.3037  0.6257 -0.0371
 7270TIP3    H243302   2.088   6.453   4.307 -1.1955  0.2422  0.8470
 7271TIP3   OH243303   2.583   3.364   2.422 -0.2214  0.0031 -0.0707
 7271TIP3    H143304   2.529   3.312   2.362 -0.1254  0.7212 -0.7851
 7271TIP3    H243305   2.537   3.448   2.429  0.4827  0.4072 -0.2185
 7272TIP3   OH243306   1.442   4.040  10.850 -0.4821  0.7753  0.7445
 7272TIP3    H143307   1.523   4.036  10.799 -0.6768  2.0664  0.3134
 7272TIP3    H243308   1.440   3.956  10.897  1.7585  1.2270  1.7691
 7273TIP3   OH243309   2.116   0.460  13.707  0.3204  0.0050 -0.2179
 7273TIP3    H143310   2.178   0.396  13.743  0.1928 -0.3327 -0.5828
 7273TIP3    H243311   2.033   0.412  13.703  0.0866  0.3874  0.0692
 7274TIP3   OH243312   6.703   1.893   6.078 -0.6425 -0.3236 -0.3385
 7274TIP3    H143313   6.704   1.913   6.171 -0.6464 -1.7302 -0.0168
 7274TIP3    H243314   6.752   1.965   6.037  0.5610 -0.4013  0.8970
 7275TIP3   OH243315   2.600   0.485   6.807  0.6288 -0.4018  0.0109
 7275TIP3    H143316   2.595   0.576   6.781  1.7923 -0.2897  0.1126
 7275TIP3    H243317   2.572   0.436   6.730  4.6477 -0.1134 -1.9021
 7276TIP3   OH243318   4.707   4.055   5.574  0.0521 -0.2210 -0.0382
 7276TIP3    H143319   4.709   4.094   5.661  3.2228  0.8974 -0.4721
 7276TIP3    H243320   4.690   4.129   5.515  2.0299 -0.1440 -0.5855
 7277TIP3   OH243321   1.148   1.987   1.601 -0.6439 -0.4547 -0.2444
 7277TIP3    H143322   1.103   1.941   1.672 -1.2985 -0.5451 -0.7047
 7277TIP3    H243323   1.206   2.049   1.645 -2.6602  1.0793  0.4061
 7278TIP3   OH243324   0.259   4.238   4.868 -0.4490  0.4234  0.3150
 7278TIP3    H143325   0.333   4.178   4.871 -1.4367 -0.9449 -0.9413
 7278TIP3    H243326   0.287   4.314   4.918  0.8690 -1.0632  1.9471
 7279TIP3   OH243327   0.735   2.050   2.821 -0.2104  0.1530 -0.1710
 7279TIP3    H143328   0.752   2.051   2.915 -0.8036  1.1663 -0.0489
 7279TIP3    H243329   0.815   2.015   2.782  0.1351 -0.0530  0.6886
 7280TIP3   OH243330   0.318   6.520   5.575  0.7711 -0.2855 -0.4150
 7280TIP3    H143331   0.375   6.444   5.562  3.5851  1.7557 -1.0151
 7280TIP3    H243332   0.353   6.564   5.652  0.0450  1.0763 -0.8250
 7281TIP3   OH243333   2.686   5.371   1.966  0.4707 -0.5049 -0.1698
 7281TIP3    H143334   2.660   5.402   1.879  1.1678 -0.3700 -0.3372
 7281TIP3    H243335   2.674   5.276   1.962  0.3694 -0.4852 -0.3660
 7282TIP3   OH243336   6.210   2.294   0.128 -0.6487  0.5060  0.4876
 7282TIP3    H143337   6.291   2.279   0.079  0.3503  1.2786  1.8397
 7282TIP3    H243338   6.239   2.321   0.215 -2.3666  0.8336  0.9981
 7283TIP3   OH243339   0.674   2.602   1.586  0.0364 -0.3359 -0.2071
 7283TIP3    H143340   0.614   2.632   1.653 -0.4609 -0.1098 -0.7411
 7283TIP3    H243341   0.761   2.613   1.624 -0.2190  0.2099  0.2281
 7284TIP3   OH243342   0.649   0.250  12.453  0.3064 -0.3257 -0.5742
 7284TIP3    H143343   0.685   0.179  12.399  0.6689 -1.1689  0.7220
 7284TIP3    H243344   0.556   0.230  12.460  0.2946 -0.3260 -0.7301
 7285TIP3   OH243345   4.695   1.450   3.395 -0.1324 -0.1241  0.6758
 7285TIP3    H143346   4.659   1.490   3.474  1.1687 -0.0166  1.2378
 7285TIP3    H243347   4.757   1.384   3.428 -0.0782 -0.5555 -0.2527
 7286TIP3   OH243348   5.144   1.121   1.940 -0.3600  0.0728  0.2320
 7286TIP3    H143349   5.182   1.150   2.023  0.8117  0.3898 -0.3950
 7286TIP3    H243350   5.068   1.068   1.966 -0.2347  0.4711  1.4889
 7287TIP3   OH243351   4.911   1.388   5.621  0.0494 -0.5694  0.0805
 7287TIP3    H143352   4.897   1.475   5.658 -1.1412 -0.6552 -0.1368
 7287TIP3    H243353   4.826   1.345   5.626  0.7725 -2.0028  0.8581
 7288TIP3   OH243354   3.647   0.270  11.819 -0.2624 -0.0316  0.0063
 7288TIP3    H143355   3.647   0.203  11.887 -1.7525 -0.3414 -0.2556
 7288TIP3    H243356   3.684   0.227  11.742 -0.9716 -0.4893 -0.0868
 7289TIP3   OH243357   5.244   6.319   1.831 -0.0661  0.0668  0.3437
 7289TIP3    H143358   5.316   6.375   1.802  0.8570  0.4400  3.0707
 7289TIP3    H243359   5.268   6.231   1.800  0.9119  0.4000  0.1327
 7290TIP3   OH243360   0.973   1.936   0.537 -0.0261 -0.3300  0.4384
 7290TIP3    H143361   0.920   1.876   0.588 -0.6528  0.6108  0.9195
 7290TIP3    H243362   1.063   1.905   0.548 -0.4106 -1.7099 -0.0780
 7291TIP3   OH243363   4.795   1.981   5.141  0.0621 -0.5226  0.1373
 7291TIP3    H143364   4.765   1.895   5.169 -1.6997 -0.2058 -0.6929
 7291TIP3    H243365   4.731   2.042   5.175  1.6242  0.5704  1.2549
 7292TIP3   OH243366   2.155   0.478   0.326 -0.1781 -0.5583  0.5079
 7292TIP3    H143367   2.134   0.406   0.386 -2.5328  0.7503  1.3728
 7292TIP3    H243368   2.094   0.467   0.254  0.2731 -0.1012  0.0506
 7293TIP3   OH243369   4.845   5.148  14.207 -0.1913  0.0694  0.8127
 7293TIP3    H143370   4.917   5.111  14.156  0.1982  1.3373  0.3941
 7293TIP3    H243371   4.789   5.073  14.227  0.5179 -0.7258 -0.0510
 7294TIP3   OH243372   3.327   4.328   2.104 -0.2103 -0.7801  1.0724
 7294TIP3    H143373   3.365   4.406   2.062  2.2248 -1.0162  2.6234
 7294TIP3    H243374   3.233   4.343   2.101 -0.0895  0.2135 -2.4018
 7295TIP3   OH243375   0.688   5.095   2.938  0.0873 -0.8721 -0.5910
 7295TIP3    H143376   0.781   5.117   2.941 -0.3348  0.9506  0.9400
 7295TIP3    H243377   0.653   5.150   2.868 -0.3160  0.7690  0.8254
 7296TIP3   OH243378   0.951   0.554  15.230 -0.0970  0.0681 -0.2600
 7296TIP3    H143379   0.891   0.513  15.168  1.2903 -0.5484 -1.2631
 7296TIP3    H243380   0.937   0.648  15.219  0.1723 -0.0288 -1.5913
 7297TIP3   OH243381   3.984   1.550   3.832  0.3306  0.6758  0.6511
 7297TIP3    H143382   4.029   1.620   3.878  2.9812 -0.1254 -0.5287
 7297TIP3    H243383   3.978   1.479   3.896  2.0911  0.3104  0.4639
 7298TIP3   OH243384   4.978   0.838  12.860 -0.2380 -0.1511  0.5103
 7298TIP3    H143385   5.016   0.770  12.804 -2.0880  0.2261 -1.3559
 7298TIP3    H243386   5.049   0.900  12.874  0.7846 -1.2006  0.1216
 7299TIP3   OH243387   6.009   2.638  11.963  0.4864 -0.0019  0.0543
 7299TIP3    H143388   5.994   2.649  12.057  0.0193 -0.1096 -0.0089
 7299TIP3    H243389   6.084   2.578  11.958 -0.0682 -0.7242  0.3466
 7300TIP3   OH243390   6.658   4.396  11.224  0.0534  0.5785  0.2797
 7300TIP3    H143391   6.649   4.342  11.303  0.6634 -1.3638 -0.8864
 7300TIP3    H243392   6.572   4.434  11.210 -0.3378  0.0997  1.3074
 7301TIP3   OH243393   1.545   6.560  12.419  0.0451 -0.2210 -0.3234
 7301TIP3    H143394   1.536   6.597  12.331  0.3269 -2.4006 -1.3349
 7301TIP3    H243395   1.472   6.499  12.427 -0.2684  0.3201  1.1851
 7302TIP3   OH243396   1.667   0.527  12.986 -0.4809 -0.1546 -0.4822
 7302TIP3    H143397   1.606   0.462  12.952  0.4121 -0.2492 -1.9874
 7302TIP3    H243398   1.682   0.586  12.912 -0.7063  1.3600  0.6321
 7303TIP3   OH243399   4.565   5.920  16.534 -0.4402 -0.8424  0.2852
 7303TIP3    H143400   4.521   5.995  16.494  0.3212 -0.4135  0.2317
 7303TIP3    H243401   4.545   5.847  16.476  0.0458 -0.3737 -0.4926
 7304TIP3   OH243402   2.878   0.233  15.645  0.2888  0.7258 -0.2984
 7304TIP3    H143403   2.921   0.312  15.612  1.0827 -0.1096 -1.3145
 7304TIP3    H243404   2.790   0.237  15.610  1.0203  0.0136 -2.3412
 7305TIP3   OH243405   3.819   2.344   3.294 -0.1576 -0.2519 -0.1123
 7305TIP3    H143406   3.845   2.270   3.239 -0.7398 -2.2093  2.0473
 7305TIP3    H243407   3.754   2.306   3.355  1.0628  1.4899  2.4529
 7306TIP3   OH243408   6.128   5.520   5.024  0.5398 -0.1965 -0.1744
 7306TIP3    H143409   6.145   5.433   5.060 -0.6977 -0.3370  0.1245
 7306TIP3    H243410   6.156   5.514   4.933 -0.4404 -1.2141 -0.4279
 7307TIP3   OH243411   4.314   1.318   5.504  0.7628 -0.6385 -0.8433
 7307TIP3    H143412   4.262   1.294   5.581  1.4322 -2.2235 -0.8411
 7307TIP3    H243413   4.308   1.242   5.447  2.4267 -0.5556 -1.1841
 7308TIP3   OH243414   2.613   5.431   6.209  0.0030 -0.1476  0.0575
 7308TIP3    H143415   2.564   5.482   6.273  0.2412  0.4551 -0.2339
 7308TIP3    H243416   2.595   5.340   6.232 -0.6330  0.0653  0.4254
 7309TIP3   OH243417   3.888   3.953   4.967 -0.0437  0.0730 -0.5943
 7309TIP3    H143418   3.950   3.963   4.894  0.3214  1.6715 -0.0990
 7309TIP3    H243419   3.903   4.030   5.022 -1.8160  0.0016  0.0446
 7310TIP3   OH243420   0.766   4.999   0.833  0.3061  0.3834 -0.5746
 7310TIP3    H143421   0.747   4.937   0.763  0.5166 -1.2368  0.7386
 7310TIP3    H243422   0.746   4.952   0.914 -1.0394  2.5692  0.4760
 7311TIP3   OH243423   1.117   5.250   5.918  0.6173  0.4440  1.1623
 7311TIP3    H143424   1.148   5.200   5.994  1.9628 -0.9916 -0.2449
 7311TIP3    H243425   1.170   5.330   5.919 -1.4417  1.9512  3.3396
 7312TIP3   OH243426   4.686   5.169   3.547 -0.2726  0.2813 -0.1624
 7312TIP3    H143427   4.693   5.261   3.521 -1.3009  1.0443  2.0652
 7312TIP3    H243428   4.756   5.126   3.498  0.2124  2.2206 -1.3055
 7313TIP3   OH243429   4.118   2.549  13.323 -0.0285  0.6893  0.2589
 7313TIP3    H143430   4.200   2.577  13.283  0.7780 -0.3304  1.1416
 7313TIP3    H243431   4.054   2.551  13.251  1.0034  0.4881 -0.6831
 7314TIP3   OH243432   3.233   2.750   3.737 -0.0059 -0.2293 -0.0015
 7314TIP3    H143433   3.233   2.677   3.675  0.9220 -0.8250  0.6562
 7314TIP3    H243434   3.252   2.708   3.822  0.0554  0.7203  0.4663
 7315TIP3   OH243435   0.380   4.773  16.986  0.3239  0.1671 -0.0517
 7315TIP3    H143436   0.397   4.736  17.073 -0.7835 -0.4925 -0.0869
 7315TIP3    H243437   0.375   4.867  17.001  1.4742  0.1824  0.3527
 7316TIP3   OH243438   4.836   3.190  16.440  0.4753  0.6310  0.5043
 7316TIP3    H143439   4.836   3.140  16.359  1.1279  2.4345 -0.6793
 7316TIP3    H243440   4.756   3.164  16.485 -1.9569  2.2912 -2.4963
 7317TIP3   OH243441   5.917   6.332  13.418  0.0094 -0.5872  0.0772
 7317TIP3    H143442   5.915   6.428  13.411 -0.4045 -0.6428 -0.6853
 7317TIP3    H243443   5.976   6.304  13.348  1.4735 -0.8147  1.3618
 7318TIP3   OH243444   4.871   1.353  11.255 -0.1859  0.4104  1.2935
 7318TIP3    H143445   4.789   1.311  11.281  0.0707 -0.5640  0.5907
 7318TIP3    H243446   4.856   1.447  11.271 -1.6820  0.3319  0.5457
 7319TIP3   OH243447   3.838   2.885   3.164 -0.3295  0.4321  0.4982
 7319TIP3    H143448   3.838   2.790   3.174 -1.3749  0.1644 -1.5866
 7319TIP3    H243449   3.774   2.917   3.228 -0.6324 -0.3409  0.5833
 7320TIP3   OH243450   2.462   1.418  16.504  0.1191  0.1924  0.6483
 7320TIP3    H143451   2.549   1.443  16.475 -0.5374  0.4571 -1.2941
 7320TIP3    H243452   2.460   1.323  16.496  0.1435  0.2140  0.3603
 7321TIP3   OH243453   2.000   4.444   0.650 -0.2038 -0.4053 -0.3382
 7321TIP3    H143454   2.089   4.410   0.651 -0.4889 -1.1671 -0.5179
 7321TIP3    H243455   1.949   4.379   0.602 -0.4631  1.0399 -2.1372
 7322TIP3   OH243456   3.178   0.518   4.324 -0.3332  0.4263 -0.9058
 7322TIP3    H143457   3.169   0.563   4.408 -0.1665 -1.5787  0.2373
 7322TIP3    H243458   3.120   0.566   4.265  0.5174  2.6844 -0.0366
 7323TIP3   OH243459   1.390   0.463  15.865  0.6171 -0.6251  0.1352
 7323TIP3    H143460   1.472   0.438  15.823  0.3817 -0.3591 -0.4890
 7323TIP3    H243461   1.406   0.549  15.902 -0.5188  1.3372 -3.4467
 7324TIP3   OH243462   3.556   0.991  15.663  0.2760 -0.5136  0.7288
 7324TIP3    H143463   3.563   1.084  15.684 -0.8966 -0.6872  1.9739
 7324TIP3    H243464   3.555   0.988  15.567 -1.4801  0.9242  0.6641
 7325TIP3   OH243465   2.993   0.356  14.179 -0.2821  0.0907  0.1035
 7325TIP3    H143466   2.983   0.296  14.253 -2.3556  0.5253  0.2418
 7325TIP3    H243467   2.909   0.350  14.132 -0.1116  1.9975 -0.5283
 7326TIP3   OH243468   5.513   5.507   5.561 -0.0242 -0.1527  0.0622
 7326TIP3    H143469   5.536   5.447   5.632 -0.3208 -0.5135 -0.1447
 7326TIP3    H243470   5.598   5.532   5.523  0.0600 -1.0784 -0.3729
 7327TIP3   OH243471   2.639   3.328  17.201 -1.1704  0.1754 -0.3227
 7327TIP3    H143472   2.644   3.405  17.144  0.3112  1.3717  1.3043
 7327TIP3    H243473   2.560   3.342  17.253 -1.1382  0.3958 -0.3305
 7328TIP3   OH243474   4.355   2.233  14.880 -0.1312 -0.3941  0.0044
 7328TIP3    H143475   4.358   2.138  14.891 -1.1982 -0.3255  1.1024
 7328TIP3    H243476   4.437   2.254  14.835  1.1537 -1.5878  1.6406
 7329TIP3   OH243477   2.016   1.153   2.756  1.1640  0.1044  0.1998
 7329TIP3    H143478   1.980   1.110   2.834 -0.8142  2.4414  0.7165
 7329TIP3    H243479   1.970   1.113   2.683  0.0529  0.6159  0.5912
 7330TIP3   OH243480   4.825   4.114   2.587 -0.0663  0.4132  0.1383
 7330TIP3    H143481   4.842   4.064   2.667 -0.4099  0.5489  0.3001
 7330TIP3    H243482   4.819   4.205   2.617 -1.0363  0.3723  0.0883
 7331TIP3   OH243483   2.530   5.767  16.069 -0.8592 -0.2177  0.1470
 7331TIP3    H143484   2.498   5.825  16.000  1.7309  0.0808 -0.9180
 7331TIP3    H243485   2.506   5.679  16.039 -2.5753  0.0858  0.5232
 7332TIP3   OH243486   4.306   6.431  16.100  0.0963  0.1172  0.5632
 7332TIP3    H143487   4.247   6.503  16.080 -1.2573 -0.4067  2.3785
 7332TIP3    H243488   4.294   6.415  16.194  3.8760  0.5996  1.2700
 7333TIP3   OH243489   4.254   5.771   4.531 -0.1754 -0.4187  0.4390
 7333TIP3    H143490   4.162   5.777   4.504 -0.0669  0.1391  0.1694
 7333TIP3    H243491   4.254   5.803   4.622  0.0861  2.0123 -0.3299
 7334TIP3   OH243492   6.770   2.619  15.594  0.4446 -0.2861  0.1232
 7334TIP3    H143493   6.680   2.609  15.626  0.2454 -0.4216 -0.4688
 7334TIP3    H243494   6.762   2.676  15.518  0.9035 -0.0418  0.2591
 7335TIP3   OH243495   4.689   3.206   5.464  0.3454  0.5912 -0.3358
 7335TIP3    H143496   4.708   3.132   5.407 -0.0715 -0.3464  0.6931
 7335TIP3    H243497   4.742   3.277   5.430  1.3074 -0.3788 -0.9317
 7336TIP3   OH243498   2.179   6.466  12.273 -0.3245  0.3690  0.0767
 7336TIP3    H143499   2.112   6.406  12.305 -1.9186  1.6800 -0.6251
 7336TIP3    H243500   2.135   6.517  12.205  1.4090  1.2804 -0.4316
 7337TIP3   OH243501   5.182   0.148   6.028  0.4729 -0.3275  0.2191
 7337TIP3    H143502   5.236   0.226   6.014 -1.9023  1.2192 -0.8405
 7337TIP3    H243503   5.208   0.116   6.115  3.9204 -0.4543 -0.7009
 7338TIP3   OH243504   1.547   5.200   3.600 -0.1441 -0.3431  0.6907
 7338TIP3    H143505   1.540   5.292   3.626  1.7087 -0.5593  2.1550
 7338TIP3    H243506   1.539   5.202   3.505  1.6549  1.5769  0.5005
 7339TIP3   OH243507   3.109   5.229   1.587  0.6686  0.0606  0.0744
 7339TIP3    H143508   3.048   5.172   1.633  1.0993  0.2257  0.8723
 7339TIP3    H243509   3.139   5.177   1.513  0.1235 -0.2879  0.0917
 7340TIP3   OH243510   5.048   6.530  13.183  0.5178 -1.0197 -0.0500
 7340TIP3    H143511   5.140   6.557  13.184  0.5701 -1.1848  0.8197
 7340TIP3    H243512   5.029   6.509  13.092  0.5811  1.5854 -0.7548
 7341TIP3   OH243513   6.104   1.968  12.246  0.3568  0.0226  0.9521
 7341TIP3    H143514   6.137   1.981  12.334  1.6434 -3.0495  1.0395
 7341TIP3    H243515   6.025   1.915  12.258 -1.9236  3.0744  0.4183
 7342TIP3   OH243516   0.237   1.991   3.617  0.1240 -0.0726  0.5879
 7342TIP3    H143517   0.205   2.064   3.564  0.1716  0.8044  1.7307
 7342TIP3    H243518   0.281   2.032   3.691  3.0495 -1.2406 -0.3615
 7343TIP3   OH243519   3.622   1.356  10.886 -0.2916 -0.1947  0.0465
 7343TIP3    H143520   3.633   1.274  10.935 -1.4819  0.7918  2.1064
 7343TIP3    H243521   3.681   1.418  10.929  0.2074  0.1827 -1.1511
 7344TIP3   OH243522   5.885   1.798   3.991  0.0257  0.4400 -0.1433
 7344TIP3    H143523   5.934   1.778   4.071  0.3972  1.3548 -0.1270
 7344TIP3    H243524   5.952   1.807   3.924 -0.1309  1.4034 -0.1859
 7345TIP3   OH243525   5.407   5.679   5.742  0.4064 -0.0199 -0.4853
 7345TIP3    H143526   5.421   5.630   5.823 -0.4597 -0.5682 -0.6600
 7345TIP3    H243527   5.448   5.626   5.674  1.0993  0.4208 -0.4189
 7346TIP3   OH243528   5.217   3.511   0.255 -0.1341  0.0110 -0.1530
 7346TIP3    H143529   5.229   3.597   0.295 -2.9154  0.7680 -0.7417
 7346TIP3    H243530   5.266   3.516   0.173 -0.8572  1.3423 -0.5345
 7347TIP3   OH243531   1.277   3.832   6.044 -0.3343 -0.2517  0.1321
 7347TIP3    H143532   1.306   3.761   5.987 -0.5860 -0.5026  0.3122
 7347TIP3    H243533   1.186   3.810   6.064  0.2045 -1.0399  1.9342
 7348TIP3   OH243534   4.749   6.288   0.788  0.2608  0.2737  0.2877
 7348TIP3    H143535   4.811   6.257   0.854  0.6783 -0.8490 -0.6159
 7348TIP3    H243536   4.793   6.363   0.748  1.7919 -1.4241 -1.4078
 7349TIP3   OH243537   2.873   5.597   1.960  0.8275 -0.1001  0.5832
 7349TIP3    H143538   2.872   5.516   2.010  0.5739 -0.2436  0.3509
 7349TIP3    H243539   2.789   5.639   1.981  0.1257 -0.7819 -0.7074
 7350TIP3   OH243540   0.235   5.083   0.642  0.0317  0.3968 -0.0200
 7350TIP3    H143541   0.286   5.146   0.692  1.3922  0.6384 -1.6293
 7350TIP3    H243542   0.144   5.103   0.664  0.5364 -0.1010  3.0080
 7351TIP3   OH243543   0.306   6.335   0.032 -0.2151 -0.7352  0.3383
 7351TIP3    H143544   0.267   6.248   0.030 -1.1231 -0.3510  0.7774
 7351TIP3    H243545   0.394   6.321   0.068  0.1482 -1.6333 -0.8442
 7352TIP3   OH243546   0.225   3.355  12.887  0.5867  0.3885 -0.1314
 7352TIP3    H143547   0.246   3.444  12.860  1.0519  0.1369 -0.6374
 7352TIP3    H243548   0.254   3.301  12.813  0.3069 -0.1767  0.1697
 7353TIP3   OH243549   3.830   3.192   1.670 -0.4798 -0.0061  0.0266
 7353TIP3    H143550   3.762   3.259   1.667 -1.5289 -1.0329  0.0106
 7353TIP3    H243551   3.909   3.236   1.638 -1.0735  1.2706  0.2474
 7354TIP3   OH243552   4.974   1.971   0.235 -0.1767 -0.8781  0.2342
 7354TIP3    H143553   4.922   1.906   0.282 -0.4722 -0.3548  0.6439
 7354TIP3    H243554   4.998   2.036   0.302  0.1431 -0.5868 -0.1586
 7355TIP3   OH243555   5.648   4.872   2.843  0.1469 -0.2119  0.2337
 7355TIP3    H143556   5.556   4.859   2.867 -0.3014  0.8329 -0.8173
 7355TIP3    H243557   5.664   4.805   2.776  0.4908 -1.0944  1.1673
 7356TIP3   OH243558   6.515   2.621  13.039  0.1425  0.4266 -0.1396
 7356TIP3    H143559   6.425   2.649  13.021  0.1900  0.5146 -0.2371
 7356TIP3    H243560   6.570   2.682  12.991  0.2624  0.5204  0.1131
 7357TIP3   OH243561   4.006   0.925   5.359 -0.4547 -0.4112  0.5761
 7357TIP3    H143562   3.917   0.911   5.390  0.0241 -1.5784  1.5206
 7357TIP3    H243563   4.007   0.890   5.270 -1.7544  2.6324 -0.7375
 7358TIP3   OH243564   4.501   4.461  12.940  0.0037 -0.1680 -0.3735
 7358TIP3    H143565   4.583   4.510  12.946  0.0943 -0.3070 -0.4835
 7358TIP3    H243566   4.441   4.508  12.998 -0.3419  0.9032 -1.5640
 7359TIP3   OH243567   0.673   5.705  12.634  0.5128  0.8154 -0.0019
 7359TIP3    H143568   0.724   5.753  12.700  0.6298  2.1586 -1.0379
 7359TIP3    H243569   0.622   5.773  12.589 -0.5615 -0.2430 -0.4338
 7360TIP3   OH243570   5.067   0.164  17.253 -0.2262 -0.0100 -0.3686
 7360TIP3    H143571   5.093   0.164  17.346 -0.7611  0.3765 -0.2122
 7360TIP3    H243572   4.972   0.154  17.255 -0.0645 -1.9464 -0.9494
 7361TIP3   OH243573   1.821   5.244  14.559 -0.2942  0.2898 -0.3004
 7361TIP3    H143574   1.911   5.269  14.579  0.4626 -1.6454 -1.0654
 7361TIP3    H243575   1.776   5.245  14.644  0.8875 -0.3727  0.3535
 7362TIP3   OH243576   6.200   2.160  13.777 -0.2699  0.0792 -0.8611
 7362TIP3    H143577   6.202   2.161  13.681 -2.6813  1.6942 -1.0064
 7362TIP3    H243578   6.235   2.245  13.802 -2.7612  1.1310 -0.5905
 7363TIP3   OH243579   6.325   3.093   2.350 -0.1438 -0.5539  0.5071
 7363TIP3    H143580   6.242   3.048   2.331 -1.1577  2.1359 -2.1303
 7363TIP3    H243581   6.301   3.165   2.408  0.2700  0.3331 -0.3910
 7364TIP3   OH243582   4.929   1.307  14.337  0.0215  0.5028  0.1105
 7364TIP3    H143583   4.935   1.249  14.261  0.2712  1.5693 -0.7002
 7364TIP3    H243584   4.844   1.350  14.327 -0.4515 -0.1709  1.0576
 7365TIP3   OH243585   0.736   2.855  13.322 -0.3109  0.0969 -0.3587
 7365TIP3    H143586   0.765   2.769  13.352 -2.0837 -0.3362  0.2120
 7365TIP3    H243587   0.811   2.890  13.274  1.0068 -1.0802  0.7596
 7366TIP3   OH243588   0.798   5.528  16.983 -0.6676  0.0848 -0.5581
 7366TIP3    H143589   0.885   5.510  16.947  0.0665 -0.3480  1.3215
 7366TIP3    H243590   0.815   5.580  17.061 -1.9626 -1.3478  0.7336
 7367TIP3   OH243591   4.443   6.233  13.004  0.3333 -0.2021  0.6161
 7367TIP3    H143592   4.402   6.299  13.061  0.3864  1.4018 -1.0974
 7367TIP3    H243593   4.461   6.280  12.922  0.3644 -2.3859 -0.7004
 7368TIP3   OH243594   4.896   2.981   0.930  0.1473  0.4435  0.3316
 7368TIP3    H143595   4.821   2.956   0.875  0.0806  0.1296  0.5633
 7368TIP3    H243596   4.927   3.064   0.892 -1.9408  2.0022  1.7697
 7369TIP3   OH243597   3.930   6.263  15.679 -0.2520  0.0328 -0.1631
 7369TIP3    H143598   4.009   6.277  15.626 -0.2685  0.4476 -0.0842
 7369TIP3    H243599   3.928   6.338  15.739 -0.7676  0.0886 -0.2444
 7370TIP3   OH243600   4.208   0.104  17.256 -0.4652 -0.3973  0.1414
 7370TIP3    H143601   4.132   0.054  17.285  0.1216 -0.7263  1.1328
 7370TIP3    H243602   4.282   0.066  17.303  0.4333 -0.5167 -1.3044
 7371TIP3   OH243603   1.084   6.385   3.746 -0.0187  0.0414 -0.2704
 7371TIP3    H143604   1.091   6.472   3.786 -0.8694  0.1361 -0.3057
 7371TIP3    H243605   1.015   6.394   3.681  1.6404 -0.0000 -2.1160
 7372TIP3   OH243606   0.206   2.143  17.018  0.1766  0.2745  0.5437
 7372TIP3    H143607   0.204   2.194  16.937 -1.5232 -0.2094  0.2367
 7372TIP3    H243608   0.179   2.204  17.086  0.8045  0.4729  0.6162
 7373TIP3   OH243609   4.720   3.827   3.321 -0.0237 -0.2379 -0.0733
 7373TIP3    H143610   4.658   3.812   3.393  0.5310 -0.8239  0.2936
 7373TIP3    H243611   4.773   3.901   3.350  0.8848 -1.1249  0.6077
 7374TIP3   OH243612   3.935   5.510   6.060 -1.0552  0.3590 -0.2540
 7374TIP3    H143613   3.918   5.570   6.132 -0.6109  1.3395 -0.9447
 7374TIP3    H243614   3.963   5.566   5.988  2.6946 -0.8604  0.0556
 7375TIP3   OH243615   3.420   2.700   0.417  0.1684 -0.6315  0.5889
 7375TIP3    H143616   3.516   2.694   0.418  0.1167 -1.7393  0.5702
 7375TIP3    H243617   3.391   2.609   0.407 -0.8624 -0.1400 -1.3840
 7376TIP3   OH243618   1.692   0.727  14.970  0.0873 -0.3021  0.0493
 7376TIP3    H143619   1.606   0.730  14.927  0.1316  1.6842 -0.0203
 7376TIP3    H243620   1.733   0.810  14.946  2.0391 -1.1879  0.1175
 7377TIP3   OH243621   1.304   2.270   0.712 -0.1554  0.2899  0.2543
 7377TIP3    H143622   1.213   2.292   0.692 -0.7095 -1.4271  0.6549
 7377TIP3    H243623   1.336   2.344   0.762 -1.1773  1.1415 -0.2929
 7378TIP3   OH243624   0.190   5.140  11.962  0.1715 -0.0821 -0.2343
 7378TIP3    H143625   0.283   5.122  11.944  0.7293  2.1290  0.1716
 7378TIP3    H243626   0.184   5.235  11.963 -1.9939 -0.1827  0.4752
 7379TIP3   OH243627   1.130   3.614  16.792 -0.3782  0.0634 -0.6463
 7379TIP3    H143628   1.126   3.680  16.723  1.4826  0.6812 -0.2279
 7379TIP3    H243629   1.212   3.632  16.838 -1.5285 -0.3006  1.7553
 7380TIP3   OH243630   4.105   1.619   5.746  0.0911  0.7173  0.1908
 7380TIP3    H143631   4.034   1.665   5.702 -0.5623  0.4126  0.9173
 7380TIP3    H243632   4.104   1.651   5.836  0.9860  0.8368  0.1700
 7381TIP3   OH243633   6.175   1.806   3.274  0.2042  0.2101 -0.5233
 7381TIP3    H143634   6.260   1.845   3.293 -0.1842  0.6941  0.2940
 7381TIP3    H243635   6.112   1.870   3.307 -0.4826 -0.0015 -1.4010
 7382TIP3   OH243636   3.978   2.648  17.208  0.2585  0.4216  0.5797
 7382TIP3    H143637   3.893   2.688  17.189  0.1390  0.2545  0.7648
 7382TIP3    H243638   4.035   2.679  17.137 -0.5886 -1.5468 -1.0752
 7383TIP3   OH243639   6.761   0.646  12.923 -0.6608  0.2594  0.4056
 7383TIP3    H143640   6.854   0.661  12.905  0.0002 -4.5249 -1.8368
 7383TIP3    H243641   6.715   0.690  12.850 -0.0369  1.0355  0.4675
 7384TIP3   OH243642   2.416   2.238   5.086 -0.0016 -0.2840 -0.6924
 7384TIP3    H143643   2.434   2.288   5.165 -0.5721 -2.2607  0.7851
 7384TIP3    H243644   2.503   2.220   5.049  0.2111  1.6121 -1.2084
 7385TIP3   OH243645   0.220   5.131   2.444  0.1732 -0.0664 -0.6541
 7385TIP3    H143646   0.209   5.151   2.536  0.5815 -1.6462 -0.2283
 7385TIP3    H243647   0.286   5.062   2.442  0.7274  0.4473 -2.1878
 7386TIP3   OH243648   0.767   3.958  14.684  0.0990  0.1375  0.2690
 7386TIP3    H143649   0.737   3.869  14.699  0.5075 -0.2563 -1.0787
 7386TIP3    H243650   0.861   3.956  14.702 -0.1904  0.7530  1.9998
 7387TIP3   OH243651   1.931   3.420  11.265  0.4435  0.1142 -0.5402
 7387TIP3    H143652   1.889   3.474  11.198 -0.0719  1.6096  0.9285
 7387TIP3    H243653   1.871   3.345  11.275 -2.1094  2.2261  1.5425
 7388TIP3   OH243654   4.861   1.433  15.579  0.5691 -0.2248  0.2328
 7388TIP3    H143655   4.893   1.474  15.659  0.5698 -1.1396  0.7142
 7388TIP3    H243656   4.792   1.492  15.548  1.0547  0.5002  0.5095
 7389TIP3   OH243657   3.823   0.080   1.288  0.2987 -0.3222 -0.2255
 7389TIP3    H143658   3.877   0.155   1.314 -0.3749 -0.4353  1.6901
 7389TIP3    H243659   3.804   0.034   1.370 -1.3543 -1.1931 -1.0308
 7390TIP3   OH243660   5.841   2.641   0.264  0.2422  0.0976  0.7281
 7390TIP3    H143661   5.927   2.605   0.239 -0.1774  0.2448 -1.0783
 7390TIP3    H243662   5.861   2.716   0.320  1.3021  0.1755  0.2648
 7391TIP3   OH243663   6.819   1.743  12.268 -0.2302  0.9346  0.0215
 7391TIP3    H143664   6.887   1.802  12.234 -0.0258  0.4170 -0.4757
 7391TIP3    H243665   6.854   1.655  12.254 -0.5043  0.6885  0.8327
 7392TIP3   OH243666   4.133   4.130  13.892 -0.1302  0.2907 -0.3573
 7392TIP3    H143667   4.111   4.140  13.799 -3.3016 -0.0907  0.2232
 7392TIP3    H243668   4.115   4.038  13.911 -0.1398  0.5089  0.7716
 7393TIP3   OH243669   6.066   2.937  13.202  0.1901 -0.5653  0.5208
 7393TIP3    H143670   6.094   2.868  13.262  0.8432 -0.0847  0.7892
 7393TIP3    H243671   6.040   3.009  13.259  5.5198  1.8689  0.5046
 7394TIP3   OH243672   5.712   4.813  16.702 -0.3143  0.6266 -0.0065
 7394TIP3    H143673   5.808   4.815  16.695 -0.2718  2.1910  0.5773
 7394TIP3    H243674   5.682   4.848  16.618 -0.3366  1.1627  0.2217
 7395TIP3   OH243675   4.668   4.307  14.650  0.1292 -0.1050 -0.7052
 7395TIP3    H143676   4.745   4.312  14.706  0.2598  0.0605 -0.8981
 7395TIP3    H243677   4.594   4.323  14.709  0.1443 -1.4957 -0.2851
 7396TIP3   OH243678   6.424   5.125  11.470  0.2195 -0.1947  0.5999
 7396TIP3    H143679   6.340   5.083  11.490  0.4872 -1.4736 -0.7791
 7396TIP3    H243680   6.485   5.052  11.460  1.1138  0.6277 -0.0378
 7397TIP3   OH243681   1.946   1.975   5.913 -0.3802 -0.5646 -0.3684
 7397TIP3    H143682   1.901   1.972   5.997 -0.5605  1.0762 -0.3685
 7397TIP3    H243683   1.882   2.014   5.853  0.8844  1.6569 -0.4093
 7398TIP3   OH243684   4.871   2.041  12.688  0.2833 -0.3270 -0.3947
 7398TIP3    H143685   4.854   2.128  12.652 -1.2851  0.0099  1.0465
 7398TIP3    H243686   4.950   2.052  12.742  1.4773 -0.3855 -2.0678
 7399TIP3   OH243687   6.809   4.190   5.397 -0.1150 -0.0096 -0.1090
 7399TIP3    H143688   6.870   4.254   5.433  0.0043  0.6596 -1.4255
 7399TIP3    H243689   6.804   4.212   5.304 -1.5655 -0.7091 -0.2232
 7400TIP3   OH243690   0.725   5.181   2.260  0.1258 -0.2903 -0.4480
 7400TIP3    H143691   0.658   5.160   2.194  1.3293 -0.2155 -1.7278
 7400TIP3    H243692   0.710   5.116   2.329 -1.6567  0.1183 -0.4081
 7401TIP3   OH243693   1.668   6.753  12.713 -0.7901  0.0969 -0.0625
 7401TIP3    H143694   1.613   6.809  12.658 -1.1264  0.0344  0.2097
 7401TIP3    H243695   1.756   6.766  12.679 -0.9972  0.0378 -0.6458
 7402TIP3   OH243696   4.836   3.434   5.424 -1.0648 -0.5897  0.0196
 7402TIP3    H143697   4.771   3.492   5.465 -0.1188  0.9264 -0.5398
 7402TIP3    H243698   4.826   3.450   5.330  1.3365  1.1267 -0.0176
 7403TIP3   OH243699   3.313   4.721  14.610  0.2993 -0.6432  0.1920
 7403TIP3    H143700   3.395   4.735  14.564  0.3441 -1.2106  0.0961
 7403TIP3    H243701   3.245   4.737  14.544  0.3642 -1.5452 -0.1116
 7404TIP3   OH243702   3.049   4.812  16.633  0.0699 -0.1891 -0.2796
 7404TIP3    H143703   2.959   4.810  16.601 -0.1123 -0.5412  0.2549
 7404TIP3    H243704   3.102   4.825  16.553 -0.4082 -0.6499 -0.6803
 7405TIP3   OH243705   3.709   5.449  13.258 -0.1801  1.1167  0.1869
 7405TIP3    H143706   3.720   5.498  13.177  1.0261  0.0927 -0.3024
 7405TIP3    H243707   3.626   5.402  13.247  0.5133  0.1130 -0.9496
 7406TIP3   OH243708   3.663   3.073   3.649  0.3400  0.0994  0.1860
 7406TIP3    H143709   3.577   3.032   3.663 -0.7835  1.6886 -1.5996
 7406TIP3    H243710   3.707   3.065   3.734 -0.6384 -2.7545  0.5343
 7407TIP3   OH243711   3.713   1.694   1.625  0.5112  1.0320  0.0441
 7407TIP3    H143712   3.778   1.720   1.690  0.9246  2.0430 -0.7481
 7407TIP3    H243713   3.636   1.747   1.645  0.1228  0.2836  0.5959
 7408TIP3   OH243714   3.579   1.640  16.189 -0.2239  0.4104  0.2355
 7408TIP3    H143715   3.488   1.669  16.191 -0.1172  0.7405  0.3976
 7408TIP3    H243716   3.630   1.721  16.198  0.0772  0.1753  0.6642
 7409TIP3   OH243717   3.814   3.710  11.570  0.6160  0.1742  0.0917
 7409TIP3    H143718   3.811   3.765  11.492 -0.4214 -1.7525 -1.3344
 7409TIP3    H243719   3.795   3.769  11.643 -2.1348  1.4485 -1.5077
 7410TIP3   OH243720   6.412   3.620  13.346  0.3170  0.2024 -0.1050
 7410TIP3    H143721   6.489   3.572  13.317 -0.4265 -1.7334  0.9527
 7410TIP3    H243722   6.400   3.689  13.280  1.8557 -0.5962 -1.2798
 7411TIP3   OH243723   4.620   5.996  11.128  0.4364 -0.1004 -0.3845
 7411TIP3    H143724   4.606   5.904  11.150  0.5837  0.2046  1.0879
 7411TIP3    H243725   4.698   5.996  11.072 -0.1062 -0.9436 -1.1565
 7412TIP3   OH243726   1.517   0.334  12.721 -0.2619  0.7004 -0.1048
 7412TIP3    H143727   1.495   0.403  12.658 -2.2924 -0.8533 -1.2108
 7412TIP3    H243728   1.454   0.347  12.793 -1.1082 -0.3454 -0.6277
 7413TIP3   OH243729   3.035   1.325   3.041 -0.1861  0.0168  0.1226
 7413TIP3    H143730   2.966   1.370   2.993 -0.0677  0.0102 -0.0591
 7413TIP3    H243731   3.000   1.312   3.129  0.1959  1.4578  0.5181
 7414TIP3   OH243732   6.155   4.714   5.568 -0.9369 -0.1813  0.4304
 7414TIP3    H143733   6.148   4.783   5.633  0.0083 -0.9341  1.3622
 7414TIP3    H243734   6.186   4.758   5.489 -0.2882  0.4539  1.0246
 7415TIP3   OH243735   6.512   6.122   6.136  0.2725 -0.1384 -0.5286
 7415TIP3    H143736   6.513   6.026   6.129  0.2165 -0.1129 -0.8755
 7415TIP3    H243737   6.590   6.142   6.189 -0.7193 -0.4905  1.1314
 7416TIP3   OH243738   6.065   1.763  17.233  0.6048  0.4610 -0.2984
 7416TIP3    H143739   6.024   1.809  17.159 -0.8061 -0.5532 -0.2040
 7416TIP3    H243740   6.090   1.678  17.197 -0.1659 -0.0672  0.3950
 7417TIP3   OH243741   3.994   5.190  17.247 -0.3179  0.6473 -0.1401
 7417TIP3    H143742   4.076   5.181  17.295  0.2974 -1.0458 -1.4093
 7417TIP3    H243743   3.929   5.149  17.304  0.1631 -0.1685 -0.1653
 7418TIP3   OH243744   2.484   2.655   0.068  0.1154 -0.1528 -0.4271
 7418TIP3    H143745   2.539   2.584   0.102  0.3412  1.2540  2.4699
 7418TIP3    H243746   2.396   2.615   0.063  0.8995 -1.7752 -2.9854
 7419TIP3   OH243747   1.046   0.231   6.750 -0.6096  0.1895 -0.2025
 7419TIP3    H143748   0.971   0.173   6.736 -0.0243 -0.8425  0.7320
 7419TIP3    H243749   1.118   0.187   6.705 -0.2636  0.4475  0.0887
 7420TIP3   OH243750   2.986   1.569  12.279 -0.8602  0.5487  0.1528
 7420TIP3    H143751   3.075   1.599  12.295  0.1999 -2.9739  2.0276
 7420TIP3    H243752   2.994   1.509  12.204 -1.6697  0.3542  0.2095
 7421TIP3   OH243753   2.016   2.389   4.224 -0.3300  0.4013  0.1063
 7421TIP3    H143754   2.091   2.349   4.267 -0.3010  1.2208  0.8380
 7421TIP3    H243755   1.990   2.460   4.282 -0.3945  1.4266 -1.1463
 7422TIP3   OH243756   1.987   5.010  13.024 -0.4431  0.2328 -0.4328
 7422TIP3    H143757   1.922   4.958  13.071  1.0215  0.1792  1.7116
 7422TIP3    H243758   1.937   5.083  12.987 -1.9868 -0.8035 -0.4937
 7423TIP3   OH243759   1.397   3.677  11.871  0.1508 -1.0223  0.2952
 7423TIP3    H143760   1.338   3.746  11.900  1.5297  0.2450  0.2148
 7423TIP3    H243761   1.427   3.705  11.784  0.6271 -1.8010  0.1933
 7424TIP3   OH243762   6.312   4.265  14.736  0.0228  0.3243 -0.0221
 7424TIP3    H143763   6.305   4.286  14.643  0.0469 -0.1897 -0.1462
 7424TIP3    H243764   6.224   4.278  14.771 -0.7094 -2.1977 -0.7202
 7425TIP3   OH243765   0.932   4.082  13.403 -0.0338  0.1301  0.1304
 7425TIP3    H143766   0.841   4.106  13.420 -0.5006 -1.2211 -0.2979
 7425TIP3    H243767   0.957   4.028  13.479 -0.3792 -1.4289 -0.8097
 7426TIP3   OH243768   4.554   1.568  16.567 -0.1152 -1.0921 -0.6279
 7426TIP3    H143769   4.585   1.651  16.531  0.5869  0.6534  3.4424
 7426TIP3    H243770   4.459   1.578  16.575 -0.2054 -1.2767 -1.4549
 7427TIP3   OH243771   3.163   4.990   0.355 -0.1804  0.0321  0.1171
 7427TIP3    H143772   3.119   5.006   0.272  0.9252 -0.8141 -0.6514
 7427TIP3    H243773   3.244   5.041   0.350  1.1243 -1.9603 -0.4328
 7428TIP3   OH243774   0.194   5.794   5.537 -0.2040 -0.3457  0.9420
 7428TIP3    H143775   0.232   5.708   5.525 -0.0354 -0.2918  1.0880
 7428TIP3    H243776   0.193   5.807   5.632  0.8399  0.2877  0.8850
 7429TIP3   OH243777   4.172   2.612   1.057  0.2684 -0.5856 -0.0186
 7429TIP3    H143778   4.147   2.520   1.072  0.0551 -0.5131  0.0777
 7429TIP3    H243779   4.268   2.612   1.062  0.2447 -0.7092  0.5420
 7430TIP3   OH243780   0.206   0.800   5.608 -0.4187 -0.4055  0.4466
 7430TIP3    H143781   0.139   0.735   5.591  0.8454 -1.5659 -0.3229
 7430TIP3    H243782   0.231   0.832   5.521  0.1482 -0.1359  0.7012
 7431TIP3   OH243783   3.789   4.966   5.721 -0.1215 -0.0363  0.5653
 7431TIP3    H143784   3.719   5.005   5.773 -0.2237  1.3066 -0.5219
 7431TIP3    H243785   3.745   4.899   5.669 -0.5808  0.6481  0.0548
 7432TIP3   OH243786   1.781   6.135  15.544 -0.6515 -0.0501  0.5278
 7432TIP3    H143787   1.841   6.076  15.589 -1.7149 -1.3942  0.2651
 7432TIP3    H243788   1.709   6.148  15.607 -1.8870 -1.5152 -0.4950
 7433TIP3   OH243789   1.701   2.486   0.209 -0.3453  0.9887  0.4716
 7433TIP3    H143790   1.714   2.537   0.289 -1.2559  1.8431  0.1024
 7433TIP3    H243791   1.612   2.452   0.217  0.0569 -0.0970  0.4501
 7434TIP3   OH243792   6.595   2.974   1.732 -0.8043  0.2770 -0.0477
 7434TIP3    H143793   6.658   2.929   1.788  0.2436  1.0138 -0.5837
 7434TIP3    H243794   6.649   3.030   1.675 -1.9909  1.5829  0.0474
 7435TIP3   OH243795   1.457   5.936   3.779  0.0882 -0.0245 -0.7139
 7435TIP3    H143796   1.519   5.875   3.738  2.1312  1.0489  0.6106
 7435TIP3    H243797   1.442   6.003   3.713  0.9251  0.0791 -0.8041
 7436TIP3   OH243798   2.274   4.991   3.234 -0.3541 -0.2568 -0.5626
 7436TIP3    H143799   2.334   5.059   3.203  1.3959 -1.9692 -1.0775
 7436TIP3    H243800   2.289   4.988   3.329 -1.0246  0.5695 -0.4105
 7437TIP3   OH243801   5.639   5.162   3.751  0.2876 -0.2109 -0.1833
 7437TIP3    H143802   5.626   5.243   3.701 -1.0842 -0.9079 -1.0153
 7437TIP3    H243803   5.664   5.192   3.838  2.0558  1.0513 -1.0739
 7438TIP3   OH243804   5.328   3.346   1.209 -0.4241 -0.2147  0.1614
 7438TIP3    H143805   5.422   3.355   1.194 -0.4976 -0.7683 -0.6594
 7438TIP3    H243806   5.321   3.310   1.297  0.1924 -1.4974 -0.2991
 7439TIP3   OH243807   3.265   1.201  16.453  0.9969 -0.4635 -0.0757
 7439TIP3    H143808   3.177   1.222  16.483  0.9775  0.5251 -0.7650
 7439TIP3    H243809   3.257   1.113  16.417  0.5685 -0.8495  0.9366
 7440TIP3   OH243810   4.508   5.203  16.530 -0.3141  0.3966  0.3654
 7440TIP3    H143811   4.499   5.288  16.486 -2.2765  0.6409  1.1660
 7440TIP3    H243812   4.441   5.148  16.490  1.0941 -0.9031 -0.3185
 7441TIP3   OH243813   2.034   0.661   0.478 -0.3577 -0.3138  0.2546
 7441TIP3    H143814   2.082   0.599   0.422 -0.1347  0.1740 -0.1008
 7441TIP3    H243815   2.100   0.724   0.506 -0.7244  0.1949 -0.0023
 7442TIP3   OH243816   3.431   3.157   4.591 -0.4296 -0.0654  0.0108
 7442TIP3    H143817   3.494   3.133   4.658  0.7199 -2.1010 -1.6636
 7442TIP3    H243818   3.346   3.135   4.629 -0.0235  1.0557  1.6332
 7443TIP3   OH243819   4.164   6.486  14.630 -0.7891 -0.2032  0.5754
 7443TIP3    H143820   4.105   6.421  14.591 -1.2521 -0.7804  2.1869
 7443TIP3    H243821   4.139   6.490  14.722 -0.9836  2.5205  0.4732
 7444TIP3   OH243822   0.222   2.121  11.650 -0.2096 -0.1942  0.3611
 7444TIP3    H143823   0.275   2.056  11.603 -0.7401 -0.1666 -0.2902
 7444TIP3    H243824   0.190   2.180  11.582 -1.9892 -0.8568  0.5667
 7445TIP3   OH243825   2.511   1.106  15.940  0.0134  0.3056 -0.0555
 7445TIP3    H143826   2.582   1.054  15.903  0.6793  0.0331  1.5329
 7445TIP3    H243827   2.438   1.093  15.880  0.1144 -2.5895  0.3346
 7446TIP3   OH243828   6.001   2.423  17.000 -0.1266 -0.2499 -0.1091
 7446TIP3    H143829   5.918   2.417  17.048 -0.1949  0.5910 -0.1215
 7446TIP3    H243830   5.976   2.414  16.908 -0.0341 -1.4904 -0.0335
 7447TIP3   OH243831   3.284   4.329  12.988 -0.0106 -0.1365 -0.2316
 7447TIP3    H143832   3.210   4.306  13.044  1.9630  0.7952  3.0759
 7447TIP3    H243833   3.356   4.273  13.019  1.0585 -0.0862 -2.4010
 7448TIP3   OH243834   5.642   2.871   5.083  0.5256 -0.1313 -0.1663
 7448TIP3    H143835   5.548   2.874   5.104  0.8698  0.1225  1.4955
 7448TIP3    H243836   5.685   2.900   5.163  2.0474 -0.4595 -0.8319
 7449TIP3   OH243837   5.404   0.817   5.553  0.0555  0.0592 -0.3076
 7449TIP3    H143838   5.313   0.825   5.580  0.1020  1.4329 -0.4946
 7449TIP3    H243839   5.432   0.733   5.589 -0.7753  0.3958  1.2284
 7450TIP3   OH243840   6.650   1.914  17.225  0.0125  0.1388 -0.4220
 7450TIP3    H143841   6.671   1.979  17.157 -0.2848  0.0604 -0.5892
 7450TIP3    H243842   6.617   1.839  17.177  0.5180 -0.2064 -0.2339
 7451TIP3   OH243843   6.327   5.255  16.977 -0.0421  0.1344 -0.4080
 7451TIP3    H143844   6.301   5.164  16.962 -0.0063  0.4195 -2.4195
 7451TIP3    H243845   6.369   5.282  16.896 -1.0392  2.2823 -0.2859
 7452TIP3   OH243846   6.601   2.132   2.479 -0.3860 -0.0265  0.0173
 7452TIP3    H143847   6.643   2.218   2.486  1.5333 -0.8016 -1.1396
 7452TIP3    H243848   6.513   2.152   2.445 -1.0583  1.6395  2.4577
 7453TIP3   OH243849   0.687   1.879   0.011 -0.4025 -0.0331 -0.0641
 7453TIP3    H143850   0.621   1.846   0.072  1.0545 -0.8996  1.1260
 7453TIP3    H243851   0.689   1.813  -0.059  0.1391 -0.7459  0.6005
 7454TIP3   OH243852   5.854   6.018  12.215 -0.5664  0.2927  0.0421
 7454TIP3    H143853   5.908   6.038  12.292  0.1564 -0.8905 -0.1317
 7454TIP3    H243854   5.819   5.931  12.233 -0.3370 -0.0206 -0.9935
 7455TIP3   OH243855   0.723   2.133   6.025  0.3708  0.1841 -0.2224
 7455TIP3    H143856   0.730   2.212   6.079 -0.3375 -1.0148  1.6975
 7455TIP3    H243857   0.812   2.097   6.025  0.1809 -0.3306  1.0124
 7456TIP3   OH243858   1.904   6.439   0.386  0.6187 -0.0018  0.0931
 7456TIP3    H143859   1.854   6.517   0.410 -1.7755 -0.6780 -2.2651
 7456TIP3    H243860   1.934   6.455   0.297 -0.4621 -1.9507 -0.6914
 7457TIP3   OH243861   5.699   4.170   3.642 -0.2577 -0.4905 -0.4453
 7457TIP3    H143862   5.654   4.198   3.722  0.8959 -0.3609  0.1959
 7457TIP3    H243863   5.644   4.201   3.571 -0.1232  1.5460  0.2760
 7458TIP3   OH243864   1.980   5.523   2.495 -0.2435 -0.4650  0.0661
 7458TIP3    H143865   2.037   5.600   2.483 -0.0215 -0.3621  1.6434
 7458TIP3    H243866   1.894   5.560   2.513 -0.7348 -0.6230 -1.7630
 7459TIP3   OH243867   6.003   1.982   4.790 -0.2333  0.5921 -0.2377
 7459TIP3    H143868   5.914   1.997   4.821 -0.1808 -0.7348  0.6649
 7459TIP3    H243869   5.998   1.898   4.744  0.4565  0.7236 -0.5610
 7460TIP3   OH243870   3.253   1.482  15.727 -0.2394  0.1020 -0.2784
 7460TIP3    H143871   3.283   1.392  15.731 -0.7702 -0.0372  1.4574
 7460TIP3    H243872   3.326   1.531  15.689  0.4199 -0.8987 -0.3173
 7461TIP3   OH243873   5.064   3.667  14.838  0.2895  0.7032  0.4127
 7461TIP3    H143874   4.987   3.668  14.780  0.6515  1.6144 -0.0763
 7461TIP3    H243875   5.062   3.581  14.879 -0.8975  0.6481  0.2733
 7462TIP3   OH243876   3.082   5.300   1.938 -0.0470  0.3041 -0.1196
 7462TIP3    H143877   3.140   5.228   1.961  0.6309  1.3062  1.4636
 7462TIP3    H243878   2.995   5.263   1.939  0.3601 -0.6751 -0.1392
 7463TIP3   OH243879   0.451   1.844   3.837  0.4014 -0.9760 -0.0286
 7463TIP3    H143880   0.455   1.869   3.744  1.9571  2.0057  0.7172
 7463TIP3    H243881   0.385   1.902   3.875 -0.0575 -2.0163  0.8173
 7464TIP3   OH243882   3.382   4.289   0.309 -0.0876  0.2939 -0.2803
 7464TIP3    H143883   3.447   4.359   0.307 -1.9375  2.1164 -0.1574
 7464TIP3    H243884   3.363   4.271   0.217 -0.6583  1.0115 -0.3089
 7465TIP3   OH243885   6.608   2.637   2.823 -0.2179  0.0621 -0.5232
 7465TIP3    H143886   6.610   2.647   2.728 -0.1593  0.6063 -0.4666
 7465TIP3    H243887   6.695   2.602   2.845  0.4873  1.7749 -0.4774
 7466TIP3   OH243888   3.592   1.830  13.531 -0.2544 -0.3359 -0.1484
 7466TIP3    H143889   3.550   1.889  13.468 -1.0615  0.0292  0.6985
 7466TIP3    H243890   3.566   1.865  13.616 -2.4509 -3.0403  0.4194
 7467TIP3   OH243891   4.712   5.434  14.689 -0.4228  0.2858 -0.0136
 7467TIP3    H143892   4.623   5.400  14.687  0.7787 -3.4497  1.3470
 7467TIP3    H243893   4.730   5.448  14.782  0.7215  0.0011 -0.1785
 7468TIP3   OH243894   3.389   0.335  11.925  0.5868  0.1124  0.1624
 7468TIP3    H143895   3.390   0.248  11.884  0.2513  1.0169 -1.8982
 7468TIP3    H243896   3.462   0.332  11.987 -0.2804 -2.0750  1.1935
 7469TIP3   OH243897   6.195   4.224   3.761 -0.1998  0.1613  0.2476
 7469TIP3    H143898   6.290   4.234   3.762 -0.4113  2.7752 -0.2502
 7469TIP3    H243899   6.167   4.251   3.849 -0.6254  1.7410 -0.3395
 7470TIP3   OH243900   2.883   2.940   1.523 -0.1369  0.1580 -0.7879
 7470TIP3    H143901   2.966   2.981   1.546  0.2346 -1.2270  0.5001
 7470TIP3    H243902   2.818   2.985   1.577  0.5242 -2.0647  2.1143
 7471TIP3   OH243903   2.049   4.377  15.827 -0.2750 -0.1769 -0.3498
 7471TIP3    H143904   2.049   4.468  15.856 -0.8392 -0.3547  0.2247
 7471TIP3    H243905   1.987   4.375  15.754 -1.4798 -0.3943  0.6407
 7472TIP3   OH243906   6.127   6.578  13.188 -0.1534 -0.2184 -0.6709
 7472TIP3    H143907   6.171   6.601  13.270 -1.2787 -0.0035 -0.1119
 7472TIP3    H243908   6.040   6.618  13.196 -0.6179 -1.0321 -1.5464
 7473TIP3   OH243909   0.038   4.821   5.023 -0.0553 -0.4551  0.0930
 7473TIP3    H143910   0.117   4.838   5.075  1.2196 -1.5333 -1.3778
 7473TIP3    H243911   0.069   4.820   4.932 -1.8104 -0.7301 -0.5422
 7474TIP3   OH243912   6.337   3.787   3.467  0.1410 -0.3565  0.9933
 7474TIP3    H143913   6.331   3.871   3.512 -0.5396 -0.8166  1.8152
 7474TIP3    H243914   6.424   3.786   3.428 -0.0611  0.9596  0.4677
 7475TIP3   OH243915   4.395   5.747  13.100 -0.1046 -0.4530 -0.5599
 7475TIP3    H143916   4.388   5.689  13.025 -0.0160  0.3738 -1.2234
 7475TIP3    H243917   4.469   5.713  13.150 -2.3687 -3.2543  1.1903
 7476TIP3   OH243918   5.053   6.212  16.110 -0.0386 -0.4903 -0.2442
 7476TIP3    H143919   5.140   6.217  16.151 -0.2751 -1.2557  0.3823
 7476TIP3    H243920   5.058   6.135  16.054 -0.0855 -0.1075 -0.7760
 7477TIP3   OH243921   3.766   3.074  16.313  1.1011 -0.2106 -0.6787
 7477TIP3    H143922   3.794   3.098  16.402  0.2713 -1.8274  0.0622
 7477TIP3    H243923   3.774   2.978  16.311  0.1301 -0.2837 -2.0193
 7478TIP3   OH243924   0.160   5.861   3.361 -0.1387 -0.7365  0.4110
 7478TIP3    H143925   0.113   5.928   3.411  0.3115 -0.0887 -0.0032
 7478TIP3    H243926   0.230   5.910   3.317 -1.1764 -1.0795 -1.7278
 7479TIP3   OH243927   5.034   2.298  17.046  0.0508 -0.2258 -0.9315
 7479TIP3    H143928   4.953   2.252  17.025 -0.0149 -0.4661 -0.1863
 7479TIP3    H243929   5.099   2.227  17.056 -0.4277 -0.3419  1.9508
 7480TIP3   OH243930   1.857   0.613   5.735 -0.2108 -0.4283 -0.0581
 7480TIP3    H143931   1.885   0.564   5.812 -0.5611 -0.9259 -0.2439
 7480TIP3    H243932   1.828   0.698   5.770  0.1444 -0.4465  0.2910
 7481TIP3   OH243933   0.411   5.350   2.769  0.4732 -0.1597  0.0986
 7481TIP3    H143934   0.441   5.436   2.739  1.0843 -0.2144  0.5381
 7481TIP3    H243935   0.316   5.357   2.770  0.5264  1.0640  1.6850
 7482TIP3   OH243936   0.682   2.548   2.690 -0.3976  0.3257 -0.6631
 7482TIP3    H143937   0.749   2.597   2.641 -0.6839  1.1998 -0.2002
 7482TIP3    H243938   0.712   2.457   2.686  3.1352  1.0257  2.9889
 7483TIP3   OH243939   3.398   2.440   6.490 -0.3585  0.0533  0.4064
 7483TIP3    H143940   3.380   2.347   6.503 -1.2850  0.1358 -0.2174
 7483TIP3    H243941   3.365   2.483   6.569  1.4133 -0.2757  1.3781
 7484TIP3   OH243942   0.298   1.934  14.804 -0.2355  0.0373  0.1351
 7484TIP3    H143943   0.227   1.980  14.758 -1.2954 -1.7515 -0.1003
 7484TIP3    H243944   0.312   1.855  14.753  2.0155  0.3691  0.1690
 7485TIP3   OH243945   0.000   3.128   6.314 -0.4160 -0.1586 -0.0070
 7485TIP3    H143946  -0.001   3.068   6.388 -2.4023 -0.3442 -0.1492
 7485TIP3    H243947  -0.030   3.076   6.239 -1.3705  0.7668 -0.2983
 7486TIP3   OH243948   4.685   6.733   5.594 -0.8254 -0.5425  0.6282
 7486TIP3    H143949   4.708   6.710   5.684 -1.8904 -1.4223  0.7038
 7486TIP3    H243950   4.595   6.765   5.600 -0.9049 -0.6101 -0.1301
 7487TIP3   OH243951   2.955   4.547  13.194  0.0082 -0.3276  0.1051
 7487TIP3    H143952   2.951   4.590  13.279  3.0260  0.1333  0.1391
 7487TIP3    H243953   2.958   4.454  13.214 -2.8516 -0.4764  0.2245
 7488TIP3   OH243954   0.897   4.357  12.179 -0.4115 -0.0861 -0.1795
 7488TIP3    H143955   0.944   4.316  12.251 -1.5792  0.0930  0.7111
 7488TIP3    H243956   0.911   4.299  12.104 -1.1258 -1.5416  0.7829
 7489TIP3   OH243957   5.828   4.512   5.466  0.3442  0.7894 -0.6830
 7489TIP3    H143958   5.833   4.456   5.389  0.7472 -1.3808  0.8033
 7489TIP3    H243959   5.919   4.521   5.495  0.0317 -0.5188  0.8750
 7490TIP3   OH243960   1.250   5.137   3.567 -0.1224  0.0599 -0.3086
 7490TIP3    H143961   1.295   5.222   3.561  0.4715 -0.2885 -0.9616
 7490TIP3    H243962   1.175   5.154   3.624  1.2724  0.4786  1.4987
 7491TIP3   OH243963   5.647   5.040  11.238  0.6850 -0.0760 -1.1018
 7491TIP3    H143964   5.665   5.132  11.218  0.3487  0.6847  1.6560
 7491TIP3    H243965   5.616   5.003  11.155  0.6320  2.3417 -2.2469
 7492TIP3   OH243966   2.029   0.958  16.958  0.5200  0.4238  0.0698
 7492TIP3    H143967   2.018   1.030  16.896  3.3552  0.2440 -0.8066
 7492TIP3    H243968   2.088   0.897  16.913 -0.3526 -1.5650  1.5107
 7493TIP3   OH243969   6.074   3.757  12.609  0.4676  0.5168  0.2284
 7493TIP3    H143970   6.116   3.758  12.523 -0.5345  1.4442 -0.2663
 7493TIP3    H243971   6.061   3.664  12.628  1.6479  0.2554 -0.1268
 7494TIP3   OH243972   5.629   3.893   1.252  0.2805  0.1882 -0.1172
 7494TIP3    H143973   5.538   3.894   1.221  0.0050 -1.0317  0.5830
 7494TIP3    H243974   5.664   3.810   1.219  1.2846  0.8526 -0.7527
 7495TIP3   OH243975   2.252   0.790   3.879  0.6778  0.2774 -0.3414
 7495TIP3    H143976   2.236   0.696   3.879  1.7535  0.0772 -1.0819
 7495TIP3    H243977   2.210   0.822   3.799  0.8838  0.3186 -0.4341
 7496TIP3   OH243978   1.681   1.911   1.058 -0.3513  0.2009  0.5224
 7496TIP3    H143979   1.723   1.996   1.047 -1.5664  0.4879 -3.0808
 7496TIP3    H243980   1.727   1.854   0.997  0.4917 -1.8777  2.9052
 7497TIP3   OH243981   1.612   6.724   3.094  0.8637  0.0637 -0.3414
 7497TIP3    H143982   1.684   6.694   3.039  0.3812  1.6230 -1.9308
 7497TIP3    H243983   1.533   6.705   3.042  0.3781  1.2670 -0.0900
 7498TIP3   OH243984   6.186   4.191  12.062 -0.2804 -0.1840  0.0965
 7498TIP3    H143985   6.220   4.154  12.144  1.5048  0.1925 -0.4334
 7498TIP3    H243986   6.181   4.285  12.079 -1.7467 -0.2839  0.3738
 7499TIP3   OH243987   2.074   2.396  14.812 -0.2992 -0.4407  0.3848
 7499TIP3    H143988   2.137   2.459  14.846 -0.2677  0.2791 -0.9335
 7499TIP3    H243989   2.105   2.311  14.843  1.9957 -0.2423 -1.0961
 7500TIP3   OH243990   0.538   4.428   1.856 -0.2000 -0.2833 -0.0646
 7500TIP3    H143991   0.468   4.429   1.921 -0.7120  1.6908 -0.5891
 7500TIP3    H243992   0.575   4.516   1.859  0.1958 -0.3340 -1.9814
 7501TIP3   OH243993   5.771   0.988  14.484 -0.7330  0.1654 -0.2958
 7501TIP3    H143994   5.754   0.982  14.390  1.0308  2.4698 -0.8227
 7501TIP3    H243995   5.860   1.021  14.491 -1.1495  0.9673  2.2017
 7502TIP3   OH243996   0.212   4.112   4.526 -0.2279 -0.2770  0.2529
 7502TIP3    H143997   0.302   4.097   4.496 -0.5343  0.6591 -1.2281
 7502TIP3    H243998   0.205   4.206   4.537 -0.1816 -0.5391  3.3374
 7503TIP3   OH243999   3.096   0.555  12.907 -0.3166  0.4472 -0.6526
 7503TIP3    H144000   3.127   0.573  12.995  1.4323 -0.0835 -1.1245
 7503TIP3    H244001   3.003   0.535  12.918  0.1458 -0.9598  1.2659
 7504TIP3   OH244002   2.571   3.362   4.469 -0.2818  0.3909 -0.8552
 7504TIP3    H144003   2.665   3.345   4.477 -0.0646  1.6315 -0.5780
 7504TIP3    H244004   2.547   3.402   4.553 -1.0072  0.2907 -1.0097
 7505TIP3   OH244005   6.482   6.748   2.078  0.0897 -0.1605  0.1851
 7505TIP3    H144006   6.536   6.824   2.059  0.4944 -0.6399 -0.6088
 7505TIP3    H244007   6.515   6.715   2.162  1.2161 -0.6013 -0.4119
 7506TIP3   OH244008   1.966   4.545  11.919 -0.6031  0.4679  0.4034
 7506TIP3    H144009   2.002   4.554  11.831  0.1120  0.6638  0.7004
 7506TIP3    H244010   1.933   4.455  11.923 -1.2987  0.6825 -0.2885
 7507TIP3   OH244011   6.320   2.607   5.682  0.1401  0.2034 -0.2254
 7507TIP3    H144012   6.228   2.614   5.708 -0.5464 -1.6979 -1.8545
 7507TIP3    H244013   6.341   2.693   5.645 -0.7398  0.8925  0.8118
 7508TIP3   OH244014   6.585   2.861  11.182 -0.3003 -0.0640  0.4426
 7508TIP3    H144015   6.499   2.876  11.144  0.5376 -0.1119 -1.5743
 7508TIP3    H244016   6.633   2.943  11.168  0.1472 -0.2003  1.1001
 7509TIP3   OH244017   5.398   0.854   1.229  0.3991  0.1221 -0.3774
 7509TIP3    H144018   5.374   0.788   1.164  1.2500  0.3460 -0.9355
 7509TIP3    H244019   5.314   0.883   1.265 -0.0063 -1.0634 -0.3036
 7510TIP3   OH244020   2.125   0.075  16.058  0.3398 -0.1349 -0.3864
 7510TIP3    H144021   2.171   0.157  16.077  0.6992 -0.7528  1.6671
 7510TIP3    H244022   2.164   0.044  15.977  1.1010  1.0852 -0.5178
 7511TIP3   OH244023   3.198   1.285   4.150 -0.4868 -0.2711  0.0913
 7511TIP3    H144024   3.292   1.284   4.128 -0.4801 -1.1320  0.1296
 7511TIP3    H244025   3.181   1.199   4.186 -1.1348  0.1566  0.8340
 7512TIP3   OH244026   4.971   4.356  17.259 -0.3437 -0.0316  0.1352
 7512TIP3    H144027   4.897   4.417  17.265  1.3642  2.2856 -0.8207
 7512TIP3    H244028   4.936   4.273  17.290 -2.9224  1.3240  1.1540
 7513TIP3   OH244029   3.263   3.345  13.191  0.2574 -0.4123 -0.0470
 7513TIP3    H144030   3.230   3.257  13.173 -0.3666 -0.1560 -0.2030
 7513TIP3    H244031   3.187   3.402  13.175  0.1693 -0.0014  1.6636
 7514TIP3   OH244032   2.653   0.599   1.637 -0.0580 -0.0421 -0.1535
 7514TIP3    H144033   2.685   0.545   1.708  2.3129  0.3806 -0.8286
 7514TIP3    H244034   2.557   0.593   1.644  0.1156 -1.4658  1.8964
 7515TIP3   OH244035   4.019   1.111  11.541  0.1574  0.5602  0.6741
 7515TIP3    H144036   3.940   1.064  11.569 -1.2276  2.2323 -0.2180
 7515TIP3    H244037   4.063   1.050  11.482 -0.3287 -0.4907  1.3449
 7516TIP3   OH244038   0.840   5.843   6.168  0.1678  0.7346 -0.4467
 7516TIP3    H144039   0.746   5.859   6.175  0.1441  1.0646 -1.3788
 7516TIP3    H244040   0.847   5.754   6.135  0.2047  0.4242  0.3840
 7517TIP3   OH244041   2.770   5.121  15.156  0.2060  0.4173 -0.2809
 7517TIP3    H144042   2.834   5.190  15.177  1.1035 -0.5218  0.2125
 7517TIP3    H244043   2.818   5.061  15.099 -0.5128  0.1155 -0.5771
 7518TIP3   OH244044   2.112   2.707  13.013  0.4854 -0.3331  0.1085
 7518TIP3    H144045   2.117   2.623  13.060  0.6610 -0.0755  0.5532
 7518TIP3    H244046   2.031   2.747  13.043  0.3422 -0.3907 -0.1936
 7519TIP3   OH244047   5.411   0.955  14.772 -0.2866  0.4525 -0.4601
 7519TIP3    H144048   5.359   1.017  14.722 -0.6912  1.1065  0.7415
 7519TIP3    H244049   5.490   0.943  14.720 -0.9928  0.5557 -1.6000
 7520TIP3   OH244050   5.337   0.568  16.682  0.1468 -0.1896 -0.5557
 7520TIP3    H144051   5.390   0.545  16.605  0.3191 -0.5048 -0.3461
 7520TIP3    H244052   5.322   0.662  16.674 -0.6882 -0.3990 -1.4989
 7521TIP3   OH244053   4.921   6.638   0.376 -0.0503 -0.4449 -0.5089
 7521TIP3    H144054   4.928   6.546   0.402 -0.1213 -0.4240 -0.4178
 7521TIP3    H244055   5.011   6.668   0.366  0.1316  0.4618  2.8058
 7522TIP3   OH244056   2.779   5.291   0.867 -0.2319  0.3089  0.4391
 7522TIP3    H144057   2.864   5.333   0.855 -0.2328  0.1945  0.0274
 7522TIP3    H244058   2.738   5.341   0.939 -0.6536  1.6793 -0.7001
 7523TIP3   OH244059   0.285   4.890  13.166  0.1312  0.5208  0.0217
 7523TIP3    H144060   0.194   4.888  13.136  0.3227 -1.3658 -0.5923
 7523TIP3    H244061   0.280   4.866  13.258 -0.0608  1.3973  0.2462
 7524TIP3   OH244062   6.594   1.559   3.663 -0.0996 -0.4666 -0.1325
 7524TIP3    H144063   6.517   1.549   3.719 -0.2646  0.3869 -0.1910
 7524TIP3    H244064   6.666   1.523   3.714 -0.5797 -1.5618 -0.2030
 7525TIP3   OH244065   6.087   2.463  14.802 -0.0921  0.3449  0.0685
 7525TIP3    H144066   6.149   2.490  14.734 -0.3159 -3.5749 -2.0123
 7525TIP3    H244067   6.002   2.462  14.758 -1.0459  1.9596  1.7712
 7526TIP3   OH244068   4.952   3.687  13.493 -0.0101  0.5323 -0.2084
 7526TIP3    H144069   4.902   3.725  13.565 -0.1054  0.1105 -0.0508
 7526TIP3    H244070   5.008   3.759  13.462  1.0095  0.3640  1.1452
 7527TIP3   OH244071   6.613   0.254   1.185 -0.6534 -0.5129 -0.7898
 7527TIP3    H144072   6.607   0.178   1.128 -2.6354  0.1043 -1.5080
 7527TIP3    H244073   6.547   0.314   1.151 -0.1585  0.9169  0.6559
 7528TIP3   OH244074   3.650   5.257  11.663  0.1265 -0.6451 -0.4388
 7528TIP3    H144075   3.712   5.226  11.596  1.7215 -0.0948  0.7250
 7528TIP3    H244076   3.638   5.182  11.721  0.7551 -0.3766  0.0588
 7529TIP3   OH244077   2.882   1.295   0.000  0.2981  0.0229 -0.0801
 7529TIP3    H144078   2.939   1.335   0.066 -0.9239  0.9687  0.4380
 7529TIP3    H244079   2.942   1.251  -0.060  1.4864 -0.1679  1.1986
 7530TIP3   OH244080   3.003   0.224   1.289  0.0105  0.4976 -0.4219
 7530TIP3    H144081   3.086   0.176   1.283 -0.4459 -0.3390 -0.2923
 7530TIP3    H244082   2.938   0.160   1.260 -0.7821  0.5800  1.0781
 7531TIP3   OH244083   0.316   3.141  15.336 -0.1761  0.5218 -0.0784
 7531TIP3    H144084   0.295   3.211  15.274 -0.7907  0.4101 -0.0030
 7531TIP3    H244085   0.249   3.075  15.321 -0.8069  0.8413  1.2459
 7532TIP3   OH244086   0.298   4.115  15.015  0.1793 -0.8460 -0.3801
 7532TIP3    H144087   0.255   4.032  15.038  0.5871 -1.7587 -2.6566
 7532TIP3    H244088   0.267   4.134  14.927 -2.3882  3.1515  1.1204
 7533TIP3   OH244089   0.521   4.531   5.673 -0.6110  0.3579  0.9670
 7533TIP3    H144090   0.483   4.619   5.668 -1.4572  0.0901  2.1418
 7533TIP3    H244091   0.583   4.535   5.745 -0.4979  0.0538  0.8890
 7534TIP3   OH244092   3.033   5.835   2.374  0.0074 -0.1875 -0.4884
 7534TIP3    H144093   2.986   5.910   2.337  0.4759  0.3460 -0.0288
 7534TIP3    H244094   3.015   5.763   2.314  1.4325  0.8397 -2.2720
 7535TIP3   OH244095   4.745   0.385   0.122 -0.1756  0.1327 -0.0215
 7535TIP3    H144096   4.661   0.396   0.078 -0.2577  0.5028  0.2214
 7535TIP3    H244097   4.773   0.296   0.099  1.4008  1.3674 -3.6696
 7536TIP3   OH244098   4.326   1.955  17.070  0.1762  0.3200  0.0698
 7536TIP3    H144099   4.350   1.945  16.978  1.4119 -1.8891  0.5558
 7536TIP3    H244100   4.232   1.970  17.069 -0.3082 -2.2701 -1.5075
 7537TIP3   OH244101   3.542   3.165  11.673 -0.0206 -0.7487  0.0756
 7537TIP3    H144102   3.476   3.176  11.605  1.1195  0.6694 -0.8518
 7537TIP3    H244103   3.579   3.252  11.685  3.8687 -1.9520 -1.7222
 7538TIP3   OH244104   6.094   2.384  16.556  0.2484  0.3088 -0.3452
 7538TIP3    H144105   6.087   2.431  16.640 -0.2377 -0.8866  0.3122
 7538TIP3    H244106   6.084   2.452  16.490 -0.4885  1.1326  0.5731
 7539TIP3   OH244107   6.035   3.042  16.500  0.1489  0.7512 -0.0407
 7539TIP3    H144108   6.015   2.963  16.450 -1.2095 -0.1158  1.7771
 7539TIP3    H244109   5.950   3.080  16.522  0.7137  1.3956  1.1438
 7540TIP3   OH244110   2.779   4.999   4.246  0.1052 -0.2296  0.3992
 7540TIP3    H144111   2.764   4.930   4.181 -0.4904 -0.2288  0.5267
 7540TIP3    H244112   2.697   5.003   4.295  0.6260 -0.3652  1.2881
 7541TIP3   OH244113   2.157   3.324   5.254  0.2959 -0.5092 -0.1249
 7541TIP3    H144114   2.144   3.411   5.291 -0.5525 -0.6736 -0.0129
 7541TIP3    H244115   2.124   3.264   5.321 -2.4300 -0.7742 -1.5352
 7542TIP3   OH244116   1.126   5.717   4.383  0.5124 -0.3899 -0.3297
 7542TIP3    H144117   1.068   5.792   4.387  1.2587  0.1888 -0.1851
 7542TIP3    H244118   1.077   5.651   4.334 -1.2244 -0.8023  1.8233
 7543TIP3   OH244119   2.562   0.299   3.035 -0.0925 -0.0749  0.0255
 7543TIP3    H144120   2.600   0.384   3.057 -0.3682  0.0861 -0.1081
 7543TIP3    H244121   2.605   0.272   2.955  0.3942 -0.3222  0.3658
 7544TIP3   OH244122   6.354   3.114  16.016 -0.1292  0.0605  0.0603
 7544TIP3    H144123   6.425   3.160  16.060 -1.0784  1.7874 -0.1054
 7544TIP3    H244124   6.391   3.029  15.993  1.9500  0.9884 -0.2647
 7545TIP3   OH244125   4.384   4.688  13.085  0.3726 -0.0375 -0.0405
 7545TIP3    H144126   4.355   4.769  13.042 -0.0689  0.5706  1.3486
 7545TIP3    H244127   4.324   4.677  13.158  0.9650 -1.1707  0.2958
 7546TIP3   OH244128   4.809   3.292  13.159  0.3663  0.2015 -0.1552
 7546TIP3    H144129   4.835   3.220  13.101 -2.0910 -0.5815 -0.3819
 7546TIP3    H244130   4.892   3.337  13.180  1.5575 -0.5438 -2.8168
 7547TIP3   OH244131   6.619   1.788  16.961  0.2232 -0.6533 -0.0233
 7547TIP3    H144132   6.614   1.733  16.883 -0.8712  0.9700 -1.1496
 7547TIP3    H244133   6.688   1.852  16.941 -0.5600  0.2219  0.0115
 7548TIP3   OH244134   4.549   2.274  13.491  0.6990  0.7316  0.0235
 7548TIP3    H144135   4.565   2.363  13.523 -1.1552  0.6082  1.4721
 7548TIP3    H244136   4.500   2.286  13.410  1.2508  1.0304 -0.2695
 7549TIP3   OH244137   1.927   5.713  14.491 -0.1194 -0.0338  0.0175
 7549TIP3    H144138   1.971   5.735  14.409  0.1184  0.1393  0.1893
 7549TIP3    H244139   1.884   5.629  14.475  0.2204 -0.1698 -0.1710
 7550TIP3   OH244140   5.149   5.002   3.247  0.5326 -0.1301 -0.4831
 7550TIP3    H144141   5.189   4.925   3.288 -0.9466 -0.3553  0.6070
 7550TIP3    H244142   5.181   5.076   3.298 -1.5303 -0.4313  1.3653
 7551TIP3   OH244143   0.046   2.923   4.579  0.8139 -0.1292  0.3698
 7551TIP3    H144144   0.123   2.925   4.522 -0.2947 -0.3744 -1.1756
 7551TIP3    H244145   0.070   2.981   4.652  2.2688  0.1939 -0.3168
 7552TIP3   OH244146   2.229   5.934   0.345  0.2122 -0.3834  0.5071
 7552TIP3    H144147   2.228   5.856   0.400  1.5428  1.0029  2.6720
 7552TIP3    H244148   2.302   5.920   0.284  0.0399 -1.0734  0.4522
 7553TIP3   OH244149   4.849   4.868   0.633  0.1400 -0.4485 -0.7959
 7553TIP3    H144150   4.904   4.789   0.631  2.1396  0.8617 -0.9335
 7553TIP3    H244151   4.912   4.940   0.643 -1.6797  1.0696  0.3906
 7554TIP3   OH244152   4.072   3.962   2.095  0.3435  0.2108  0.3754
 7554TIP3    H144153   4.113   4.046   2.116 -0.6617  0.9990 -0.6747
 7554TIP3    H244154   4.017   3.942   2.171  0.6061  0.4830  0.6380
 7555TIP3   OH244155   5.383   4.616  17.077  0.6452 -0.2807 -0.0292
 7555TIP3    H144156   5.460   4.620  17.020  1.5160  1.1528  1.1788
 7555TIP3    H244157   5.349   4.705  17.077 -0.3345 -0.6434  0.3866
 7556TIP3   OH244158   3.746   2.458   0.352  0.3241 -0.0070  0.1170
 7556TIP3    H144159   3.735   2.549   0.325 -1.9134 -0.2160  0.1466
 7556TIP3    H244160   3.763   2.463   0.446 -0.4096  0.3605  0.2361
 7557TIP3   OH244161   5.564   3.717  17.251 -0.0121  0.3038  0.2646
 7557TIP3    H144162   5.556   3.810  17.229  0.3192  0.5872  1.3129
 7557TIP3    H244163   5.635   3.713  17.315  0.4453 -0.7656 -0.2791
 7558TIP3   OH244164   2.627   6.825  14.416 -0.0792 -0.2915 -0.5530
 7558TIP3    H144165   2.593   6.881  14.346 -0.9696  0.8209  0.7394
 7558TIP3    H244166   2.550   6.778  14.449  0.2664 -0.5169 -0.0501
 7559TIP3   OH244167   0.930   2.419  16.157  0.0593  0.0596 -0.7602
 7559TIP3    H144168   0.888   2.370  16.227  0.1710 -0.5176 -1.0928
 7559TIP3    H244169   0.967   2.496  16.200 -1.2517  0.5352 -0.4459
 7560TIP3   OH244170   0.044   4.600   6.350 -0.6915  0.4114  0.1847
 7560TIP3    H144171   0.028   4.681   6.400 -0.2142  1.3577 -1.1219
 7560TIP3    H244172   0.055   4.532   6.417 -1.0950  1.4266  1.3272
 7561TIP3   OH244173   3.027   6.559   0.418 -0.3300  0.1858  0.6231
 7561TIP3    H144174   2.957   6.498   0.441 -1.4380  0.2340 -2.2427
 7561TIP3    H244175   2.983   6.643   0.408  0.7289  0.9209  1.8661
 7562TIP3   OH244176   0.263   2.894   5.271 -0.2812  0.0630  0.2541
 7562TIP3    H144177   0.268   2.955   5.344  0.0891  0.2372  0.0817
 7562TIP3    H244178   0.264   2.949   5.193 -1.3228 -0.0779  0.1189
 7563TIP3   OH244179   0.397   4.770   1.801  0.0240 -0.0326  0.2725
 7563TIP3    H144180   0.381   4.831   1.873  0.3499  0.4316 -0.0415
 7563TIP3    H244181   0.488   4.743   1.812 -0.8997 -2.8940  2.2230
 7564TIP3   OH244182   0.560   0.015   1.828  0.3732  0.4884 -0.0451
 7564TIP3    H144183   0.647   0.052   1.818  1.6954 -1.0948  3.8158
 7564TIP3    H244184   0.524   0.057   1.906 -0.4986 -1.8958  0.9483
 7565TIP3   OH244185   2.997   5.232   3.640  0.1674  0.7004 -0.3280
 7565TIP3    H144186   2.930   5.300   3.630 -0.5056  0.1076  0.0162
 7565TIP3    H244187   2.991   5.181   3.559 -1.1119 -0.4778  0.4746
 7566TIP3   OH244188   1.648   1.194  15.327  0.2252 -0.5632  0.2109
 7566TIP3    H144189   1.638   1.192  15.422  2.3346 -1.9039  0.4834
 7566TIP3    H244190   1.708   1.266  15.311 -1.6830  0.9737 -0.3649
 7567TIP3   OH244191   1.963   5.096   2.140  0.0668 -0.0120 -0.2267
 7567TIP3    H144192   1.913   5.136   2.212 -1.5363 -1.3871 -0.5184
 7567TIP3    H244193   1.946   5.002   2.149  1.8436 -0.4298 -0.9447
 7568TIP3   OH244194   3.858   3.330   2.656 -0.5613  0.7186 -0.0907
 7568TIP3    H144195   3.875   3.411   2.704 -0.6761  0.0456  1.1038
 7568TIP3    H244196   3.782   3.291   2.699 -1.0568  0.4043 -1.2126
 7569TIP3   OH244197   3.852   2.288  11.076  0.2490  0.2519 -0.2747
 7569TIP3    H144198   3.924   2.226  11.090 -2.1421 -2.4767  0.8264
 7569TIP3    H244199   3.800   2.248  11.006 -1.3694  1.0104  0.4637
 7570TIP3   OH244200   1.225   4.507   5.301 -0.3883 -0.3206  0.2859
 7570TIP3    H144201   1.148   4.475   5.348 -1.4160  1.0831 -0.4024
 7570TIP3    H244202   1.194   4.581   5.249  1.4082  0.2484 -0.0696
 7571TIP3   OH244203   2.416   5.204   5.225 -0.7247  0.1758  0.6733
 7571TIP3    H144204   2.455   5.287   5.253  1.2572  0.0800 -1.4585
 7571TIP3    H244205   2.347   5.187   5.288  1.0395  1.7201  3.2092
 7572TIP3   OH244206   3.645   0.685   2.926 -0.5594 -0.7617 -0.0789
 7572TIP3    H144207   3.632   0.627   3.001  0.0733  0.4900  1.0561
 7572TIP3    H244208   3.732   0.723   2.941  0.0693 -1.3069 -2.0579
 7573TIP3   OH244209   1.391   6.123   2.847  0.4235 -0.4488 -0.4410
 7573TIP3    H144210   1.485   6.107   2.834  0.1888 -0.6010 -2.0797
 7573TIP3    H244211   1.348   6.045   2.812 -0.3063 -0.9448  1.4167
 7574TIP3   OH244212   5.024   4.717   0.890  0.0141  0.0624  0.0981
 7574TIP3    H144213   5.105   4.682   0.927  0.8639  0.4996 -1.2841
 7574TIP3    H244214   5.039   4.718   0.796 -0.8109  2.0576 -0.0706
 7575TIP3   OH244215   5.860   0.388  11.944 -0.6969  0.0232  0.1217
 7575TIP3    H144216   5.941   0.371  11.992 -1.3540  0.0161  1.2827
 7575TIP3    H244217   5.862   0.326  11.871 -0.2560 -0.8992  0.8829
 7576TIP3   OH244218   2.470   6.440   5.959  0.4923  0.4721  0.5753
 7576TIP3    H144219   2.433   6.508   5.903  0.7729  0.6790  0.6376
 7576TIP3    H244220   2.483   6.365   5.901 -1.9460 -0.3447  0.9563
 7577TIP3   OH244221   5.556   2.554   4.973 -0.0252 -0.4839  0.0721
 7577TIP3    H144222   5.585   2.503   4.897 -1.2629 -0.1084 -0.6828
 7577TIP3    H244223   5.637   2.583   5.014  0.6807 -0.6420 -1.1476
 7578TIP3   OH244224   2.667   3.824   4.188 -0.1634 -0.3445 -0.2714
 7578TIP3    H144225   2.598   3.822   4.122  0.1427 -1.9497 -0.5928
 7578TIP3    H244226   2.714   3.742   4.176 -1.1901 -1.6026  3.0629
 7579TIP3   OH244227   6.283   1.635  10.366  0.1805 -0.5573  0.6001
 7579TIP3    H144228   6.358   1.643  10.308  1.4799 -1.7583  2.0194
 7579TIP3    H244229   6.207   1.639  10.308  1.3658 -0.6322 -1.0336
 7580TIP3   OH244230   3.478   1.280   4.127 -0.2548 -0.2925 -0.2046
 7580TIP3    H144231   3.560   1.239   4.101 -0.7745 -1.8905  0.5440
 7580TIP3    H244232   3.504   1.348   4.190  0.5309 -0.2320 -0.5812
 7581TIP3   OH244233   4.329   5.795   2.040 -0.0938  0.0123  0.4256
 7581TIP3    H144234   4.237   5.770   2.051 -0.2992  0.2858 -0.5920
 7581TIP3    H244235   4.368   5.782   2.127 -0.9981 -0.4831  0.7705
 7582TIP3   OH244236   3.322   4.854   1.449 -0.0808  0.5356  0.9968
 7582TIP3    H144237   3.374   4.817   1.378 -0.9866 -1.3897  1.2759
 7582TIP3    H244238   3.387   4.878   1.516  0.5764 -0.7844  0.8800
 7583TIP3   OH244239   1.488   4.605  12.074  0.6241 -0.2870  0.4468
 7583TIP3    H144240   1.521   4.638  12.158  0.5819 -0.4215  0.5172
 7583TIP3    H244241   1.560   4.621  12.013 -0.2703  2.1528 -0.0821
 7584TIP3   OH244242   3.526   5.390   5.859  0.0247 -0.2136  0.2539
 7584TIP3    H144243   3.538   5.365   5.950 -0.6669 -0.4506  0.2896
 7584TIP3    H244244   3.469   5.467   5.862 -0.9633 -0.9089 -0.0123
 7585TIP3   OH244245   1.447   3.868  13.495  0.3254 -0.4960  0.8593
 7585TIP3    H144246   1.384   3.893  13.427  1.3369  1.2362  0.5000
 7585TIP3    H244247   1.441   3.773  13.500 -1.6484 -0.4421  0.2021
 7586TIP3   OH244248   6.720   2.304   3.020 -0.1022  0.0046 -0.2518
 7586TIP3    H144249   6.680   2.361   3.086  0.2701 -0.8092  0.7038
 7586TIP3    H244250   6.668   2.318   2.941 -1.4446 -0.0438  0.5938
 7587TIP3   OH244251   1.092   3.422   0.957 -0.0109  0.6846 -0.0981
 7587TIP3    H144252   1.034   3.474   0.902  0.9346  0.7482 -1.0603
 7587TIP3    H244253   1.111   3.478   1.032 -0.0513  1.2097 -0.4779
 7588TIP3   OH244254   6.659   3.869  11.829 -0.2684 -0.1205 -0.8673
 7588TIP3    H144255   6.673   3.949  11.880 -0.0841  2.0852 -4.0560
 7588TIP3    H244256   6.732   3.868  11.767  0.9031 -3.9800  0.2695
 7589TIP3   OH244257   0.168   0.132   4.524  0.2341  0.7474 -0.2502
 7589TIP3    H144258   0.130   0.070   4.586 -2.7603  1.9634 -0.6670
 7589TIP3    H244259   0.256   0.149   4.557 -0.0769 -1.1038  1.7687
 7590TIP3   OH244260   4.729   6.279  11.486  0.9333  0.1955  0.0213
 7590TIP3    H144261   4.822   6.289  11.507  1.6675 -0.7261 -2.4272
 7590TIP3    H244262   4.702   6.200  11.533  1.2175  0.7829  1.1917
 7591TIP3   OH244263   2.098   4.888   0.420  0.1687  0.4443  0.8708
 7591TIP3    H144264   2.029   4.826   0.442  0.2747 -0.2037 -0.5323
 7591TIP3    H244265   2.175   4.834   0.403  0.3988  0.9748  0.1438
 7592TIP3   OH244266   4.392   5.985  11.478  0.0413  0.1432  0.0573
 7592TIP3    H144267   4.345   5.991  11.561  0.3524  1.0602  0.1823
 7592TIP3    H244268   4.481   6.015  11.500  0.0959  0.4860 -0.6226
 7593TIP3   OH244269   5.271   1.821   0.712 -0.0717  0.5695  0.1949
 7593TIP3    H144270   5.270   1.727   0.732 -1.5456  0.5167  0.0345
 7593TIP3    H244271   5.312   1.861   0.788 -0.9745 -0.0810  1.0621
 7594TIP3   OH244272   6.485   3.992   3.987  0.3400  0.2127  0.4429
 7594TIP3    H144273   6.555   3.949   3.938 -1.0799 -1.0882 -0.5230
 7594TIP3    H244274   6.513   3.987   4.079  2.6749  1.9845 -0.0815
 7595TIP3   OH244275   6.196   1.876  13.042 -0.1579 -0.6445 -0.7157
 7595TIP3    H144276   6.252   1.932  12.989 -2.2821  2.4419 -0.0406
 7595TIP3    H244277   6.144   1.827  12.979 -1.5163  1.7684 -1.6352
 7596TIP3   OH244278   3.993   4.165   0.347  0.7586 -0.2437 -0.0562
 7596TIP3    H144279   3.911   4.172   0.395 -0.1839 -0.7562 -1.5206
 7596TIP3    H244280   4.061   4.186   0.411 -0.4978  0.0095  1.2278
 7597TIP3   OH244281   0.989   3.072  15.725  0.1079  0.4787  0.5228
 7597TIP3    H144282   0.986   2.977  15.717  0.8338  0.4920 -0.0886
 7597TIP3    H244283   1.011   3.089  15.816  1.1871  0.0204  0.3632
 7598TIP3   OH244284   0.553   1.795  10.304 -0.7811  0.8312  0.2631
 7598TIP3    H144285   0.501   1.728  10.260  2.1005 -1.7596  0.4614
 7598TIP3    H244286   0.489   1.844  10.356 -3.0225 -2.3131  0.8030
 7599TIP3   OH244287   4.588   6.187   1.772 -0.2349 -0.0484  0.0646
 7599TIP3    H144288   4.578   6.247   1.846 -3.0141  1.5123 -1.4344
 7599TIP3    H244289   4.552   6.104   1.804  0.8510 -0.1093  1.1986
 7600TIP3   OH244290   4.895   0.508  16.975 -0.2537  0.6023  0.0630
 7600TIP3    H144291   4.988   0.487  16.990  0.2010  1.1514 -1.6624
 7600TIP3    H244292   4.848   0.428  17.001  0.6453  0.4413  1.3093
 7601TIP3   OH244293   2.774   3.097  11.604  0.3165  0.1857 -0.2730
 7601TIP3    H144294   2.700   3.155  11.623  0.2481 -0.1427  0.5009
 7601TIP3    H244295   2.841   3.155  11.567 -0.4406  0.4304 -1.3195
 7602TIP3   OH244296   0.376   6.815   1.592 -0.0444 -0.2831 -0.0608
 7602TIP3    H144297   0.347   6.905   1.606 -0.2962 -0.3482 -0.1617
 7602TIP3    H244298   0.425   6.793   1.672  2.2567  0.8250 -1.0968
 7603TIP3   OH244299   4.777   3.784  13.302  0.3900  0.2970  0.6845
 7603TIP3    H144300   4.732   3.855  13.255 -0.2349  0.5930  1.7012
 7603TIP3    H244301   4.854   3.826  13.340  1.0602 -0.0086 -0.2894
 7604TIP3   OH244302   4.372   6.283   5.327  0.0875  0.1884 -0.0891
 7604TIP3    H144303   4.279   6.304   5.323 -0.2234 -1.0523  0.1543
 7604TIP3    H244304   4.383   6.239   5.412  0.4217 -1.7317 -1.0807
 7605TIP3   OH244305   2.227   4.285   5.397 -0.1169 -0.5502  0.1757
 7605TIP3    H144306   2.195   4.345   5.464 -1.6063 -2.1310  0.9486
 7605TIP3    H244307   2.296   4.235   5.441  2.1997  1.4553 -0.8945
 7606TIP3   OH244308   3.913   1.063  10.995 -0.3797 -0.6150  0.7372
 7606TIP3    H144309   4.002   1.071  11.031 -0.4587  1.4055  0.5512
 7606TIP3    H244310   3.924   1.076  10.901 -0.8026 -1.1071  0.6138
 7607TIP3   OH244311   0.546   6.315   1.886  0.0851  0.2228 -0.1766
 7607TIP3    H144312   0.598   6.345   1.961  1.3974  0.7969 -1.2719
 7607TIP3    H244313   0.515   6.395   1.844 -1.1270 -0.1056  0.0505
 7608TIP3   OH244314   4.561   6.385   4.129 -0.4505  0.3689  0.3311
 7608TIP3    H144315   4.500   6.313   4.113  0.8639 -1.0741  1.5613
 7608TIP3    H244316   4.648   6.348   4.112  0.3342  1.3509  1.9512
 7609TIP3   OH244317   4.515   2.275   4.949  0.1426 -0.5517  0.1912
 7609TIP3    H144318   4.427   2.272   4.910  1.2268 -1.9245 -2.3850
 7609TIP3    H244319   4.533   2.369   4.958 -1.3895 -0.2368  0.3223
 7610TIP3   OH244320   2.052   6.692   3.667 -0.3967 -0.6657  0.0354
 7610TIP3    H144321   2.006   6.698   3.583 -2.5222  0.8575  1.1986
 7610TIP3    H244322   2.006   6.623   3.715  0.9185 -1.6540 -0.0745
 7611TIP3   OH244323   3.565   4.687   4.916  0.1532  0.7104 -0.4189
 7611TIP3    H144324   3.660   4.681   4.904  0.3466  0.1202  1.1368
 7611TIP3    H244325   3.555   4.730   5.001 -1.0186  2.2972 -1.3109
 7612TIP3   OH244326   4.420   0.047  11.902 -0.3170  1.1901  0.1817
 7612TIP3    H144327   4.382  -0.026  11.950  0.2134  1.6018  1.2608
 7612TIP3    H244328   4.511   0.052  11.932  0.2864  0.9418 -1.4985
 7613TIP3   OH244329   5.728   4.809   1.574 -0.2968  0.4079  0.1334
 7613TIP3    H144330   5.741   4.737   1.512 -2.5254  1.3442 -1.5694
 7613TIP3    H244331   5.703   4.883   1.519  0.6507  2.1576  1.9412
 7614TIP3   OH244332   4.010   2.242  15.239  0.1891  0.0616  0.1737
 7614TIP3    H144333   3.932   2.293  15.260 -0.7874 -0.4126 -1.9847
 7614TIP3    H244334   4.080   2.307  15.232 -0.4472  0.7671  0.1631
 7615TIP3   OH244335   2.993   6.016  10.529  0.4343 -0.0319 -0.2722
 7615TIP3    H144336   3.057   6.065  10.478  0.8353 -3.1982 -3.1989
 7615TIP3    H244337   3.045   5.971  10.596  1.0642 -1.0238 -1.3812
 7616TIP3   OH244338   4.148   0.085  14.343  0.2719 -0.2548 -0.4668
 7616TIP3    H144339   4.108   0.001  14.364 -0.3758  0.3793  1.0165
 7616TIP3    H244340   4.081   0.150  14.367  1.4281  0.7514  0.2093
 7617TIP3   OH244341   0.740   4.504  11.502 -0.0908  0.6266  0.2337
 7617TIP3    H144342   0.772   4.579  11.552 -0.1710  0.6216  0.2940
 7617TIP3    H244343   0.655   4.483  11.542 -0.0753  0.5127  0.2086
 7618TIP3   OH244344   4.312   4.172  15.027  0.2239 -0.0017 -0.1700
 7618TIP3    H144345   4.317   4.247  15.086  1.9133 -0.1582 -0.0696
 7618TIP3    H244346   4.351   4.099  15.076  0.8657 -0.3423 -1.1446
 7619TIP3   OH244347   4.009   4.810   0.459 -0.0450 -0.4460 -0.0508
 7619TIP3    H144348   3.987   4.859   0.539 -2.6627  1.4676 -1.7625
 7619TIP3    H244349   3.957   4.730   0.465 -0.8185  0.0387 -0.1351
 7620TIP3   OH244350   5.481   3.043   4.020  0.0502 -0.7269 -0.1279
 7620TIP3    H144351   5.536   3.105   4.068 -0.4682 -0.1034 -0.3105
 7620TIP3    H244352   5.537   3.009   3.950  0.4692 -0.7868  0.2383
 7621TIP3   OH244353   5.872   6.272   4.262  0.3535  0.0796 -0.4057
 7621TIP3    H144354   5.867   6.365   4.241  1.2051 -0.2982 -2.4834
 7621TIP3    H244355   5.790   6.236   4.229  0.1443  0.0410  0.1493
 7622TIP3   OH244356   5.863   0.033  16.772  0.0967  0.3925  0.1363
 7622TIP3    H144357   5.877  -0.057  16.802  1.6674  0.3452 -0.6715
 7622TIP3    H244358   5.949   0.064  16.746 -0.4265  2.1357  0.3474
 7623TIP3   OH244359   1.918   4.025  14.952  0.0761 -0.5471  0.0551
 7623TIP3    H144360   1.926   4.042  14.858  0.0541 -0.0307  0.1430
 7623TIP3    H244361   1.877   4.105  14.987 -0.0827 -0.8111  0.4741
 7624TIP3   OH244362   2.448   1.188   5.857  0.1705 -0.3387  0.3229
 7624TIP3    H144363   2.537   1.160   5.836  0.1035 -0.1342 -0.2579
 7624TIP3    H244364   2.453   1.216   5.949  1.1026  1.2036 -0.1512
 7625TIP3   OH244365   6.246   0.281   2.057  0.1441  0.3486  0.1208
 7625TIP3    H144366   6.167   0.287   2.002  0.7843 -2.7067 -1.3798
 7625TIP3    H244367   6.244   0.191   2.090  2.7121  0.3606  0.4660
 7626TIP3   OH244368   6.389   6.537   1.657 -0.1984 -0.7183  0.2164
 7626TIP3    H144369   6.473   6.491   1.649  0.4880  0.8083 -2.4951
 7626TIP3    H244370   6.347   6.525   1.572 -3.2533 -2.1822  1.7548
 7627TIP3   OH244371   1.549   5.305   0.159  0.2367 -0.3360 -0.6566
 7627TIP3    H144372   1.522   5.378   0.103 -0.4505 -0.4497 -0.4729
 7627TIP3    H244373   1.602   5.249   0.101 -0.1022 -0.2276 -1.0730
 7628TIP3   OH244374   0.628   6.667   5.296 -0.1402  0.1172 -0.1825
 7628TIP3    H144375   0.555   6.729   5.305 -1.0651 -0.6833 -1.7728
 7628TIP3    H244376   0.587   6.582   5.287  0.7513 -0.0749 -3.9749
 7629TIP3   OH244377   3.593   4.277  13.017 -0.2484  0.1578  0.7892
 7629TIP3    H144378   3.593   4.191  13.059  0.7058 -0.0838  0.3136
 7629TIP3    H244379   3.629   4.335  13.084  0.0038  0.0129  0.7811
 7630TIP3   OH244380   2.379   2.927   0.562 -0.0583 -0.1843 -0.2248
 7630TIP3    H144381   2.412   2.887   0.642 -0.8923 -2.3664 -0.8763
 7630TIP3    H244382   2.285   2.936   0.576 -0.3530 -1.3905 -1.2212
 7631TIP3   OH244383   5.342   4.690  15.384  0.4999  0.1935  0.3931
 7631TIP3    H144384   5.377   4.778  15.398  0.8191  0.5174 -1.9637
 7631TIP3    H244385   5.250   4.704  15.359  0.2284 -0.2418  1.1168
 7632TIP3   OH244386   2.400   3.948  12.167 -0.7872  1.0548 -0.0761
 7632TIP3    H144387   2.381   3.999  12.246  1.3450  1.7284  0.0517
 7632TIP3    H244388   2.459   3.879  12.196 -0.8792  0.6167 -0.8888
 7633TIP3   OH244389   2.074   3.079  11.894 -0.1268 -0.0240 -0.4329
 7633TIP3    H144390   2.013   3.086  11.820  0.5833  0.5879 -0.9757
 7633TIP3    H244391   2.159   3.061  11.854  0.2926  0.4469  0.2210
 7634TIP3   OH244392   3.650   2.971  14.081 -0.1126 -0.2118  0.2321
 7634TIP3    H144393   3.734   2.986  14.038 -1.9001  1.2515 -3.0775
 7634TIP3    H244394   3.629   3.054  14.123 -0.3780 -0.2338  0.1444
 7635TIP3   OH244395   5.702   6.349  16.430  0.3089  0.0265 -0.0434
 7635TIP3    H144396   5.614   6.318  16.451  0.9946 -1.5069  0.7127
 7635TIP3    H244397   5.707   6.345  16.335 -1.3263  2.7958 -0.3798
 7636TIP3   OH244398   4.306   1.790   3.798  0.6480  0.0288  0.4082
 7636TIP3    H144399   4.400   1.778   3.782  0.3078 -0.8187 -1.1292
 7636TIP3    H244400   4.263   1.747   3.724 -1.0181 -1.2312  1.9907
 7637TIP3   OH244401   3.755   4.856   2.470 -0.0866 -0.1969  0.5975
 7637TIP3    H144402   3.748   4.952   2.476 -1.2473 -0.1061 -1.2873
 7637TIP3    H244403   3.667   4.824   2.489  0.3551 -0.9388  1.4852
 7638TIP3   OH244404   1.785   5.497  16.352 -0.0159 -0.2550 -0.1236
 7638TIP3    H144405   1.878   5.507  16.370  0.0449  0.6567 -0.8564
 7638TIP3    H244406   1.745   5.479  16.438  0.7462  0.0242  0.2949
 7639TIP3   OH244407   6.474   0.233  15.355  0.4349  0.1150 -0.1455
 7639TIP3    H144408   6.463   0.317  15.398 -0.2301  0.3028 -0.6523
 7639TIP3    H244409   6.435   0.245  15.268  1.7602 -0.2443 -0.8229
 7640TIP3   OH244410   4.485   5.592   0.867  0.0672 -0.2478 -0.4314
 7640TIP3    H144411   4.406   5.539   0.876 -0.5206  0.8359  1.2327
 7640TIP3    H244412   4.542   5.540   0.811 -1.5062 -1.4126 -1.0436
 7641TIP3   OH244413   6.707   3.928  15.260 -0.5759  0.6838  0.1391
 7641TIP3    H144414   6.657   3.848  15.242  0.6882 -0.1248  0.1005
 7641TIP3    H244415   6.701   3.979  15.179 -0.6926  0.2355 -0.1359
 7642TIP3   OH244416   3.329   3.231   6.040  0.3198  0.4376 -0.5117
 7642TIP3    H144417   3.392   3.304   6.044 -0.0853  0.7549  2.4653
 7642TIP3    H244418   3.265   3.251   6.108  1.5196 -3.8123  2.2141
 7643TIP3   OH244419   2.844   2.949   5.569  0.3065  0.3301  0.6314
 7643TIP3    H144420   2.768   2.893   5.552 -0.2869  1.2280  0.2209
 7643TIP3    H244421   2.918   2.901   5.534 -0.2069 -0.1450  0.1829
 7644TIP3   OH244422   4.331   1.961  13.699 -0.0939 -0.5747  0.0885
 7644TIP3    H144423   4.375   1.940  13.617 -0.2492 -0.9022  0.0847
 7644TIP3    H244424   4.238   1.946  13.681 -0.0917 -1.0485  0.4390
 7645TIP3   OH244425   1.652   2.035   1.331 -0.2710 -0.4284  0.8270
 7645TIP3    H144426   1.662   2.104   1.266  0.5238  0.3644  1.7672
 7645TIP3    H244427   1.654   1.954   1.280  1.3691  0.1214 -0.0669
 7646TIP3   OH244428   0.910   1.989   1.091 -0.0586 -0.3159 -0.2585
 7646TIP3    H144429   0.948   1.967   1.176 -0.3916 -0.9062 -0.2528
 7646TIP3    H244430   0.862   2.070   1.106 -2.5061 -1.8561  0.8680
 7647TIP3   OH244431   2.569   3.059   0.927  0.5254 -0.3077 -0.2022
 7647TIP3    H144432   2.600   3.132   0.980  0.6661  0.5458 -1.4168
 7647TIP3    H244433   2.648   3.024   0.885  0.3492 -0.6075 -0.2863
 7648TIP3   OH244434   2.082   4.313  12.577  0.2537 -0.3979  0.4704
 7648TIP3    H144435   2.094   4.218  12.581 -0.7693 -0.5242  0.7589
 7648TIP3    H244436   2.159   4.349  12.622  1.3551 -1.0292 -0.8417
 7649TIP3   OH244437   4.329   6.536   4.282  0.2611 -0.2152 -0.4979
 7649TIP3    H144438   4.346   6.446   4.310  1.4896  0.2799  0.4724
 7649TIP3    H244439   4.316   6.584   4.364  1.8189  0.8761 -0.8539
 7650TIP3   OH244440   3.558   5.086  16.875 -0.8756  0.3016 -0.7542
 7650TIP3    H144441   3.476   5.039  16.858  0.5832 -2.2586 -1.2623
 7650TIP3    H244442   3.594   5.043  16.953 -0.8940  2.7161  0.6766
 7651TIP3   OH244443   1.013   4.122   1.871  0.6774 -0.3569 -0.3050
 7651TIP3    H144444   0.940   4.181   1.887  0.7953  0.0389 -1.2061
 7651TIP3    H244445   0.973   4.038   1.850  0.5041 -0.3796  0.1024
 7652TIP3   OH244446   6.670   1.254  17.312 -0.1226 -0.5996  0.3343
 7652TIP3    H144447   6.630   1.338  17.290 -0.6751 -1.1959 -1.0453
 7652TIP3    H244448   6.763   1.266  17.295  0.1309  0.3141  2.0597
 7653TIP3   OH244449   0.095   4.995  12.434 -0.3702 -0.0981 -0.3812
 7653TIP3    H144450   0.179   5.011  12.391 -0.2393 -1.4749 -0.7029
 7653TIP3    H244451   0.053   4.927  12.381 -0.8031 -0.8757  0.8847
 7654TIP3   OH244452   0.751   2.493   1.935  0.3167 -0.0983 -0.2320
 7654TIP3    H144453   0.779   2.547   1.861  0.8225  0.3010  0.2350
 7654TIP3    H244454   0.697   2.551   1.988 -1.4962 -0.8815 -1.1421
 7655TIP3   OH244455   3.785   2.255  14.969  0.1739  0.3071  0.3777
 7655TIP3    H144456   3.716   2.190  14.958  0.9061 -0.6108  1.0532
 7655TIP3    H244457   3.783   2.277  15.062  1.4330 -0.4965  0.6218
 7656TIP3   OH244458   3.478   5.979   6.580  0.2191  0.3873 -0.0927
 7656TIP3    H144459   3.503   5.919   6.509  0.4214  1.4616 -0.9555
 7656TIP3    H244460   3.391   6.010   6.555 -0.5600 -0.7195  1.1487
 7657TIP3   OH244461   3.709   1.206  13.257  0.0913 -0.1332 -0.0575
 7657TIP3    H144462   3.738   1.282  13.206 -0.3300  0.0065 -0.0892
 7657TIP3    H244463   3.615   1.218  13.268  0.4320  0.8222  2.3899
 7658TIP3   OH244464   2.372   5.554  11.689  0.4424 -0.0338 -0.2472
 7658TIP3    H144465   2.358   5.488  11.622 -4.3236  1.3022 -0.9764
 7658TIP3    H244466   2.355   5.638  11.645  0.5780  1.1860  1.8618
 7659TIP3   OH244467   1.835   5.956   5.340 -0.2206 -0.0457  0.0211
 7659TIP3    H144468   1.930   5.971   5.339  0.0098 -0.7819 -3.7477
 7659TIP3    H244469   1.797   6.042   5.328 -0.0579  0.1959  1.1107
 7660TIP3   OH244470   3.097   6.223  14.362  0.2136 -0.0285  0.3453
 7660TIP3    H144471   3.120   6.314  14.380  0.2499 -0.1620  0.9804
 7660TIP3    H244472   3.027   6.202  14.424  0.1665 -0.4208  0.1683
 7661TIP3   OH244473   4.309   3.683   4.005 -0.4501 -0.8193  0.2140
 7661TIP3    H144474   4.300   3.740   4.081 -1.1757  1.6769 -1.6166
 7661TIP3    H244475   4.227   3.635   4.001 -0.7923 -0.2617  0.4564
 7662TIP3   OH244476   6.495   0.695   3.513 -0.2146  0.1224  0.0411
 7662TIP3    H144477   6.579   0.653   3.531 -0.5250  0.0167  1.4269
 7662TIP3    H244478   6.454   0.702   3.600 -1.2159  1.0486 -0.4894
 7663TIP3   OH244479   4.483   1.519  15.654 -0.2317 -0.1566 -0.3100
 7663TIP3    H144480   4.492   1.596  15.598 -1.3329  0.1240 -0.1316
 7663TIP3    H244481   4.521   1.546  15.738 -0.3905  0.1146 -0.3227
 7664TIP3   OH244482   0.793   5.118  13.825 -0.9020  0.0247 -0.3158
 7664TIP3    H144483   0.715   5.087  13.872  0.1463 -1.0044  0.8154
 7664TIP3    H244484   0.792   5.071  13.742  0.1315 -2.4400  0.9679
 7665TIP3   OH244485   0.511   2.333   0.808 -0.0231  0.3706 -0.2774
 7665TIP3    H144486   0.561   2.354   0.730 -0.4151  2.9585  0.0596
 7665TIP3    H244487   0.564   2.365   0.881 -0.1871 -0.9246  0.4421
 7666TIP3   OH244488   3.335   5.044  12.463 -0.5023  0.6225 -0.1851
 7666TIP3    H144489   3.391   5.121  12.467  0.9140 -0.4268  2.8551
 7666TIP3    H244490   3.348   5.000  12.547 -3.0442 -1.7103 -0.8690
 7667TIP3   OH244491   3.954   1.524   0.490  0.2027  0.5361 -0.2919
 7667TIP3    H144492   3.949   1.429   0.481 -1.9855  0.3419  1.9431
 7667TIP3    H244493   4.018   1.538   0.559  0.9109  0.7431 -0.9785
 7668TIP3   OH244494   0.818   4.923   2.407  0.1768 -0.0101  0.2954
 7668TIP3    H144495   0.747   4.902   2.346 -0.5912 -0.3675  1.2750
 7668TIP3    H244496   0.790   4.884   2.490  1.0586  0.7131  0.9506
 7669TIP3   OH244497   2.187   3.987   3.181  0.6633 -0.0839 -0.2881
 7669TIP3    H144498   2.150   3.966   3.095 -0.3429  0.2163  0.0601
 7669TIP3    H244499   2.153   4.075   3.201  0.3538 -0.4195  0.7002
 7670TIP3   OH244500   4.148   4.543  12.316 -0.5855 -0.2269  0.1563
 7670TIP3    H144501   4.135   4.608  12.247 -0.4664  0.2052  0.5411
 7670TIP3    H244502   4.192   4.470  12.271  0.0370  0.2928 -0.1026
 7671TIP3   OH244503   0.394   0.074   3.021  0.0315  0.0534 -0.4065
 7671TIP3    H144504   0.416   0.165   3.005  0.4732  0.2780  1.2547
 7671TIP3    H244505   0.477   0.032   3.044 -0.5186 -0.1403  1.3829
 7672TIP3   OH244506   2.092   0.116   0.973  0.9431  0.0970 -0.1694
 7672TIP3    H144507   2.057   0.091   1.059  2.4550 -1.2611  0.0956
 7672TIP3    H244508   2.158   0.049   0.954  0.5050  0.2757 -2.4968
 7673TIP3   OH244509   2.896   5.338   6.046  0.2066  0.2815  0.6948
 7673TIP3    H144510   2.907   5.422   6.092 -4.4585  1.8380 -0.5099
 7673TIP3    H244511   2.939   5.351   5.962  1.7822  0.3973  1.4781
 7674TIP3   OH244512   4.703   2.653  16.107 -0.8331  0.1515  0.1310
 7674TIP3    H144513   4.635   2.673  16.043 -1.6334  1.0278  1.2251
 7674TIP3    H244514   4.698   2.558  16.119 -2.0641  0.2364  0.3896
 7675TIP3   OH244515   3.999   5.052  14.361  0.0841 -0.3773 -0.1007
 7675TIP3    H144516   3.921   5.036  14.309 -1.8220  0.1967  2.3858
 7675TIP3    H244517   4.066   4.996  14.322 -1.9002 -1.8872 -1.5406
 7676TIP3   OH244518   4.833   3.080   4.421 -0.6593 -0.1183 -0.1511
 7676TIP3    H144519   4.887   3.004   4.443 -0.3057  0.2041  0.1239
 7676TIP3    H244520   4.756   3.044   4.379 -1.1480 -0.7416  1.2175
 7677TIP3   OH244521   0.817   2.446   6.592 -0.5065  0.0851  0.1137
 7677TIP3    H144522   0.739   2.401   6.624 -1.9131  1.8628 -0.5875
 7677TIP3    H244523   0.783   2.524   6.547  1.6254  0.3359 -1.2311
 7678TIP3   OH244524   6.807   1.126   5.431 -0.7744  0.6280  0.1448
 7678TIP3    H144525   6.764   1.200   5.476 -1.7993  1.2233 -1.6825
 7678TIP3    H244526   6.775   1.049   5.477  1.8245  1.2493  3.3824
 7679TIP3   OH244527   1.121   0.689  17.231 -0.1857 -0.1939  0.2980
 7679TIP3    H144528   1.207   0.723  17.255  0.4556 -1.2546 -0.3670
 7679TIP3    H244529   1.066   0.766  17.221  0.9955  0.5846 -0.3931
 7680TIP3   OH244530   4.627   6.393   5.242  0.5327 -0.1689  0.2525
 7680TIP3    H144531   4.658   6.440   5.319 -0.4218  0.7672  0.0900
 7680TIP3    H244532   4.535   6.376   5.260  0.0822  0.8055 -1.0314
 7681TIP3   OH244533   5.445   1.238  15.840 -0.3002  0.3166  0.0811
 7681TIP3    H144534   5.379   1.243  15.909  0.1371 -0.1695  0.5408
 7681TIP3    H244535   5.518   1.290  15.872  1.4961 -2.9519  1.8070
 7682TIP3   OH244536   5.127   1.360  10.972 -0.1049 -0.5179  0.3580
 7682TIP3    H144537   5.070   1.436  10.957 -1.1912 -1.0561  1.5455
 7682TIP3    H244538   5.189   1.362  10.899 -1.4945  0.2292 -0.8716
 7683TIP3   OH244539   4.663   2.217  16.712 -0.4954  0.0466 -0.3363
 7683TIP3    H144540   4.703   2.302  16.689 -0.1283  0.0606  0.3498
 7683TIP3    H244541   4.607   2.197  16.637  0.2003  0.4047 -0.9680
 7684TIP3   OH244542   6.699   1.940  12.452 -0.1495  0.5005 -0.4444
 7684TIP3    H144543   6.731   2.028  12.431  1.5240 -0.2388 -1.1717
 7684TIP3    H244544   6.737   1.884  12.385  0.7120 -1.1374  1.3169
 7685TIP3   OH244545   4.120   0.501   2.012 -0.3353 -0.5790 -0.0344
 7685TIP3    H144546   4.179   0.507   1.937 -1.9458  0.5006 -1.2661
 7685TIP3    H244547   4.139   0.579   2.064  1.5693 -1.8724  1.3838
 7686TIP3   OH244548   1.529   4.870   5.657 -0.2275  0.2946 -0.2006
 7686TIP3    H144549   1.482   4.907   5.732  1.5770 -0.1807  1.2401
 7686TIP3    H244550   1.621   4.888   5.675  0.3733 -1.1683 -1.5488
 7687TIP3   OH244551   4.267   4.083   1.248  0.3927 -0.0344  0.1214
 7687TIP3    H144552   4.344   4.102   1.194 -1.3062  1.1534 -2.0371
 7687TIP3    H244553   4.248   3.991   1.231 -0.4320  0.4478 -1.8656
 7688TIP3   OH244554   6.289   6.079   3.900 -0.2264 -0.1296  0.0673
 7688TIP3    H144555   6.365   6.067   3.956  1.2066  0.7063 -1.6057
 7688TIP3    H244556   6.320   6.055   3.813 -2.2764 -1.0424 -0.4638
 7689TIP3   OH244557   2.465   5.615  14.269 -0.4383  0.5095  0.0567
 7689TIP3    H144558   2.482   5.704  14.239  0.8084  0.7181  1.2849
 7689TIP3    H244559   2.521   5.560  14.214  0.5388  0.7283  0.8002
 7690TIP3   OH244560   1.147   4.513   4.389  0.3858 -0.5796 -0.2838
 7690TIP3    H144561   1.215   4.463   4.343  0.4068  0.5240 -1.5073
 7690TIP3    H244562   1.070   4.506   4.332  0.5097  1.1150 -0.6967
 7691TIP3   OH244563   5.241   3.428   4.625 -0.6988 -0.2643 -0.1206
 7691TIP3    H144564   5.158   3.381   4.625 -0.7989 -0.1189  0.8381
 7691TIP3    H244565   5.225   3.506   4.572 -1.5427  0.3522  0.9915
 7692TIP3   OH244566   4.444   3.246   3.260 -0.6067  0.0544 -0.2453
 7692TIP3    H144567   4.495   3.214   3.185 -0.5396 -1.2891  0.3423
 7692TIP3    H244568   4.353   3.240   3.230 -0.7405 -2.5046  0.4343
 7693TIP3   OH244569   1.847   3.145   2.553 -0.4394  0.3157  0.1968
 7693TIP3    H144570   1.918   3.134   2.616  0.8766  0.6928 -1.1633
 7693TIP3    H244571   1.769   3.114   2.599  0.4498  0.6410  2.0180
 7694TIP3   OH244572   3.154   5.935  15.993  0.7228 -0.5623  0.6458
 7694TIP3    H144573   3.217   5.863  15.984  1.7507  0.4115 -0.1652
 7694TIP3    H244574   3.136   5.963  15.903  0.9539  0.7024  0.9759
 7695TIP3   OH244575   5.471   5.883  16.836 -0.3709 -0.1351  0.0937
 7695TIP3    H144576   5.535   5.837  16.890 -0.2019 -0.3915 -0.3238
 7695TIP3    H244577   5.469   5.971  16.873  0.3474 -0.0735  0.0105
 7696TIP3   OH244578   4.338   2.107   0.680  0.2889 -0.5049  0.3920
 7696TIP3    H144579   4.252   2.114   0.722 -0.5268  0.8832 -1.3989
 7696TIP3    H244580   4.346   2.013   0.660 -1.8438 -0.4157 -1.3511
 7697TIP3   OH244581   1.760   4.091   2.354 -0.3658 -0.5674  0.2070
 7697TIP3    H144582   1.838   4.120   2.306 -0.4753  0.0950  0.4126
 7697TIP3    H244583   1.695   4.159   2.337 -0.0217  0.3812  2.3053
 7698TIP3   OH244584   4.493   1.698   5.425  0.1598  0.4455  0.2950
 7698TIP3    H144585   4.406   1.663   5.411  0.5551 -0.6010  0.3554
 7698TIP3    H244586   4.483   1.759   5.499 -0.1511 -1.2502  1.7180
 7699TIP3   OH244587   5.079   1.477  17.064 -0.1864 -0.3373 -0.3862
 7699TIP3    H144588   5.007   1.484  17.127  1.8615  1.6042  1.9672
 7699TIP3    H244589   5.048   1.522  16.986 -1.4947  0.6552  0.6588
 7700TIP3   OH244590   3.309   6.339   2.947  0.3005  0.1527 -0.3175
 7700TIP3    H144591   3.226   6.336   2.995 -0.2263  0.5942 -1.1665
 7700TIP3    H244592   3.347   6.252   2.960 -2.2890 -1.6195 -3.2703
 7701TIP3   OH244593   5.223   4.097   3.673  0.5324 -0.0791  0.2073
 7701TIP3    H144594   5.188   4.163   3.613  1.5450 -0.9041 -1.3386
 7701TIP3    H244595   5.263   4.148   3.744 -0.3700  0.9139  0.0327
 7702TIP3   OH244596   5.118   0.816   2.554 -0.0489  0.5956 -0.0231
 7702TIP3    H144597   5.182   0.753   2.587  0.5865  1.4042  0.3613
 7702TIP3    H244598   5.165   0.864   2.486 -1.1711 -0.6738 -1.7709
 7703TIP3   OH244599   3.050   5.823  11.781  0.3963  0.4697 -0.2297
 7703TIP3    H144600   3.026   5.774  11.860 -0.5840  1.0923 -0.1189
 7703TIP3    H244601   3.138   5.856  11.798  1.0940 -1.2256 -0.3050
 7704TIP3   OH244602   3.051   1.651   0.563 -0.3535 -0.7068 -0.2413
 7704TIP3    H144603   3.093   1.579   0.516  1.0375  0.8354 -1.5044
 7704TIP3    H244604   3.075   1.638   0.654  1.8380 -0.6364 -0.7413
 7705TIP3   OH244605   6.133   0.836  14.411 -0.0345 -0.3393  0.0689
 7705TIP3    H144606   6.112   0.895  14.339  1.5832 -0.6265 -0.6781
 7705TIP3    H244607   6.110   0.749  14.379 -1.1867 -0.2846  0.6824
 7706TIP3   OH244608   1.855   3.028  15.367  0.0650  0.0122  0.2833
 7706TIP3    H144609   1.837   2.959  15.303  0.5944 -1.7910  1.9919
 7706TIP3    H244610   1.935   3.070  15.335  1.2514 -1.9335  0.5422
 7707TIP3   OH244611   1.989   0.630  11.003 -0.0355  0.4768 -0.2822
 7707TIP3    H144612   2.061   0.576  10.972  0.4312  0.8861  0.0694
 7707TIP3    H244613   1.978   0.604  11.095 -0.1340  0.6310 -0.2500
 7708TIP3   OH244614   0.599   5.456  13.454  1.1275  0.1548 -0.4198
 7708TIP3    H144615   0.609   5.462  13.359  1.8610 -1.3308 -0.4563
 7708TIP3    H244616   0.603   5.363  13.474 -1.2548  0.2420  0.8623
 7709TIP3   OH244617   3.434   5.589   0.433 -0.0269 -0.1269 -0.7105
 7709TIP3    H144618   3.488   5.610   0.509 -0.9595 -0.7456  0.1371
 7709TIP3    H244619   3.426   5.672   0.386  0.7738  0.2043 -0.2799
 7710TIP3   OH244620   3.064   4.614   4.237 -0.0576  0.5155  0.0912
 7710TIP3    H144621   3.066   4.669   4.158 -1.1091  0.2866 -0.1016
 7710TIP3    H244622   3.140   4.643   4.288  0.9254  0.3327 -1.2199
 7711TIP3   OH244623   1.149   2.589   1.911  0.2258  0.7268 -0.2856
 7711TIP3    H144624   1.191   2.520   1.961  0.2133  1.8959  1.4464
 7711TIP3    H244625   1.205   2.601   1.834  0.6426 -0.6508 -0.2210
 7712TIP3   OH244626   6.672   3.854  15.607 -0.0062 -0.6284  0.1152
 7712TIP3    H144627   6.705   3.924  15.552  1.0803 -1.0884  0.1482
 7712TIP3    H244628   6.713   3.868  15.692 -1.8350  0.2046  0.9178
 7713TIP3   OH244629   5.865   1.850  12.173  0.9318  0.8406 -0.4120
 7713TIP3    H144630   5.888   1.767  12.215  1.0823  0.3968 -1.3480
 7713TIP3    H244631   5.885   1.836  12.081  0.9965  1.9379 -0.5708
 7714TIP3   OH244632   5.705   2.002  17.134  0.1423 -0.8163  0.0494
 7714TIP3    H144633   5.742   2.037  17.054 -2.1179  0.7876 -0.3774
 7714TIP3    H244634   5.669   1.916  17.109 -0.0862 -0.5535 -0.5253
 7715TIP3   OH244635   6.757   4.782   4.081 -0.1036 -0.3345  0.3483
 7715TIP3    H144636   6.676   4.758   4.037  0.7066 -0.6803 -0.9862
 7715TIP3    H244637   6.816   4.810   4.011 -0.0926  3.0840  1.5066
 7716TIP3   OH244638   4.599   4.561   5.058  0.4768  0.0835 -0.1236
 7716TIP3    H144639   4.555   4.630   5.008  0.6381 -0.8406 -1.5972
 7716TIP3    H244640   4.594   4.483   5.002  1.4935 -0.7702  0.9103
 7717TIP3   OH244641   4.998   3.592   5.177 -0.2130 -0.2188 -0.2421
 7717TIP3    H144642   4.965   3.513   5.135  0.4104 -0.1912 -0.7957
 7717TIP3    H244643   4.919   3.639   5.206 -0.5898 -1.0103  0.0526
 7718TIP3   OH244644   1.402   0.023   0.090 -0.1638 -0.0438 -0.6031
 7718TIP3    H144645   1.336  -0.041   0.117 -1.1892  0.4281 -1.9109
 7718TIP3    H244646   1.483  -0.009   0.131 -0.9867 -1.1709  0.2418
 7719TIP3   OH244647   4.007   4.101  11.417 -0.3409  0.0950 -0.1317
 7719TIP3    H144648   4.044   4.132  11.500  0.8631 -1.3857 -0.0865
 7719TIP3    H244649   3.947   4.030  11.443 -2.0783  1.4094 -0.3436
 7720TIP3   OH244650   1.478   2.982   2.570  0.1113  0.4354  0.5487
 7720TIP3    H144651   1.507   2.909   2.516 -0.1238  0.6360  0.1519
 7720TIP3    H244652   1.384   2.967   2.582  0.3998 -0.3713  2.0675
 7721TIP3   OH244653   2.245   4.211  13.257 -0.0686 -0.5336  0.1144
 7721TIP3    H144654   2.191   4.233  13.181  1.6014 -0.1197 -0.9961
 7721TIP3    H244655   2.182   4.189  13.325 -1.6301 -0.3773 -1.2176
 7722TIP3   OH244656   1.993   6.596  13.256 -0.1405 -0.3740  0.3460
 7722TIP3    H144657   2.074   6.599  13.307  1.0087 -1.4586 -1.3457
 7722TIP3    H244658   2.021   6.587  13.165 -2.1002  1.9985 -0.6388
 7723TIP3   OH244659   3.035   1.476   3.958 -0.3056  0.3079 -0.2719
 7723TIP3    H144660   3.090   1.449   3.884 -1.6759 -1.9569 -0.5574
 7723TIP3    H244661   3.083   1.445   4.035  1.0835  2.5991 -0.1217
 7724TIP3   OH244662   4.570   5.973   0.334 -0.5681  0.1316 -0.1641
 7724TIP3    H144663   4.643   6.035   0.338 -1.0626  0.6944  0.3822
 7724TIP3    H244664   4.494   6.024   0.361 -0.8208 -0.9796  1.3205
 7725TIP3   OH244665   4.753   1.705  16.804 -0.0402  0.3761 -0.2921
 7725TIP3    H144666   4.707   1.767  16.748 -1.8167 -0.1370  0.5059
 7725TIP3    H244667   4.762   1.750  16.888 -0.2571  0.0078 -0.0655
 7726TIP3   OH244668   4.637   4.629  13.206 -0.0233  0.0345  0.9019
 7726TIP3    H144669   4.686   4.709  13.226 -1.1677  0.8695  0.4506
 7726TIP3    H244670   4.566   4.658  13.149 -1.2712 -1.0670  1.8304
 7727TIP3   OH244671   3.611   0.707   6.700 -0.4663 -0.5132 -0.1111
 7727TIP3    H144672   3.545   0.747   6.643 -0.2948  0.4242  0.3318
 7727TIP3    H244673   3.562   0.676   6.776 -0.4765 -0.3272 -0.0417
 7728TIP3   OH244674   2.039   2.199   3.140 -0.3248 -0.1349  0.2946
 7728TIP3    H144675   1.954   2.191   3.182  0.9473 -1.2354  2.9044
 7728TIP3    H244676   2.052   2.115   3.095 -0.9386  0.3554 -0.8227
 7729TIP3   OH244677   3.914   2.334  13.191 -0.1977 -0.4329  0.1847
 7729TIP3    H144678   3.854   2.262  13.215 -0.6887 -0.5313 -1.2323
 7729TIP3    H244679   3.990   2.290  13.153 -0.2484 -0.2247 -0.1593
 7730TIP3   OH244680   6.093   2.228   3.021  0.4959  0.0716 -0.7357
 7730TIP3    H144681   6.014   2.208   3.072  0.7234  0.2372 -0.3168
 7730TIP3    H244682   6.064   2.224   2.930  0.1780 -0.6501 -0.6130
 7731TIP3   OH244683   3.948   0.476   5.129 -0.3901 -0.2715  0.4081
 7731TIP3    H144684   3.882   0.537   5.097  1.3202  0.5245 -1.8973
 7731TIP3    H244685   3.963   0.417   5.054  0.5368 -1.2950  1.3673
 7732TIP3   OH244686   3.192   1.292  15.010  0.8029 -0.2154  0.2576
 7732TIP3    H144687   3.115   1.346  15.025 -0.4826 -1.4929 -1.3703
 7732TIP3    H244688   3.166   1.231  14.941  3.0173 -1.2293  0.2222
 7733TIP3   OH244689   2.319   1.325  13.313  0.1276 -0.4727 -0.4275
 7733TIP3    H144690   2.227   1.301  13.305  0.2120 -1.4288  1.0152
 7733TIP3    H244691   2.359   1.298  13.230 -0.4205 -2.4715 -0.0926
 7734TIP3   OH244692   0.346   3.619   1.237  0.1132 -0.1883  0.8574
 7734TIP3    H144693   0.265   3.579   1.206 -0.4805  0.7131  1.2050
 7734TIP3    H244694   0.368   3.684   1.169  0.6906 -0.6070  0.6366
 7735TIP3   OH244695   1.395   6.556   4.060 -0.4160  0.2341  0.2750
 7735TIP3    H144696   1.302   6.543   4.079 -0.3180 -0.7696  0.1169
 7735TIP3    H244697   1.397   6.623   3.992 -1.0699 -0.3062 -0.2879
 7736TIP3   OH244698   3.626   2.465   4.813  0.5156  0.2370  0.2915
 7736TIP3    H144699   3.612   2.395   4.749  0.7536  1.8121 -1.5848
 7736TIP3    H244700   3.682   2.528   4.768  1.6668  0.9080  2.4922
 7737TIP3   OH244701   3.799   5.747   4.812 -1.0456 -0.0341  0.5132
 7737TIP3    H144702   3.870   5.721   4.870  0.1802  0.3411 -0.7664
 7737TIP3    H244703   3.828   5.831   4.775 -1.5450 -0.5050 -1.0135
 7738TIP3   OH244704   0.565   0.995   0.823  0.1361 -0.2357 -0.0756
 7738TIP3    H144705   0.515   0.922   0.788  0.5832 -1.6071  2.0016
 7738TIP3    H244706   0.598   0.964   0.908  0.9543  2.1077  0.5464
 7739TIP3   OH244707   3.982   2.860  16.546 -0.1496 -0.3141  0.3949
 7739TIP3    H144708   3.986   2.841  16.639  0.1592  1.2068  0.7193
 7739TIP3    H244709   3.931   2.940  16.539 -2.1413 -1.5883 -0.9785
 7740TIP3   OH244710   3.751   0.457   2.733  0.1610 -0.2130 -0.4315
 7740TIP3    H144711   3.824   0.472   2.794 -0.2876 -0.5638  0.2085
 7740TIP3    H244712   3.756   0.364   2.713  0.3492 -0.0826 -0.9956
 7741TIP3   OH244713   3.953   1.635   0.119 -0.2119 -1.0434  0.0748
 7741TIP3    H144714   3.904   1.663   0.196  0.1184 -0.6043  0.1316
 7741TIP3    H244715   3.914   1.551   0.094 -0.4421 -1.0996  0.6119
 7742TIP3   OH244716   6.810   2.712  11.828  0.1321  0.3500  0.1836
 7742TIP3    H144717   6.737   2.662  11.791  0.3041 -0.0947  0.4303
 7742TIP3    H244718   6.775   2.798  11.845 -0.7825 -0.3080  1.7704
 7743TIP3   OH244719   3.737   2.078  13.938  0.1082  0.5750 -0.1147
 7743TIP3    H144720   3.820   2.077  13.986  0.8001  0.5983 -1.2524
 7743TIP3    H244721   3.670   2.093  14.004  1.0777  1.2274  0.7430
 7744TIP3   OH244722   6.596   5.453   5.593 -0.2219  0.6718 -0.1322
 7744TIP3    H144723   6.551   5.403   5.662 -0.1820  1.0820  0.1988
 7744TIP3    H244724   6.677   5.404   5.577  1.1668  2.0109  2.1249
 7745TIP3   OH244725   2.196   3.583   2.887  0.2694 -0.2844 -0.2536
 7745TIP3    H144726   2.189   3.506   2.831  0.1653  0.6889 -1.6283
 7745TIP3    H244727   2.113   3.586   2.936  0.2000 -0.9242 -0.3332
 7746TIP3   OH244728   1.368   2.098  12.142 -0.3216 -0.0253  0.6538
 7746TIP3    H144729   1.386   2.030  12.078 -1.1995 -0.3276  0.7204
 7746TIP3    H244730   1.302   2.060  12.200  0.6464  0.1352  1.9129
 7747TIP3   OH244731   2.610   1.978  14.008 -0.5951 -0.2387  0.1382
 7747TIP3    H144732   2.608   1.928  13.927  1.3711 -1.7804  0.9506
 7747TIP3    H244733   2.616   1.912  14.077 -0.2925  1.0565  1.4158
 7748TIP3   OH244734   6.406   6.092  13.243  0.0936  0.0001 -0.4033
 7748TIP3    H144735   6.385   6.007  13.284 -1.3467  0.3103 -0.4598
 7748TIP3    H244736   6.389   6.078  13.150  0.2568  0.2316 -0.4676
 7749TIP3   OH244737   2.860   5.463   0.497  0.2449 -0.4117 -0.4097
 7749TIP3    H144738   2.894   5.550   0.516 -0.3600 -0.4015  0.6479
 7749TIP3    H244739   2.925   5.403   0.533  0.3524 -0.4046 -0.5878
 7750TIP3   OH244740   6.379   4.461   1.534  0.3216 -0.2432  0.1074
 7750TIP3    H144741   6.357   4.423   1.619  0.0378  3.8521  2.1006
 7750TIP3    H244742   6.418   4.546   1.555 -0.9738  1.5600 -3.8609
 7751TIP3   OH244743   1.294   6.207   3.783  0.1792 -0.2230  0.4183
 7751TIP3    H144744   1.338   6.219   3.868 -2.1293 -0.5214  1.7364
 7751TIP3    H244745   1.234   6.281   3.777  0.4960 -0.0620 -1.1242
 7752TIP3   OH244746   6.074   2.451   4.843 -0.5913 -0.4327  0.3305
 7752TIP3    H144747   5.993   2.502   4.836  0.2945  1.6124  3.2088
 7752TIP3    H244748   6.142   2.509   4.809  0.5011  0.7902  4.0578
 7753TIP3   OH244749   0.104   5.735  11.436 -0.2885  0.2447  0.2465
 7753TIP3    H144750   0.078   5.688  11.357 -0.2392  0.2698  0.2155
 7753TIP3    H244751   0.192   5.768  11.418  0.5505 -1.4237  1.0364
 7754TIP3   OH244752   5.445   0.244   4.370  0.2923 -0.5055  0.4596
 7754TIP3    H144753   5.362   0.288   4.390  0.3878 -0.7497  1.4321
 7754TIP3    H244754   5.505   0.316   4.349  0.1237 -0.2481  0.8414
 7755TIP3   OH244755   3.686   3.482   5.868 -0.6042  0.2011  0.3857
 7755TIP3    H144756   3.629   3.459   5.795  0.1757  0.7176 -0.3898
 7755TIP3    H244757   3.751   3.412   5.871 -0.1545  0.6004  0.0659
 7756TIP3   OH244758   3.294   0.448  12.757 -0.4700 -0.2195  0.2453
 7756TIP3    H144759   3.302   0.459  12.663 -0.7656 -0.0275  0.2417
 7756TIP3    H244760   3.204   0.472  12.777  0.2022  1.9606  0.8767
 7757TIP3   OH244761   3.324   2.075  13.911 -0.4637 -0.6178  0.2686
 7757TIP3    H144762   3.229   2.083  13.925 -0.3903  0.7406  0.1486
 7757TIP3    H244763   3.362   2.090  13.997 -0.3441 -0.6650  0.2232
 7758TIP3   OH244764   5.652   5.808  15.310 -0.1644  0.3199 -0.0665
 7758TIP3    H144765   5.628   5.721  15.279 -2.1669  0.7691  0.0968
 7758TIP3    H244766   5.577   5.863  15.288  1.5000  2.2712 -1.1669
 7759TIP3   OH244767   5.279   3.390   2.642 -0.2281 -0.5401 -0.3232
 7759TIP3    H144768   5.288   3.324   2.573 -0.0004  0.1060 -0.9253
 7759TIP3    H244769   5.259   3.471   2.595  1.6660  0.2963  0.2037
 7760TIP3   OH244770   2.322   0.942   5.258  0.2546 -0.3605 -0.1442
 7760TIP3    H144771   2.359   0.955   5.171 -0.4531  1.6240 -0.1967
 7760TIP3    H244772   2.291   1.028   5.284  0.9866 -0.7650  2.3460
 7761TIP3   OH244773   6.468   0.089   0.994 -0.0282 -0.2401 -0.0602
 7761TIP3    H144774   6.398   0.090   1.060 -0.2493  0.9741 -0.2843
 7761TIP3    H244775   6.434   0.034   0.924 -1.8713  2.2452 -1.2670
 7762TIP3   OH244776   4.575   2.508   2.975  0.0450 -0.0088 -0.3427
 7762TIP3    H144777   4.577   2.433   2.915 -1.7616 -0.8443  0.5662
 7762TIP3    H244778   4.641   2.488   3.041 -0.1578 -0.6340 -0.3173
 7763TIP3   OH244779   5.501   5.270   1.512  0.0437  0.5262  0.1230
 7763TIP3    H144780   5.428   5.208   1.522  0.0980  0.7934  2.8566
 7763TIP3    H244781   5.460   5.356   1.516  0.1502  0.7342 -2.1156
 7764TIP3   OH244782   4.128   6.708  12.067  0.1645 -0.3797 -0.2985
 7764TIP3    H144783   4.158   6.630  12.114 -0.0289  0.0665  0.5995
 7764TIP3    H244784   4.065   6.676  12.003  0.9084 -1.0785 -0.6954
 7765TIP3   OH244785   1.832   6.270  11.930  0.3211  0.7666 -0.5443
 7765TIP3    H144786   1.899   6.333  11.904  0.7133  0.6508  0.1501
 7765TIP3    H244787   1.867   6.229  12.009  0.8536 -1.5556 -1.9046
 7766TIP3   OH244788   3.724   1.739  15.748  0.9880  0.2440  1.5774
 7766TIP3    H144789   3.791   1.676  15.776  1.4898  0.2882  0.5445
 7766TIP3    H244790   3.773   1.807  15.702  0.1905 -0.0805  0.1788
 7767TIP3   OH244791   5.127   6.525  14.597 -0.0643  0.4359 -0.3567
 7767TIP3    H144792   5.077   6.445  14.615 -1.1737  0.8509 -1.5027
 7767TIP3    H244793   5.204   6.495  14.550 -0.6196  0.0552 -1.0428
 7768TIP3   OH244794   4.085   0.799   0.044  0.0384 -0.0796 -0.6068
 7768TIP3    H144795   4.058   0.736  -0.022  1.2468  0.4290 -1.5999
 7768TIP3    H244796   4.143   0.859  -0.001 -0.0430  0.9815  0.6375
 7769TIP3   OH244797   2.672   0.747   3.347  0.3942  0.1269  0.1480
 7769TIP3    H144798   2.758   0.789   3.357  0.2259  0.6937 -0.7083
 7769TIP3    H244799   2.660   0.738   3.253 -0.9372  1.0292  0.1927
 7770TIP3   OH244800   5.265   2.045  14.174 -0.0065  0.2873 -0.1851
 7770TIP3    H144801   5.198   2.096  14.218 -1.3839 -2.3800  1.0224
 7770TIP3    H244802   5.228   1.957  14.167  3.4143 -1.3893  0.7073
 7771TIP3   OH244803   6.245   3.041  13.928  0.3623  0.3911  0.2085
 7771TIP3    H144804   6.325   3.073  13.969 -0.0613  2.5362 -0.5031
 7771TIP3    H244805   6.274   2.999  13.847  0.9798 -1.6695  1.4291
 7772TIP3   OH244806   0.064   6.690  12.163 -0.0119  0.2289  0.1160
 7772TIP3    H144807   0.066   6.672  12.257  1.4052  0.3419  0.1397
 7772TIP3    H244808   0.067   6.603  12.122 -1.2629  0.1541  0.1554
 7773TIP3   OH244809   3.489   3.170   1.947 -0.0987 -0.0506  0.0608
 7773TIP3    H144810   3.397   3.195   1.956  0.5315  2.1698  1.0215
 7773TIP3    H244811   3.536   3.253   1.944  1.7174 -1.0284 -2.9187
 7774TIP3   OH244812   1.317   6.591  15.279 -0.6629 -0.4263  0.4962
 7774TIP3    H144813   1.387   6.587  15.345 -1.9155 -0.7079  1.8579
 7774TIP3    H244814   1.266   6.669  15.302 -0.5368  0.0600 -0.7866
 7775TIP3   OH244815   0.324   5.459   1.178  0.5380  0.4582  0.3318
 7775TIP3    H144816   0.273   5.382   1.150  0.1893  0.2466  1.4974
 7775TIP3    H244817   0.409   5.448   1.136  0.1578 -0.0234 -0.3425
 7776TIP3   OH244818   4.431   2.613  14.677 -0.3552 -0.4443 -0.1308
 7776TIP3    H144819   4.418   2.694  14.725  1.4452 -1.6250  2.5818
 7776TIP3    H244820   4.343   2.576  14.666 -1.0298  1.0594  0.0536
 7777TIP3   OH244821   0.089   4.777   2.939  0.6388  0.0355 -0.9004
 7777TIP3    H144822   0.039   4.817   2.868  0.4226  0.4303 -0.5320
 7777TIP3    H244823   0.107   4.688   2.909 -3.1708 -1.3441  0.2562
 7778TIP3   OH244824   3.040   4.574   5.077  0.5937 -0.3344  0.1427
 7778TIP3    H144825   2.957   4.556   5.122  0.8245 -1.3061  0.2026
 7778TIP3    H244826   3.049   4.503   5.014 -0.2422  1.5464 -2.2598
 7779TIP3   OH244827   6.399   1.847  16.737  0.2615  0.4459  0.3324
 7779TIP3    H144828   6.326   1.879  16.683  0.3484  1.5240  0.8129
 7779TIP3    H244829   6.478   1.871  16.687  0.2994 -1.0994 -0.3894
 7780TIP3   OH244830   0.931   2.431   0.416 -0.1264  0.1681 -0.2300
 7780TIP3    H144831   0.956   2.363   0.479 -2.3530 -0.5650 -0.0700
 7780TIP3    H244832   0.984   2.411   0.338  0.6261 -0.6075  0.4588
 7781TIP3   OH244833   2.842   1.967   5.319 -0.6408  0.0522 -0.1015
 7781TIP3    H144834   2.883   1.907   5.381  0.1843 -0.9880 -1.5827
 7781TIP3    H244835   2.913   2.024   5.290 -0.4894 -0.8998 -1.7002
 7782TIP3   OH244836   5.590   0.892  13.566  0.5358  0.4089 -0.6802
 7782TIP3    H144837   5.669   0.925  13.524  0.9349  0.9607  0.4539
 7782TIP3    H244838   5.597   0.922  13.657 -0.7824  0.1276 -0.4646
 7783TIP3   OH244839   5.614   0.858  12.743 -0.4046  0.1313  0.4426
 7783TIP3    H144840   5.664   0.816  12.813 -1.6909 -0.8805  0.7912
 7783TIP3    H244841   5.617   0.797  12.670 -1.2594 -0.0356  0.5339
 7784TIP3   OH244842   4.366   3.315   1.289  0.0591 -0.4630 -0.2742
 7784TIP3    H144843   4.299   3.249   1.272 -0.4872 -0.4288  1.6295
 7784TIP3    H244844   4.441   3.265   1.321  0.0521 -0.2727  0.0427
 7785TIP3   OH244845   0.593   2.886  14.065 -0.0609 -0.3032  0.4565
 7785TIP3    H144846   0.534   2.862  13.994 -0.1422 -0.9487  0.7341
 7785TIP3    H244847   0.542   2.872  14.145  0.3809 -0.6288  0.6885
 7786TIP3   OH244848   1.675   6.177  14.711 -0.8320 -0.0637  0.4799
 7786TIP3    H144849   1.738   6.105  14.710 -1.0754 -0.2745  0.3213
 7786TIP3    H244850   1.590   6.135  14.726 -1.2514 -0.0112 -1.5611
 7787TIP3   OH244851   2.085   5.089   5.000  0.3535 -0.1207  0.5221
 7787TIP3    H144852   2.038   5.069   5.081 -3.3867  0.3043 -1.3363
 7787TIP3    H244853   2.061   5.179   4.980 -2.1896 -1.3694 -2.9743
 7788TIP3   OH244854   0.117   5.814  13.078 -0.0199  0.1217  0.1170
 7788TIP3    H144855   0.158   5.729  13.065 -0.0511  0.1606 -0.2376
 7788TIP3    H244856   0.025   5.800  13.055 -0.8106 -0.6185  3.2987
 7789TIP3   OH244857   3.588   4.356  13.728  0.3806 -0.4801 -0.1531
 7789TIP3    H144858   3.566   4.267  13.755 -0.4764 -0.7460 -1.6093
 7789TIP3    H244859   3.616   4.347  13.636 -2.8442  1.0978 -1.4511
 7790TIP3   OH244860   2.475   4.795  14.171  0.1023 -0.4398 -0.1399
 7790TIP3    H144861   2.413   4.786  14.099  0.7113 -0.4231 -0.6740
 7790TIP3    H244862   2.430   4.755  14.246 -0.0407 -1.5872 -0.8176
 7791TIP3   OH244863   4.978   6.256   0.943 -0.1765 -0.3926 -0.4313
 7791TIP3    H144864   5.008   6.344   0.964  0.4715 -0.6166 -0.4032
 7791TIP3    H244865   5.052   6.215   0.898 -0.1581 -1.1978  0.2993
 7792TIP3   OH244866   1.238   3.074  13.413  0.5662  0.2652 -0.0983
 7792TIP3    H144867   1.293   3.002  13.384 -0.5833 -0.5830 -0.2287
 7792TIP3    H244868   1.278   3.104  13.495  1.8196  0.3798 -0.7388
 7793TIP3   OH244869   2.666   4.285  12.726  0.2578 -0.2524  0.1093
 7793TIP3    H144870   2.619   4.312  12.806  0.3742 -1.0745  0.4694
 7793TIP3    H244871   2.736   4.229  12.758 -0.9074 -2.2562 -0.7048
 7794TIP3   OH244872   6.723   1.526  14.250 -0.1135  0.0339 -0.2472
 7794TIP3    H144873   6.636   1.487  14.262 -0.6495  1.7868  2.7114
 7794TIP3    H244874   6.710   1.619  14.270  2.5677  0.1553  1.4045
 7795TIP3   OH244875   1.413   1.493   2.782 -0.3578  0.0421  0.2033
 7795TIP3    H144876   1.445   1.426   2.842 -1.9652 -1.1328 -0.1933
 7795TIP3    H244877   1.474   1.491   2.708  0.2037 -0.2255  0.6703
 7796TIP3   OH244878   3.253   2.975  17.095  1.0354  0.1374  0.3733
 7796TIP3    H144879   3.331   3.005  17.049  0.3814  0.9998 -0.2100
 7796TIP3    H244880   3.191   2.952  17.025  0.6421 -0.1785  0.8195
 7797TIP3   OH244881   5.906   5.961  12.534 -0.1469 -0.0989 -0.6153
 7797TIP3    H144882   5.927   6.050  12.508  0.8319 -0.0234  0.3433
 7797TIP3    H244883   5.915   5.961  12.630 -1.1593 -0.9650 -0.4952
 7798TIP3   OH244884   2.994   2.586  15.627  0.1595  0.1818 -0.8110
 7798TIP3    H144885   3.066   2.613  15.569  0.8481  0.6012  0.2024
 7798TIP3    H244886   2.995   2.491  15.623 -0.1947  0.2028 -1.9290
 7799TIP3   OH244887   1.796   4.581  16.678  0.7105  0.2346 -0.2766
 7799TIP3    H144888   1.886   4.584  16.709  0.3252  0.8056  0.8337
 7799TIP3    H244889   1.749   4.643  16.733 -0.8036 -1.6104  0.6436
 7800TIP3   OH244890   5.781   1.197  16.116 -0.2937  0.1391  0.1473
 7800TIP3    H144891   5.773   1.247  16.035  0.8981 -1.9011 -1.3213
 7800TIP3    H244892   5.695   1.155  16.126 -0.1434 -0.3842 -0.6402
 7801TIP3   OH244893   6.212   3.056  15.365 -0.8856  0.7909 -0.2097
 7801TIP3    H144894   6.177   3.044  15.453 -0.8264  2.2257  0.0430
 7801TIP3    H244895   6.151   3.010  15.308 -0.7902 -0.3685  0.5792
 7802TIP3   OH244896   4.447   2.696   4.098  0.0490 -0.5391  0.6141
 7802TIP3    H144897   4.417   2.787   4.106 -0.3087 -0.5020 -0.8074
 7802TIP3    H244898   4.529   2.694   4.146  0.3241  0.6844  0.2422
 7803TIP3   OH244899   0.667   0.778  15.226  0.0985  0.3965 -0.2203
 7803TIP3    H144900   0.752   0.807  15.193 -0.5710  1.7021 -0.8640
 7803TIP3    H244901   0.603   0.816  15.166 -1.0141  0.4860  0.9618
 7804TIP3   OH244902   6.273   6.570   5.269  0.5028 -0.9995 -0.1134
 7804TIP3    H144903   6.203   6.589   5.208  1.0330 -3.2880 -1.5486
 7804TIP3    H244904   6.352   6.568   5.215  1.3754 -0.5996  1.1010
 7805TIP3   OH244905   3.956   4.079   3.831 -0.5703  0.4715 -0.1064
 7805TIP3    H144906   3.968   4.050   3.741 -0.8520  1.6570 -0.5309
 7805TIP3    H244907   3.863   4.065   3.848 -0.7073  1.1328 -0.3133
 7806TIP3   OH244908   0.274   3.766   5.984 -0.2388  0.1476  0.2389
 7806TIP3    H144909   0.227   3.738   5.905  0.3623 -0.8933  0.2219
 7806TIP3    H244910   0.250   3.701   6.050 -0.3859  0.7557  0.7881
 7807TIP3   OH244911   2.857   4.428   6.180  0.1675 -0.0889 -0.4548
 7807TIP3    H144912   2.885   4.431   6.271 -1.0190 -0.8792 -0.0395
 7807TIP3    H244913   2.896   4.348   6.145  0.3149  0.0194 -0.5418
 7808TIP3   OH244914   1.560   0.142  11.497  0.4791 -0.5451 -0.3079
 7808TIP3    H144915   1.504   0.155  11.420  1.3861  1.5529 -0.6809
 7808TIP3    H244916   1.504   0.096  11.559 -0.6181 -1.3696 -1.8251
 7809TIP3   OH244917   4.205   6.672   3.618 -0.3727 -0.2655 -0.1558
 7809TIP3    H144918   4.283   6.617   3.608 -0.1153  0.1001 -0.2135
 7809TIP3    H244919   4.161   6.638   3.697  1.5113  1.4574  1.7845
 7810TIP3   OH244920   0.753   4.694  15.629 -0.6222 -0.4326  0.8964
 7810TIP3    H144921   0.696   4.771  15.638  1.4831  1.5436 -1.2776
 7810TIP3    H244922   0.841   4.730  15.626  0.4233 -2.8770 -0.7959
 7811TIP3   OH244923   6.535   3.050   6.590  0.5037 -0.7224  0.6913
 7811TIP3    H144924   6.582   3.133   6.595  0.9328 -0.7222 -1.9497
 7811TIP3    H244925   6.443   3.076   6.577  0.2680 -0.7127  2.2091
 7812TIP3   OH244926   0.640   2.148  13.296  0.2865 -0.1104 -0.8329
 7812TIP3    H144927   0.647   2.056  13.323  1.8381  0.2227  0.0017
 7812TIP3    H244928   0.585   2.145  13.218  2.1659 -2.0687 -2.2295
 7813TIP3   OH244929   2.409   2.341  16.615 -0.0687  0.2016 -0.2630
 7813TIP3    H144930   2.494   2.325  16.575  0.0794  2.0623 -0.8106
 7813TIP3    H244931   2.409   2.435  16.633 -1.7393  0.1120  0.3842
 7814TIP3   OH244932   5.043   4.176   4.522  0.2633  0.0196 -0.7403
 7814TIP3    H144933   4.996   4.227   4.456 -0.3437  0.1642 -0.2018
 7814TIP3    H244934   4.975   4.143   4.580  0.5595 -2.1071 -1.5377
 7815TIP3   OH244935   4.093   3.896   0.298  0.8730 -0.7988  0.5050
 7815TIP3    H144936   4.061   3.981   0.328 -3.2815 -2.1081  0.4198
 7815TIP3    H244937   4.134   3.915   0.213 -0.7530  1.0372  0.0467
 7816TIP3   OH244938   0.080   5.768  16.983 -0.5094 -0.4811  0.5801
 7816TIP3    H144939   0.048   5.691  16.935  1.2941 -0.6149 -0.5293
 7816TIP3    H244940   0.048   5.756  17.072 -1.0321 -2.0647  0.2141
 7817TIP3   OH244941   4.039   5.167  14.828  0.5617 -0.2902 -0.0004
 7817TIP3    H144942   4.123   5.171  14.873  0.9067 -0.5028 -0.6174
 7817TIP3    H244943   4.012   5.259  14.820  0.4284 -0.2565  0.7552
 7818TIP3   OH244944   0.722   6.297   0.743  0.3250  0.1468 -0.9283
 7818TIP3    H144945   0.644   6.351   0.756 -0.1496 -0.6864 -0.1811
 7818TIP3    H244946   0.794   6.359   0.739  0.0038  0.7600  1.5538
 7819TIP3   OH244947   6.530   3.755   0.890 -0.4534 -0.0703 -0.2324
 7819TIP3    H144948   6.481   3.673   0.881  0.0677 -0.2267 -2.2232
 7819TIP3    H244949   6.496   3.811   0.820  0.6850  0.6317 -0.2523
 7820TIP3   OH244950   1.256   6.137   1.285  0.3804  0.1048  0.3160
 7820TIP3    H144951   1.249   6.098   1.198 -0.7642  0.6462  0.1527
 7820TIP3    H244952   1.225   6.227   1.274  0.1748  0.1660  1.2885
 7821TIP3   OH244953   4.506   0.122   5.282  0.1496 -0.7218 -0.1079
 7821TIP3    H144954   4.527   0.183   5.210 -2.3446  0.6531  0.2224
 7821TIP3    H244955   4.549   0.160   5.358  0.0655 -0.3416 -0.2450
 7822TIP3   OH244956   2.248   6.565   2.336  0.1682  0.0693 -0.1132
 7822TIP3    H144957   2.338   6.533   2.332 -0.0826 -0.5484 -1.6546
 7822TIP3    H244958   2.195   6.488   2.315 -0.5489  1.0410 -2.0919
 7823TIP3   OH244959   0.363   1.221  11.990  0.1500  0.0440  0.2223
 7823TIP3    H144960   0.308   1.174  11.928 -0.1757  0.1831  0.4006
 7823TIP3    H244961   0.343   1.313  11.974 -0.4851  0.0576  1.0228
 7824TIP3   OH244962   6.080   6.669   4.095  1.2856 -0.1253  0.4094
 7824TIP3    H144963   6.082   6.580   4.059 -0.2657 -0.7698  1.8137
 7824TIP3    H244964   6.126   6.722   4.029  0.1919 -1.5382 -1.6063
 7825TIP3   OH244965   2.197   4.879   2.229 -0.3969 -0.0935 -0.3844
 7825TIP3    H144966   2.245   4.890   2.147 -0.5999 -0.5215 -0.5643
 7825TIP3    H244967   2.110   4.850   2.203 -0.2654 -0.8659  0.0047
 7826TIP3   OH244968   4.311   3.043   5.144  1.1088  0.0634  0.1780
 7826TIP3    H144969   4.340   2.989   5.218  0.8924  0.5005  0.5881
 7826TIP3    H244970   4.216   3.031   5.141  1.3375 -1.8753 -1.5700
 7827TIP3   OH244971   4.228   3.769  13.730  0.3403 -0.2544  0.5701
 7827TIP3    H144972   4.153   3.796  13.784  0.0705  0.3860 -0.0976
 7827TIP3    H244973   4.291   3.840  13.740 -0.4325  0.7823 -1.3195
 7828TIP3   OH244974   4.022   5.318   1.898  0.4961  0.6461  0.7727
 7828TIP3    H144975   4.007   5.365   1.817 -0.4436 -0.5125  0.2445
 7828TIP3    H244976   4.117   5.321   1.910  1.1423 -2.1053 -2.2622
 7829TIP3   OH244977   5.985   6.505  15.872 -0.6991  0.2146 -0.0569
 7829TIP3    H144978   6.063   6.461  15.906 -1.3456  0.0244  1.2377
 7829TIP3    H244979   6.020   6.575  15.816  0.4293  0.5924  1.0697
 7830TIP3   OH244980   5.752   1.919  12.647  0.7041 -0.5761 -0.6462
 7830TIP3    H144981   5.804   2.000  12.642  0.8027 -0.4930  1.0958
 7830TIP3    H244982   5.661   1.948  12.642  0.7639 -0.4270 -0.8425
 7831TIP3   OH244983   4.610   6.001  14.597  0.2183  0.1040 -0.3991
 7831TIP3    H144984   4.649   6.013  14.684 -2.4150 -2.2998  1.2850
 7831TIP3    H244985   4.525   6.043  14.603  0.3325  0.6376 -2.1550
 7832TIP3   OH244986   5.582   4.100   5.089  0.2300  0.2646  0.4260
 7832TIP3    H144987   5.511   4.038   5.103  0.3843  0.4392  2.2676
 7832TIP3    H244988   5.555   4.152   5.014 -0.9613 -0.5367  0.2807
 7833TIP3   OH244989   1.924   0.950   4.831 -0.5631  0.0242 -0.6242
 7833TIP3    H144990   2.001   0.909   4.873 -0.7540 -0.0171 -0.3092
 7833TIP3    H244991   1.957   1.033   4.796 -0.1242 -0.4700 -1.4293
 7834TIP3   OH244992   1.031   4.239  14.291 -0.6798 -0.3253  0.1230
 7834TIP3    H144993   0.967   4.309  14.284  0.2755  0.6124  0.5069
 7834TIP3    H244994   0.999   4.182  14.361 -2.0597 -0.9501 -0.9594
 7835TIP3   OH244995   3.283   3.062   2.633 -0.0345 -0.3585 -0.5420
 7835TIP3    H144996   3.218   3.118   2.590 -0.9784 -0.0924  1.1604
 7835TIP3    H244997   3.237   2.980   2.649  0.5039 -0.6718 -0.5872
 7836TIP3   OH244998   4.900   6.309  11.781 -0.8534  0.5364 -0.4708
 7836TIP3    H144999   4.845   6.237  11.810 -0.5584  0.7587  0.6999
 7836TIP3    H245000   4.838   6.376  11.751 -1.3226  1.2052  1.8108
 7837TIP3   OH245001   2.498   5.823  12.670 -0.0878 -0.5856 -0.3082
 7837TIP3    H145002   2.480   5.850  12.760 -3.0461 -0.0584 -0.9539
 7837TIP3    H245003   2.593   5.832  12.660  0.5833 -2.2165  3.2127
 7838TIP3   OH245004   3.166   2.111   2.123 -0.0052  0.2025  0.0503
 7838TIP3    H145005   3.119   2.166   2.185  1.4977  1.2728  0.2799
 7838TIP3    H245006   3.255   2.104   2.159  0.0970 -1.6170 -0.4577
 7839TIP3   OH245007   0.159   6.766  16.338 -0.4014 -0.0900 -0.7749
 7839TIP3    H145008   0.130   6.797  16.252  0.8218  3.7642  0.0129
 7839TIP3    H245009   0.117   6.825  16.400  0.4097 -1.4567  1.1765
 7840TIP3   OH245010   3.441   2.106  11.685  0.1961  0.3160 -0.2797
 7840TIP3    H145011   3.530   2.107  11.720  0.1813 -0.3053 -0.2114
 7840TIP3    H245012   3.391   2.056  11.750  0.3438 -1.6502 -1.5983
 7841TIP3   OH245013   2.974   1.315  14.612 -0.2144  0.4532  0.6462
 7841TIP3    H145014   2.989   1.238  14.558  0.5319  0.2861  1.0710
 7841TIP3    H245015   3.048   1.373  14.592 -0.5177  0.8564  0.6770
 7842TIP3   OH245016   4.793   6.545  13.560 -0.7077  0.2303  0.0231
 7842TIP3    H145017   4.836   6.487  13.497 -1.2782  0.2536 -0.3952
 7842TIP3    H245018   4.865   6.590  13.605 -0.1505 -2.0778  1.6310
 7843TIP3   OH245019   6.208   0.686   3.893  0.7497  0.1417 -0.5780
 7843TIP3    H145020   6.248   0.747   3.955 -3.9207  0.6262  2.5735
 7843TIP3    H245021   6.146   0.739   3.843  0.2447 -1.2095 -1.4720
 7844TIP3   OH245022   1.418   2.022  15.337  0.1185 -0.1487  0.5604
 7844TIP3    H145023   1.426   1.926  15.340 -1.5095 -0.3839 -0.9930
 7844TIP3    H245024   1.356   2.043  15.407 -1.1643 -0.5009 -0.4260
 7845TIP3   OH245025   2.390   6.768   3.459  0.4541 -0.3576 -0.1793
 7845TIP3    H145026   2.356   6.679   3.457  0.2748 -0.2832 -0.4711
 7845TIP3    H245027   2.384   6.794   3.551  1.1118 -0.8771  0.0106
 7846TIP3   OH245028   0.241   6.430  14.951 -0.5432 -0.2890  0.2609
 7846TIP3    H145029   0.162   6.475  14.981 -0.2948 -0.6734  1.5784
 7846TIP3    H245030   0.289   6.411  15.032  0.4049 -0.9654 -0.4439
 7847TIP3   OH245031   4.389   6.508   3.298 -0.0002 -0.3407  0.3581
 7847TIP3    H145032   4.339   6.441   3.345  0.2689  0.1693  1.3755
 7847TIP3    H245033   4.472   6.465   3.278 -0.9372 -1.3557 -1.7461
 7848TIP3   OH245034   1.871   1.871  15.539 -0.2071 -0.0481 -0.2481
 7848TIP3    H145035   1.793   1.817  15.548  0.4109 -0.8232  0.7315
 7848TIP3    H245036   1.853   1.949  15.592  0.0999 -0.7326  0.8870
 7849TIP3   OH245037   4.890   3.127   1.299  0.5262 -0.8468  0.2401
 7849TIP3    H145038   4.977   3.162   1.278 -0.1372  1.0705  0.4676
 7849TIP3    H245039   4.835   3.205   1.309 -1.6688 -2.0184 -1.6633
 7850TIP3   OH245040   6.393   6.094   4.347  0.0039 -0.0862 -0.4235
 7850TIP3    H145041   6.306   6.127   4.323 -0.0903  0.9384  1.1789
 7850TIP3    H245042   6.437   6.079   4.263 -0.3114  3.2167 -1.3242
 7851TIP3   OH245043   4.944   6.662   1.486  1.3172 -0.1960  0.4153
 7851TIP3    H145044   5.024   6.643   1.536 -0.0380 -1.3826  2.2841
 7851TIP3    H245045   4.875   6.667   1.552 -0.3057 -0.0338 -1.2051
 7852TIP3   OH245046   1.843   5.746  15.676  0.3244  0.1282 -0.8458
 7852TIP3    H145047   1.883   5.833  15.677  0.5655  0.0383 -1.7282
 7852TIP3    H245048   1.764   5.756  15.623 -0.5776  0.1787  0.4459
 7853TIP3   OH245049   4.016   5.115   5.677  0.1883  0.1171  0.2388
 7853TIP3    H145050   3.926   5.087   5.694 -0.3658  1.1262 -0.9276
 7853TIP3    H245051   4.011   5.168   5.598  1.7651  0.4879  0.3469
 7854TIP3   OH245052   4.578   5.627  13.794 -0.3830 -0.1205  0.5381
 7854TIP3    H145053   4.657   5.670  13.828  0.5805  0.5195 -2.2058
 7854TIP3    H245054   4.510   5.646  13.859  0.7730  2.8011  1.0578
 7855TIP3   OH245055   5.971   0.754  16.763  0.0002  0.1770  0.1042
 7855TIP3    H145056   5.907   0.813  16.803  1.2790  2.4945 -1.0808
 7855TIP3    H245057   5.984   0.685  16.829 -0.8903  1.6729  1.9450
 7856TIP3   OH245058   2.334   0.042  13.606 -0.7238  0.3584 -0.3861
 7856TIP3    H145059   2.317  -0.036  13.658 -0.8141  1.5119  1.4124
 7856TIP3    H245060   2.430   0.052  13.606 -0.7639  0.7686  0.2064
 7857TIP3   OH245061   3.383   5.633   4.449  0.0781 -0.0360 -0.4790
 7857TIP3    H145062   3.343   5.587   4.375  0.5657  0.7112 -1.2278
 7857TIP3    H245063   3.453   5.575   4.478 -0.5198 -0.6206 -0.1896
 7858TIP3   OH245064   0.845   3.432   1.372  0.0599 -0.0953 -0.0572
 7858TIP3    H145065   0.906   3.500   1.401  1.3343 -0.9725 -0.5499
 7858TIP3    H245066   0.775   3.480   1.328  0.3370  0.9593  0.6088
 7859TIP3   OH245067   5.821   0.629   6.198  0.4093 -0.5371  0.4041
 7859TIP3    H145068   5.732   0.663   6.190 -0.1844 -1.8949  0.9241
 7859TIP3    H245069   5.855   0.666   6.279 -0.0616 -0.8023  0.7251
 7860TIP3   OH245070   2.811   5.089  13.645 -0.1406 -1.0263  0.2231
 7860TIP3    H145071   2.771   5.124  13.565 -0.8431  2.2137  1.8117
 7860TIP3    H245072   2.880   5.151  13.666 -0.5246 -1.3068  2.5718
 7861TIP3   OH245073   6.626   4.234   6.754  0.5632  0.0462 -0.2028
 7861TIP3    H145074   6.679   4.158   6.778  0.9120  0.3916  0.1369
 7861TIP3    H245075   6.566   4.202   6.687  2.3315  0.0136 -1.8719
 7862TIP3   OH245076   5.740   5.674   3.953  0.0716  0.0427  0.0969
 7862TIP3    H145077   5.768   5.765   3.963  2.1953 -0.5245 -0.2230
 7862TIP3    H245078   5.782   5.645   3.872 -0.2369 -1.3500  0.4032
 7863TIP3   OH245079   3.513   4.934   2.707 -0.3198  0.0409 -0.2118
 7863TIP3    H145080   3.571   4.857   2.704 -0.8186 -0.3424 -2.8253
 7863TIP3    H245081   3.437   4.908   2.654 -2.8261  0.6513  2.7934
 7864TIP3   OH245082   6.075   6.718  14.665  0.2240 -0.0672  0.0252
 7864TIP3    H145083   6.146   6.766  14.708 -0.8329  0.3374  1.4207
 7864TIP3    H245084   6.102   6.627  14.669  0.6076  0.0665  0.6656
 7865TIP3   OH245085   4.952   5.181  13.272 -0.0302 -0.3276 -1.0503
 7865TIP3    H145086   4.860   5.159  13.288  0.1015  0.1381  0.6028
 7865TIP3    H245087   4.994   5.098  13.252 -0.5932 -0.7477 -0.5319
 7866TIP3   OH245088   5.761   5.171   3.231  0.2254 -0.1119 -0.2484
 7866TIP3    H145089   5.840   5.150   3.181 -2.1757 -1.6682 -3.9229
 7866TIP3    H245090   5.723   5.085   3.251 -1.1025  0.5804  0.3207
 7867TIP3   OH245091   1.909   0.216  11.034 -0.1246  1.0319  0.5916
 7867TIP3    H145092   1.982   0.249  11.086  1.1543  0.4222 -0.7397
 7867TIP3    H245093   1.833   0.227  11.090  1.1109  0.8786  2.3853
 7868TIP3   OH245094   1.643   5.751   2.984  0.2913  0.0615 -0.7307
 7868TIP3    H145095   1.692   5.789   3.056  0.1903 -0.4613 -0.3832
 7868TIP3    H245096   1.660   5.657   2.989 -2.2291 -0.4180  0.5766
 7869TIP3   OH245097   6.159   2.593   0.318 -0.1708  0.3471  0.3937
 7869TIP3    H145098   6.231   2.613   0.378  2.7619 -0.9778 -2.3948
 7869TIP3    H245099   6.120   2.513   0.352 -1.0889  1.6231  2.5015
 7870TIP3   OH245100   1.667   3.007  12.714 -0.0149 -0.1608  0.4069
 7870TIP3    H145101   1.630   3.049  12.791 -0.3094 -2.3592  1.5439
 7870TIP3    H245102   1.596   3.010  12.649 -0.0041  1.0873  0.4307
 7871TIP3   OH245103   0.106   5.138  16.396  0.3590 -0.3923  0.5624
 7871TIP3    H145104   0.102   5.045  16.417  0.3693 -0.1845  1.5352
 7871TIP3    H245105   0.177   5.146  16.333 -0.0938 -1.1308 -0.0628
 7872TIP3   OH245106   1.132   4.262  16.865  0.1322  0.3674  0.6107
 7872TIP3    H145107   1.055   4.316  16.846 -0.7980 -1.0917  0.0156
 7872TIP3    H245108   1.117   4.230  16.954  1.4768  2.3105  1.5953
 7873TIP3   OH245109   3.571   4.806  14.846 -0.2818  0.1077 -0.0669
 7873TIP3    H145110   3.532   4.863  14.912  0.0203 -0.2386  0.4123
 7873TIP3    H245111   3.542   4.718  14.869 -0.1134 -0.0243 -0.3513
 7874TIP3   OH245112   2.688   2.176   5.992  0.1309  0.2163 -0.3426
 7874TIP3    H145113   2.729   2.247   5.942  0.9620 -0.2877 -0.3952
 7874TIP3    H245114   2.665   2.216   6.075 -0.9399  0.9762 -0.9733
 7875TIP3   OH245115   0.156   5.899  13.604 -0.0244  0.6066  0.0194
 7875TIP3    H145116   0.202   5.856  13.533  0.1598  0.9094 -0.0482
 7875TIP3    H245117   0.206   5.980  13.619  0.7053 -0.0510  1.3382
 7876TIP3   OH245118   1.480   1.090  14.222 -0.1517 -0.2641 -0.2193
 7876TIP3    H145119   1.541   1.020  14.245 -1.4990 -1.2495  0.5272
 7876TIP3    H245120   1.410   1.045  14.175 -0.8781  0.6383 -0.0169
 7877TIP3   OH245121   3.391   1.633   6.118  0.1859  0.3519 -0.6369
 7877TIP3    H145122   3.482   1.604   6.108  0.7967  1.4225  1.3347
 7877TIP3    H245123   3.343   1.553   6.137  0.7073 -0.2210 -1.6231
 7878TIP3   OH245124   5.693   1.950   3.910  0.4107 -0.5299  0.4169
 7878TIP3    H145125   5.732   2.035   3.928  0.4943 -0.1425 -1.3548
 7878TIP3    H245126   5.755   1.887   3.947  2.2033  0.1042 -1.2754
 7879TIP3   OH245127   0.752   5.377   5.822 -0.8849  0.4597  0.6186
 7879TIP3    H145128   0.693   5.408   5.891  0.2959  0.8505  1.4837
 7879TIP3    H245129   0.694   5.335   5.759 -2.1378  1.2373  1.2069
 7880TIP3   OH245130   0.046   4.535   1.462  0.1294 -0.3136 -0.2291
 7880TIP3    H145131   0.066   4.516   1.554 -1.3652  0.1195  0.2191
 7880TIP3    H245132  -0.010   4.463   1.434 -1.1793  0.6323 -0.1323
 7881TIP3   OH245133   6.755   3.330   1.545 -0.3623 -0.1393 -0.1534
 7881TIP3    H145134   6.791   3.272   1.478 -1.8050 -0.0673 -1.0376
 7881TIP3    H245135   6.666   3.298   1.559 -0.4132  0.4489  1.0480
 7882TIP3   OH245136   5.725   6.051  13.110  0.3163 -0.0848  0.3990
 7882TIP3    H145137   5.687   6.116  13.168  0.2071  0.3792 -0.1741
 7882TIP3    H245138   5.660   5.981  13.105 -1.0585  1.2262 -1.4992
 7883TIP3   OH245139   4.293   5.087   1.677  0.2340  0.6563  0.4478
 7883TIP3    H145140   4.304   4.993   1.664 -1.6987  0.3711  0.6910
 7883TIP3    H245141   4.369   5.113   1.730 -0.4494 -1.2326  2.4925
 7884TIP3   OH245142   0.687   3.930   2.876  0.2615 -0.2378  0.0215
 7884TIP3    H145143   0.762   3.971   2.919 -0.6705  1.2131  0.3353
 7884TIP3    H245144   0.694   3.958   2.785 -0.4714  0.7923  0.2712
 7885TIP3   OH245145   6.613   0.517  17.184  0.0340  0.4121 -0.0260
 7885TIP3    H145146   6.563   0.598  17.190 -0.0209  0.3015  1.3425
 7885TIP3    H245147   6.699   0.540  17.221  0.9452  0.5417 -2.1208
 7886TIP3   OH245148   4.619   5.489  10.679 -0.2896  0.3898  0.1432
 7886TIP3    H145149   4.601   5.395  10.679  2.4216 -0.1876  0.3372
 7886TIP3    H245150   4.689   5.500  10.743 -0.4223  2.5407 -0.0257
 7887TIP3   OH245151   1.460   0.842   0.876 -0.3086 -0.3702 -0.2080
 7887TIP3    H145152   1.453   0.861   0.969 -1.7096  1.0164 -0.5424
 7887TIP3    H245153   1.434   0.750   0.868 -3.8358  0.4046  0.4513
 7888TIP3   OH245154   4.408   1.667   1.938  0.5936  0.0903 -0.6531
 7888TIP3    H145155   4.344   1.640   2.004  0.5427  0.9620 -0.3214
 7888TIP3    H245156   4.451   1.586   1.911  0.2792 -0.3397  0.1021
 7889TIP3   OH245157   3.531   5.978  13.265  0.3052  0.4203 -0.1414
 7889TIP3    H145158   3.558   5.999  13.355  3.0512 -0.6401 -0.6318
 7889TIP3    H245159   3.597   6.019  13.210 -0.3899 -0.3657 -1.6205
 7890TIP3   OH245160   4.718   4.535   2.053 -0.4034 -0.4386  0.1904
 7890TIP3    H145161   4.626   4.561   2.059 -0.4341 -0.1480 -1.2907
 7890TIP3    H245162   4.752   4.551   2.141 -1.4144  0.7893  0.4008
 7891TIP3   OH245163   0.314   1.590  17.077  0.1603  0.5234 -0.4520
 7891TIP3    H145164   0.347   1.626  17.159 -0.2649  0.2779 -0.1703
 7891TIP3    H245165   0.377   1.620  17.011  0.8408  0.2323  0.0448
 7892TIP3   OH245166   6.524   1.066   1.381  0.4208  0.5105  0.0366
 7892TIP3    H145167   6.559   1.004   1.444  2.6873  1.9936  0.3317
 7892TIP3    H245168   6.436   1.087   1.414  1.2636  0.6750  2.2954
 7893TIP3   OH245169   6.023   2.308   4.351 -0.2466  0.1699 -0.2875
 7893TIP3    H145170   6.088   2.378   4.349  2.1858 -1.9678 -1.6502
 7893TIP3    H245171   5.954   2.338   4.291 -1.1175  2.8753  1.8367
 7894TIP3   OH245172   2.584   1.821  13.790  0.3703  0.2479 -0.2058
 7894TIP3    H145173   2.554   1.818  13.699  0.9948 -0.3936 -0.3955
 7894TIP3    H245174   2.660   1.763  13.792 -0.0833 -0.3311  0.8909
 7895TIP3   OH245175   1.812   3.468  12.155 -0.3795 -0.2934 -0.3069
 7895TIP3    H145176   1.834   3.546  12.104 -0.9655 -0.6174 -1.0708
 7895TIP3    H245177   1.719   3.477  12.172  0.0081  0.3663  1.7018
 7896TIP3   OH245178   1.756   1.546  16.947  0.0798 -0.0856 -0.7761
 7896TIP3    H145179   1.673   1.579  16.983  0.4922  1.0587 -0.8299
 7896TIP3    H245180   1.812   1.534  17.024  0.6166  1.3647 -0.9181
 7897TIP3   OH245181   2.592   3.483  15.552 -0.5433 -0.0538 -0.0209
 7897TIP3    H145182   2.582   3.472  15.646 -1.1016  2.0986  0.2323
 7897TIP3    H245183   2.528   3.551  15.529  0.1049  0.0012 -1.8130
 7898TIP3   OH245184   3.503   1.066  12.268  0.3166  0.4905  0.2323
 7898TIP3    H145185   3.460   1.120  12.334  0.4118 -0.5162  1.1636
 7898TIP3    H245186   3.596   1.085  12.278  0.5566 -1.1728  1.9092
 7899TIP3   OH245187   2.467   3.896   4.983 -0.3720 -0.3329 -0.0214
 7899TIP3    H145188   2.536   3.957   4.956  2.9667 -1.9305  3.8046
 7899TIP3    H245189   2.430   3.937   5.062 -1.7590 -0.8989 -0.3595
 7900TIP3   OH245190   4.036   4.534   4.649  0.0494 -1.0078  0.0320
 7900TIP3    H145191   4.035   4.601   4.581 -0.1396 -1.3652 -0.3212
 7900TIP3    H245192   4.126   4.501   4.648  0.1119 -0.8385  0.1254
 7901TIP3   OH245193   3.837   6.374   0.552  0.0041  0.0484  0.3277
 7901TIP3    H145194   3.838   6.345   0.643  1.6857  0.8520  0.6193
 7901TIP3    H245195   3.906   6.323   0.509  0.3697  0.8547 -0.0720
 7902TIP3   OH245196   2.755   6.523  14.763  0.1769 -0.6696 -0.2210
 7902TIP3    H145197   2.663   6.502  14.749  0.3332 -1.3533 -0.2380
 7902TIP3    H245198   2.798   6.439  14.778  0.5669 -0.2337  1.2389
 7903TIP3   OH245199   3.675   4.542   5.747  0.6845  0.0679  0.0678
 7903TIP3    H145200   3.585   4.509   5.754  0.9180 -0.3981  1.2018
 7903TIP3    H245201   3.728   4.478   5.795  1.2329  1.7640  1.8595
 7904TIP3   OH245202   1.953   6.143  16.581  0.5649  0.5034  0.6293
 7904TIP3    H145203   1.943   6.237  16.566  2.3582  0.4677 -1.1945
 7904TIP3    H245204   1.878   6.103  16.537  0.8316  0.9844 -0.2774
 7905TIP3   OH245205   4.473   4.893  12.420 -0.0286  0.2508  0.3718
 7905TIP3    H145206   4.538   4.950  12.461  1.6250 -0.7777 -0.7150
 7905TIP3    H245207   4.455   4.933  12.335  1.9030 -1.2457 -0.8392
 7906TIP3   OH245208   1.570   6.637  15.385  0.0479  0.1910 -0.1927
 7906TIP3    H145209   1.595   6.564  15.329 -1.6646 -0.0570 -0.6942
 7906TIP3    H245210   1.636   6.638  15.454 -0.6301 -2.7503  0.6322
 7907TIP3   OH245211   0.701   3.473  15.899 -0.0049  0.5538 -0.0091
 7907TIP3    H145212   0.753   3.553  15.893  2.8456 -1.2473 -1.9774
 7907TIP3    H245213   0.749   3.418  15.961 -2.0855  0.3895  1.5601
 7908TIP3   OH245214   6.135   0.391   0.784 -0.2732 -0.0769  0.3282
 7908TIP3    H145215   6.141   0.303   0.820  1.1586 -0.2078 -0.1759
 7908TIP3    H245216   6.043   0.414   0.793 -1.0613 -2.3177 -1.2040
 7909TIP3   OH245217   2.178   2.896   5.464  0.8958 -0.2768 -0.5123
 7909TIP3    H145218   2.147   2.828   5.404 -1.0540 -0.4776  0.6405
 7909TIP3    H245219   2.272   2.901   5.448  0.8962 -2.3798 -1.5067
 7910TIP3   OH245220   2.524   6.530  12.881 -0.3545 -0.1176 -0.0710
 7910TIP3    H145221   2.431   6.512  12.893 -0.5207  1.5544  1.7691
 7910TIP3    H245222   2.526   6.616  12.839  0.3986 -0.9109 -1.7594
 7911TIP3   OH245223   0.699   5.435  14.332  0.0762  0.1097 -0.0700
 7911TIP3    H145224   0.765   5.478  14.388 -0.7378  3.0616 -1.1748
 7911TIP3    H245225   0.729   5.451  14.243 -1.5636  0.5991 -0.5703
 7912TIP3   OH245226   5.442   2.530   4.628  0.0786  0.1697 -0.6004
 7912TIP3    H145227   5.415   2.440   4.647  2.5289 -1.2698 -3.1377
 7912TIP3    H245228   5.385   2.558   4.556 -2.3181  1.7333  1.7041
 7913TIP3   OH245229   0.988   0.371  15.440 -0.6625  0.7501 -0.4228
 7913TIP3    H145230   1.067   0.379  15.494 -0.2689  1.8339 -1.1131
 7913TIP3    H245231   0.982   0.455  15.394 -2.5415  0.8979  0.0182
 7914TIP3   OH245232   5.686   2.258  12.102 -0.3951 -0.0879  0.2750
 7914TIP3    H145233   5.767   2.270  12.152 -0.7048  2.4693  0.2682
 7914TIP3    H245234   5.617   2.285  12.162 -1.2317 -1.5983  0.0368
 7915TIP3   OH245235   4.845   1.773   0.402  0.5833 -0.0420 -0.1089
 7915TIP3    H145236   4.889   1.704   0.452  1.2516  0.0805 -0.5224
 7915TIP3    H245237   4.812   1.729   0.324 -1.2977 -0.4385  0.8519
 7916TIP3   OH245238   2.825   2.628  10.702  0.0882  0.0573 -0.2510
 7916TIP3    H145239   2.804   2.553  10.757  2.4986 -0.7282 -0.2512
 7916TIP3    H245240   2.764   2.623  10.629  1.0964 -2.8564 -1.0356
 7917TIP3   OH245241   3.348   1.894   4.692  0.2260  0.6481  0.0156
 7917TIP3    H145242   3.256   1.880   4.668  0.3108 -1.5619  0.7040
 7917TIP3    H245243   3.345   1.930   4.781 -0.0197 -1.3750  0.8826
 7918TIP3   OH245244   0.380   4.536   5.291  0.1982 -0.0292 -0.3739
 7918TIP3    H145245   0.349   4.506   5.376  0.7357 -1.5564 -0.6856
 7918TIP3    H245246   0.448   4.600   5.312 -1.6039  1.7707  0.3051
 7919TIP3   OH245247   2.395   5.062  17.023 -0.4035  0.3284 -0.1688
 7919TIP3    H145248   2.456   5.030  17.090  1.0079 -0.6577 -1.8337
 7919TIP3    H245249   2.395   5.157  17.033 -0.2656  0.2037  1.2284
 7920TIP3   OH245250   3.906   0.861   3.302  0.0514  0.2134 -0.2691
 7920TIP3    H145251   3.856   0.812   3.367 -0.3967 -1.5836 -1.8730
 7920TIP3    H245252   3.994   0.824   3.307  0.1086  0.3271 -0.4225
 7921TIP3   OH245253   0.325   0.863   0.364 -0.0929  0.4856  0.2278
 7921TIP3    H145254   0.414   0.878   0.395 -0.2484 -0.4874  1.1921
 7921TIP3    H245255   0.304   0.940   0.312  0.5508  1.7061  1.7159
 7922TIP3   OH245256   6.798   5.068  12.653 -0.0471  0.2704  0.4745
 7922TIP3    H145257   6.786   5.162  12.641 -1.2462  0.0313 -0.4663
 7922TIP3    H245258   6.839   5.039  12.571 -0.0538 -0.0827  0.5953
 7923TIP3   OH245259   2.352   4.571   2.675  0.4289  0.0112 -0.3569
 7923TIP3    H145260   2.339   4.512   2.601  0.2792  0.2470 -0.5186
 7923TIP3    H245261   2.321   4.656   2.644 -1.8236 -0.3388  0.6928
 7924TIP3   OH245262   1.786   0.217   0.610 -0.5342 -0.0072 -0.4024
 7924TIP3    H145263   1.723   0.255   0.671  0.3920 -1.8641  1.8797
 7924TIP3    H245264   1.761   0.251   0.525 -2.9872  1.3683  0.7703
 7925TIP3   OH245265   5.848   1.947   0.426  0.2040 -0.7258  0.2027
 7925TIP3    H145266   5.852   1.851   0.428 -0.1071 -0.7664 -0.7403
 7925TIP3    H245267   5.938   1.974   0.407  0.3035 -0.8249  0.5196
 7926TIP3   OH245268   3.762   1.333  11.790 -0.1097 -0.4501  0.0036
 7926TIP3    H145269   3.825   1.270  11.824  0.6311 -0.7761 -1.8543
 7926TIP3    H245270   3.802   1.366  11.709 -0.8004  1.8928  0.5412
 7927TIP3   OH245271   3.539   0.009  13.060 -0.6592 -0.0410  0.0825
 7927TIP3    H145272   3.552   0.030  13.152 -0.6877  0.5772 -0.0486
 7927TIP3    H245273   3.618   0.042  13.016 -0.8328  0.0488 -0.1658
 7928TIP3   OH245274   1.064   6.675   3.168  0.2720  0.1143  0.0257
 7928TIP3    H145275   1.027   6.684   3.080  1.2073  0.0220 -0.3859
 7928TIP3    H245276   0.992   6.638   3.220 -0.1067 -0.4007 -0.8334
 7929TIP3   OH245277   1.640   6.363   2.974 -0.0787 -0.0937 -0.4627
 7929TIP3    H145278   1.663   6.339   2.884 -2.1545 -1.9665 -0.5855
 7929TIP3    H245279   1.584   6.439   2.965 -2.1031 -1.5708 -1.0174
 7930TIP3   OH245280   0.742   3.445  16.651  0.1216 -0.0597  0.0006
 7930TIP3    H145281   0.727   3.457  16.744  0.2070 -2.7856  0.4513
 7930TIP3    H245282   0.655   3.434  16.614  0.1058  0.7283 -0.2122
 7931TIP3   OH245283   6.332   1.819  14.524 -0.1654 -0.5070 -0.0509
 7931TIP3    H145284   6.306   1.815  14.432  0.4466  0.5923 -0.2940
 7931TIP3    H245285   6.424   1.793  14.525 -0.3974 -1.3267  0.3697
 7932TIP3   OH245286   3.113   5.146   4.779 -0.4236 -0.2901 -0.2388
 7932TIP3    H145287   3.174   5.114   4.713 -1.1102 -0.7159 -0.6792
 7932TIP3    H245288   3.027   5.145   4.736 -0.6466  1.0016  0.1318
 7933TIP3   OH245289   2.157   2.567  16.749  0.6511  0.2434 -0.0556
 7933TIP3    H145290   2.138   2.653  16.711  0.7204 -0.3273 -1.4152
 7933TIP3    H245291   2.106   2.566  16.831 -0.2233  1.1475 -0.5594
 7934TIP3   OH245292   4.569   0.230  12.448  0.6430 -0.3632  0.3328
 7934TIP3    H145293   4.541   0.151  12.402  0.7659 -0.3212  0.1844
 7934TIP3    H245294   4.632   0.271  12.389  1.9159 -1.0624  1.1394
 7935TIP3   OH245295   6.764   5.886   3.556 -0.1623 -0.2165  0.3767
 7935TIP3    H145296   6.828   5.860   3.623 -0.1792 -0.8341  0.1594
 7935TIP3    H245297   6.685   5.906   3.605  0.7381  2.5694  0.8734
 7936TIP3   OH245298   1.353   3.025   3.547  0.0378  0.1890  0.6043
 7936TIP3    H145299   1.323   3.068   3.627 -2.6225 -0.3144 -0.0483
 7936TIP3    H245300   1.392   3.095   3.495  0.9102  0.6938  1.8943
 7937TIP3   OH245301   5.528   4.619   0.201  0.4264  0.1577 -0.5337
 7937TIP3    H145302   5.579   4.599   0.123 -1.5750 -1.2534 -1.5666
 7937TIP3    H245303   5.462   4.683   0.172 -0.3687 -0.4177 -0.0545
 7938TIP3   OH245304   2.058   2.228   4.473 -0.5978 -0.0514 -0.0853
 7938TIP3    H145305   2.098   2.145   4.498  0.9454  0.3893 -0.9270
 7938TIP3    H245306   1.964   2.211   4.473 -0.2880 -2.0303 -1.0713
 7939TIP3   OH245307   1.000   2.022   3.430  0.3472 -0.0486 -0.3885
 7939TIP3    H145308   1.078   2.040   3.482 -1.4739  0.6236  2.3190
 7939TIP3    H245309   0.942   2.096   3.448 -1.1769 -0.8602 -1.7829
 7940TIP3   OH245310   1.769   0.054  11.321 -0.0834 -0.0046  0.0310
 7940TIP3    H145311   1.782   0.136  11.272  0.2979 -0.1478 -0.1197
 7940TIP3    H245312   1.687   0.066  11.368  0.4427  0.8379  0.7567
 7941TIP3   OH245313   1.854   1.404   0.509  0.3699 -0.1998 -0.0199
 7941TIP3    H145314   1.923   1.340   0.527  2.4667  2.0901  0.6579
 7941TIP3    H245315   1.838   1.446   0.594 -0.0709  0.9516 -0.6419
 7942TIP3   OH245316   2.095   5.254  12.402 -0.9952 -0.6469 -0.1584
 7942TIP3    H145317   2.089   5.166  12.438 -0.2166  0.0681  1.8393
 7942TIP3    H245318   2.184   5.282  12.423 -1.3612  0.7628 -0.4185
 7943TIP3   OH245319   1.995   5.865   4.278  0.0993 -0.6885 -0.1477
 7943TIP3    H145320   1.940   5.943   4.288 -0.9887 -1.0888 -2.3588
 7943TIP3    H245321   1.940   5.793   4.310  1.5798 -0.5386  3.1687
 7944TIP3   OH245322   3.240   4.793   2.550 -0.2328 -0.7144 -0.0708
 7944TIP3    H145323   3.256   4.754   2.636  1.3245  1.4802  0.7147
 7944TIP3    H245324   3.155   4.757   2.523 -0.0389 -2.6350  1.6740
 7945TIP3   OH245325   2.950   5.291  16.539  0.4870 -1.0877  0.3500
 7945TIP3    H145326   2.870   5.239  16.548 -1.0007  0.9293 -0.5047
 7945TIP3    H245327   2.974   5.315  16.629 -0.8868 -0.2877  0.5268
 7946TIP3   OH245328   1.834   2.206  13.405  0.3870 -0.2789  1.0580
 7946TIP3    H145329   1.836   2.117  13.440  0.4480 -0.4501  0.6213
 7946TIP3    H245330   1.862   2.197  13.314 -1.3431 -0.0648  0.4742
 7947TIP3   OH245331   1.411   4.202  14.704 -0.0102  0.2026 -0.6170
 7947TIP3    H145332   1.345   4.138  14.728 -0.6823  1.3709  0.8065
 7947TIP3    H245333   1.381   4.238  14.620 -0.3052 -0.4113 -0.7766
 7948TIP3   OH245334   6.322   5.422  10.930  0.1919  0.5879  0.5388
 7948TIP3    H145335   6.403   5.451  10.891 -0.2730  1.9724  0.5560
 7948TIP3    H245336   6.345   5.341  10.977  0.9010 -0.7189 -1.9184
 7949TIP3   OH245337   2.705   5.138  16.545  0.6939 -0.0235  0.3014
 7949TIP3    H145338   2.640   5.141  16.615  0.0621 -0.0023 -0.2747
 7949TIP3    H245339   2.655   5.153  16.465  1.6757  1.8157 -0.0127
 7950TIP3   OH245340   4.331   5.261  13.282  0.4026 -0.1572  0.0399
 7950TIP3    H145341   4.370   5.347  13.297  0.9962 -0.5375  0.7075
 7950TIP3    H245342   4.335   5.217  13.367  1.1214 -1.2553 -0.5453
 7951TIP3   OH245343   1.588   0.204   2.755 -0.2073  0.1902  0.1914
 7951TIP3    H145344   1.678   0.205   2.787 -0.1103  1.0090 -0.0826
 7951TIP3    H245345   1.534   0.221   2.833 -0.1871 -1.0399  0.4957
 7952TIP3   OH245346   4.183   2.451  15.248 -0.2670  0.3010 -0.4067
 7952TIP3    H145347   4.225   2.523  15.294 -1.7429  1.1592 -0.3337
 7952TIP3    H245348   4.180   2.480  15.156 -0.0659 -0.0638 -0.5298
 7953TIP3   OH245349   0.926   5.677  10.158 -0.0574 -0.2823  0.2852
 7953TIP3    H145350   1.017   5.690  10.183 -0.3075 -0.4278  1.3145
 7953TIP3    H245351   0.926   5.600  10.103  0.5457  0.1776 -0.3719
 7954TIP3   OH245352   1.564   6.386   1.614  0.8315  0.8081 -0.8452
 7954TIP3    H145353   1.493   6.367   1.554 -0.3290 -0.9545  0.9518
 7954TIP3    H245354   1.533   6.459   1.667  1.6557  2.0394 -1.9959
 7955TIP3   OH245355   6.630   3.172  13.782  0.0870  0.0393 -0.1706
 7955TIP3    H145356   6.661   3.214  13.862 -0.3099 -0.1965  0.1066
 7955TIP3    H245357   6.697   3.194  13.717  0.6205 -0.1099  0.3208
 7956TIP3   OH245358   5.940   4.508  13.623 -0.0976 -0.3612 -0.1859
 7956TIP3    H145359   5.907   4.457  13.550  1.7742 -1.0935 -0.5909
 7956TIP3    H245360   5.927   4.599  13.597 -1.3114 -0.6060 -0.4977
 7957TIP3   OH245361   0.384   1.531  15.182  0.3716 -0.1811 -0.3045
 7957TIP3    H145362   0.337   1.614  15.188 -0.0583 -0.5004  1.3503
 7957TIP3    H245363   0.366   1.487  15.265  0.9349 -1.7552 -0.9712
 7958TIP3   OH245364   1.502   1.085   1.984 -0.0872  0.0227  0.0904
 7958TIP3    H145365   1.596   1.084   2.005  0.3019 -0.3701 -1.4693
 7958TIP3    H245366   1.473   1.172   2.008  0.3430 -0.3016  1.8875
 7959TIP3   OH245367   6.660   6.072  16.323  0.2734 -0.3526 -0.3223
 7959TIP3    H145368   6.566   6.058  16.317  0.4307 -1.0551 -1.4112
 7959TIP3    H245369   6.692   6.061  16.233  1.6718 -2.2058  0.3378
 7960TIP3   OH245370   2.361   0.022   5.526  1.0160 -0.3785  0.3720
 7960TIP3    H145371   2.337   0.037   5.618 -1.2807 -1.0038 -0.0583
 7960TIP3    H245372   2.446   0.064   5.516  0.3061  1.6490  2.2233
 7961TIP3   OH245373   2.640   3.695   2.391  0.1128 -0.0299 -0.2298
 7961TIP3    H145374   2.566   3.660   2.341 -0.5903  0.2007  0.6198
 7961TIP3    H245375   2.611   3.782   2.419  0.3199 -0.3065  0.8999
 7962TIP3   OH245376   2.068   5.234   4.651  0.0698 -0.1457 -0.1410
 7962TIP3    H145377   2.061   5.213   4.558 -0.3454 -1.6731  0.2034
 7962TIP3    H245378   2.156   5.203   4.675  0.9012  1.8541 -0.3663
 7963TIP3   OH245379   6.736   6.755   5.836 -0.1839  0.7332 -0.1395
 7963TIP3    H145380   6.711   6.847   5.847 -1.6696  0.2318  0.8866
 7963TIP3    H245381   6.798   6.738   5.907  0.7706  1.1444 -0.8462
 7964TIP3   OH245382   0.962   6.763  15.483 -0.1978  0.5299  0.7909
 7964TIP3    H145383   0.869   6.785  15.490  0.3898  3.7351 -0.1452
 7964TIP3    H245384   0.991   6.752  15.573 -1.1542  1.0513  1.1783
 7965TIP3   OH245385   2.281   6.355  16.164  0.2699 -0.0280 -0.8647
 7965TIP3    H145386   2.249   6.424  16.106 -1.1688  1.0473  1.0863
 7965TIP3    H245387   2.202   6.313  16.197  1.0262 -0.3852  0.5543
 7966TIP3   OH245388   0.489   3.195  16.837 -0.1615  0.0314 -0.0811
 7966TIP3    H145389   0.394   3.209  16.834 -0.8042 -3.5350 -1.2676
 7966TIP3    H245390   0.525   3.260  16.776 -1.8212  1.3431  0.2649
 7967TIP3   OH245391   0.842   5.002  15.421  0.2401 -0.5306  0.4795
 7967TIP3    H145392   0.794   5.084  15.436  0.3904 -0.4939  0.7760
 7967TIP3    H245393   0.853   4.966  15.509  0.5835 -0.6373  0.3916
 7968TIP3   OH245394   2.985   2.638   2.520  0.4990 -0.4410  0.3450
 7968TIP3    H145395   2.946   2.701   2.459  0.5481 -1.5435 -0.8592
 7968TIP3    H245396   2.912   2.610   2.576 -0.1670 -1.4322 -0.9746
 7969TIP3   OH245397   4.678   2.368   0.842  0.3791  0.4969 -0.4778
 7969TIP3    H145398   4.678   2.450   0.892 -1.0594 -0.7316  1.6364
 7969TIP3    H245399   4.613   2.382   0.773 -1.8604  0.2955  1.4790
 7970TIP3   OH245400   5.099   1.171  11.177 -0.4633  0.2205 -0.5313
 7970TIP3    H145401   5.076   1.242  11.118  0.4776  0.3364 -0.7844
 7970TIP3    H245402   5.027   1.166  11.239 -0.6640  1.2164 -0.6717
 7971TIP3   OH245403   5.339   6.721  12.272  0.0348 -0.5776 -0.0537
 7971TIP3    H145404   5.431   6.730  12.246  1.0022 -5.1274  0.9014
 7971TIP3    H245405   5.305   6.651  12.216 -2.3271 -0.1878  0.7892
 7972TIP3   OH245406   3.754   2.683   0.103  0.6183 -0.1886  0.6115
 7972TIP3    H145407   3.749   2.731   0.020 -1.1569  3.1848  2.4420
 7972TIP3    H245408   3.666   2.646   0.115  1.0588 -1.2370  0.7376
 7973TIP3   OH245409   1.684   4.266   2.034 -0.1899 -0.2928  0.5139
 7973TIP3    H145410   1.652   4.319   1.961  1.2030 -0.9003 -0.5654
 7973TIP3    H245411   1.635   4.184   2.027  0.3453 -0.5640 -0.0837
 7974TIP3   OH245412   2.059   6.607   4.592  0.5802 -0.0099  0.0299
 7974TIP3    H145413   2.106   6.578   4.515 -0.9068 -0.0003 -0.9177
 7974TIP3    H245414   2.034   6.697   4.573  0.9438  0.2906  0.9011
 7975TIP3   OH245415   4.790   4.329  12.614 -0.2215  0.3172  0.3462
 7975TIP3    H145416   4.846   4.397  12.651  1.9407 -0.4531 -1.3250
 7975TIP3    H245417   4.827   4.247  12.647 -0.8941 -0.1828 -0.1169
 7976TIP3   OH245418   4.270   4.433   6.300  0.5695  0.3997  0.3243
 7976TIP3    H145419   4.320   4.495   6.247  1.2361 -1.5753 -1.5053
 7976TIP3    H245420   4.199   4.404   6.243 -0.1169 -0.0417  1.3654
 7977TIP3   OH245421   1.964   4.309  14.719 -0.2047 -0.1252 -0.2107
 7977TIP3    H145422   1.956   4.217  14.693  0.9476  0.0702 -1.3481
 7977TIP3    H245423   2.052   4.334  14.691 -0.3900  1.2437  0.3663
 7978TIP3   OH245424   0.076   1.743  11.899 -0.2148 -0.0022 -0.3489
 7978TIP3    H145425   0.045   1.652  11.900  1.3616 -0.6240  2.1484
 7978TIP3    H245426   0.001   1.795  11.926 -0.7349 -0.7609 -0.3070
 7979TIP3   OH245427   6.222   1.852  15.907 -0.3280 -0.0264 -0.1207
 7979TIP3    H145428   6.262   1.792  15.970  0.1116  1.4574  1.0838
 7979TIP3    H245429   6.264   1.831  15.824 -0.4465 -1.5943  0.1732
 7980TIP3   OH245430   1.129   0.089   3.439 -0.1605  0.3640  0.1598
 7980TIP3    H145431   1.048   0.138   3.453  0.2256  0.5061  2.3331
 7980TIP3    H245432   1.197   0.156   3.433 -0.1524  0.2436 -1.6071
 7981TIP3   OH245433   0.012   1.855   4.549 -1.2098 -0.1860  0.2280
 7981TIP3    H145434   0.008   1.829   4.457 -0.9172  2.7498 -0.6986
 7981TIP3    H245435  -0.066   1.815   4.589 -0.8042 -2.3499 -0.9798
 7982TIP3   OH245436   0.633   5.031  12.212  0.1098  0.7045  0.1158
 7982TIP3    H145437   0.685   5.108  12.235  1.1004  0.4930 -1.3174
 7982TIP3    H245438   0.694   4.957  12.219 -0.7971  0.0243  1.3569
 7983TIP3   OH245439   0.899   4.071   2.367 -0.0856  0.1144 -0.0059
 7983TIP3    H145440   0.832   4.020   2.413  0.2845 -1.5832 -1.2831
 7983TIP3    H245441   0.861   4.158   2.360 -2.3761 -0.9015 -1.0676
 7984TIP3   OH245442   3.292   3.119   2.281 -0.1712  0.0147 -0.1217
 7984TIP3    H145443   3.355   3.061   2.324 -0.2493  0.3195  0.4025
 7984TIP3    H245444   3.213   3.112   2.334 -0.6470 -0.5146 -0.8880
 7985TIP3   OH245445   5.640   5.151  16.784  0.1832  0.5400  0.1106
 7985TIP3    H145446   5.580   5.076  16.789 -1.0207  1.5092  0.6160
 7985TIP3    H245447   5.637   5.189  16.872  0.5750  1.3293 -0.2119
 7986TIP3   OH245448   1.432   4.231   6.208 -0.4961 -0.0084 -0.9052
 7986TIP3    H145449   1.398   4.260   6.292  0.0657 -0.1614 -0.6197
 7986TIP3    H245450   1.447   4.312   6.159 -0.4476  0.1023 -0.7075
 7987TIP3   OH245451   6.294   4.751   1.383  0.1098 -0.2351 -0.5238
 7987TIP3    H145452   6.313   4.702   1.304  0.7417 -1.3204  0.2761
 7987TIP3    H245453   6.370   4.737   1.439 -0.6197 -0.0463  0.5402
 7988TIP3   OH245454   0.141   4.386   4.508  0.0766  0.1526 -0.1017
 7988TIP3    H145455   0.184   4.430   4.581  0.3426 -0.3419  0.0445
 7988TIP3    H245456   0.155   4.444   4.433  0.2501  0.4077  0.1252
 7989TIP3   OH245457   2.229   4.551   0.915  0.4105 -0.5540  0.4012
 7989TIP3    H145458   2.154   4.609   0.926  1.4705  1.4268 -1.9796
 7989TIP3    H245459   2.298   4.591   0.968  0.3436 -1.3932  1.1624
 7990TIP3   OH245460   0.276   1.645  13.434  0.2660  0.1610  1.1235
 7990TIP3    H145461   0.306   1.567  13.480 -1.8800 -0.8442  0.9238
 7990TIP3    H245462   0.192   1.666  13.474  1.2269  3.0501  1.8817
 7991TIP3   OH245463   6.652   6.345   4.105 -0.6955 -0.2105  0.1245
 7991TIP3    H145464   6.726   6.286   4.091  0.0950  1.0844 -1.4850
 7991TIP3    H245465   6.683   6.410   4.168  0.1991  1.2808 -1.7404
 7992TIP3   OH245466   1.023   5.243  16.178  0.2903 -0.1769  0.0315
 7992TIP3    H145467   1.112   5.224  16.208  0.2931  0.7806  0.6828
 7992TIP3    H245468   0.967   5.201  16.244  0.2573 -0.3501 -0.1051
 7993TIP3   OH245469   0.728   4.908   1.674 -0.0584  0.7790  0.4690
 7993TIP3    H145470   0.802   4.877   1.621 -0.1651  0.1407  0.6855
 7993TIP3    H245471   0.760   4.907   1.764  0.1174  1.8483  0.4388
 7994TIP3   OH245472   6.716   2.414  14.517 -0.5721  0.1733  0.6600
 7994TIP3    H145473   6.754   2.499  14.540 -0.3432  0.4768 -0.7432
 7994TIP3    H245474   6.781   2.373  14.460 -1.2304 -0.4081  0.3081
 7995TIP3   OH245475   2.423   3.321  16.883 -0.3423 -0.1926 -0.3345
 7995TIP3    H145476   2.518   3.327  16.878 -0.2118 -1.0474  0.7504
 7995TIP3    H245477   2.392   3.403  16.844  0.9036  1.0779  1.1877
 7996TIP3   OH245478   0.979   2.360   5.526  0.7441 -0.4071 -0.7792
 7996TIP3    H145479   0.930   2.400   5.455 -1.6370 -1.4665  0.1461
 7996TIP3    H245480   0.964   2.417   5.601  0.1860 -1.1876 -0.2792
 7997TIP3   OH245481   3.285   1.238  14.620 -0.1915  0.5010 -0.2019
 7997TIP3    H145482   3.265   1.144  14.618  0.7303  0.3103 -1.3669
 7997TIP3    H245483   3.380   1.242  14.610 -0.0814  1.5255  1.0889
 7998TIP3   OH245484   1.277   4.268  15.914 -0.6500 -0.3456 -0.0105
 7998TIP3    H145485   1.233   4.350  15.893 -1.7061 -0.2263  2.2942
 7998TIP3    H245486   1.282   4.221  15.831  0.2512  2.1274 -1.4501
 7999TIP3   OH245487   0.880   5.660  17.206  0.2117  0.3801 -0.0746
 7999TIP3    H145488   0.903   5.634  17.295 -0.0703  2.1557  0.5659
 7999TIP3    H245489   0.962   5.691  17.168 -0.3239  3.5647  1.0696
 8000TIP3   OH245490   6.451   1.300  11.367  0.1776 -0.5299  0.3852
 8000TIP3    H145491   6.462   1.239  11.294  2.4841  0.1356  0.0938
 8000TIP3    H245492   6.518   1.366  11.354 -0.5121  0.6046  2.1597
 8001TIP3   OH245493   5.681   4.550   0.406  0.1470 -0.3135 -0.4568
 8001TIP3    H145494   5.710   4.459   0.393  0.2892 -0.6108  1.5784
 8001TIP3    H245495   5.621   4.567   0.333 -1.2668 -2.6702  0.0400
 8002TIP3   OH245496   3.898   2.428   0.029  0.4101  0.3429 -0.2951
 8002TIP3    H145497   3.966   2.482  -0.010  2.1218  0.9495  3.2054
 8002TIP3    H245498   3.832   2.491   0.060  1.2987  0.3282  1.7474
 8003TIP3   OH245499   3.327   1.786   1.253  0.0311  0.1642 -0.0903
 8003TIP3    H145500   3.325   1.719   1.322  0.8187  0.4440  0.2175
 8003TIP3    H245501   3.373   1.743   1.180 -1.2952 -0.3215 -0.6610
 8004TIP3   OH245502   4.187   1.168   0.779 -0.0627 -0.7030  0.2126
 8004TIP3    H145503   4.263   1.208   0.737 -1.2599  1.6361  0.1693
 8004TIP3    H245504   4.210   1.166   0.872  0.1086 -0.1526  0.1833
 8005TIP3   OH245505   2.023   6.768  17.108  0.2734  0.1055  0.0187
 8005TIP3    H145506   2.089   6.770  17.178 -1.0087  0.2807  1.2815
 8005TIP3    H245507   1.990   6.677  17.108  0.2566  0.1100 -0.3451
 8006TIP3   OH245508   5.325   3.080   0.837 -0.3881  0.4248  0.1569
 8006TIP3    H145509   5.244   3.067   0.887  0.4756 -0.4624  1.3898
 8006TIP3    H245510   5.307   3.042   0.751 -1.7222  1.4738 -0.0549
 8007TIP3   OH245511   5.470   0.152   2.906 -0.2406 -0.1415 -0.3729
 8007TIP3    H145512   5.485   0.087   2.838  0.8986  0.4985 -0.7663
 8007TIP3    H245513   5.386   0.192   2.882 -0.9470 -1.4473 -0.1207
 8008TIP3   OH245514   1.671   3.945   0.407  0.1818 -0.0873 -0.4478
 8008TIP3    H145515   1.645   3.937   0.315 -2.1333 -1.1036  0.2218
 8008TIP3    H245516   1.612   4.010   0.444 -0.3509 -1.1999  0.7647
 8009TIP3   OH245517   5.680   0.429  16.089  0.4425  0.0808  0.4206
 8009TIP3    H145518   5.761   0.470  16.118  0.1249  1.6815 -0.8245
 8009TIP3    H245519   5.707   0.372  16.016  0.5132  0.2187  0.3400
 8010TIP3   OH245520   5.537   1.465   6.420  0.4871  0.4273  0.8359
 8010TIP3    H145521   5.487   1.542   6.393  0.2999  0.2383  0.6372
 8010TIP3    H245522   5.584   1.493   6.498  0.7705  0.8826  0.5097
 8011TIP3   OH245523   0.048   4.711  13.224  0.1282 -0.4145 -0.3271
 8011TIP3    H145524   0.018   4.654  13.154 -0.4192 -2.5305  1.5223
 8011TIP3    H245525   0.029   4.663  13.304  0.8572  1.8332  1.3000
 8012TIP3   OH245526   3.425   1.915  16.523 -0.0706 -0.4935  0.4822
 8012TIP3    H145527   3.408   1.842  16.464 -0.3865 -0.6620  0.7842
 8012TIP3    H245528   3.436   1.875  16.609 -0.3189 -0.1814  0.6616
 8013TIP3   OH245529   2.106   0.469   2.871  0.3706  0.7664 -0.3477
 8013TIP3    H145530   2.169   0.462   2.799 -1.1244  1.1416 -1.7403
 8013TIP3    H245531   2.031   0.515   2.834 -1.1973 -0.6206  0.9218
 8014TIP3   OH245532   5.391   1.430   4.608  0.1507 -0.0526  0.5034
 8014TIP3    H145533   5.473   1.401   4.568 -0.2550  1.3642 -1.5343
 8014TIP3    H245534   5.417   1.468   4.692  1.6617  0.7556 -0.2860
 8015TIP3   OH245535   1.736   5.962  16.545 -0.2114  0.4506  0.4123
 8015TIP3    H145536   1.747   5.924  16.632 -0.5837  0.1576  0.3339
 8015TIP3    H245537   1.644   5.989  16.542 -0.5397 -0.6768 -0.3353
 8016TIP3   OH245538   1.900   5.985  14.340 -0.6237  0.1414  0.5443
 8016TIP3    H145539   1.845   5.955  14.268 -0.2087 -0.1153  0.3314
 8016TIP3    H245540   1.989   5.959  14.315  0.0410  3.0050 -0.4920
 8017TIP3   OH245541   1.949   5.906  15.259  0.0755 -0.4762  0.1122
 8017TIP3    H145542   1.877   5.864  15.211  0.6297 -0.5502 -0.6651
 8017TIP3    H245543   1.910   5.929  15.343 -1.1165  0.3078 -0.6223
 8018TIP3   OH245544   1.797   0.377  12.631 -0.1346 -0.4635  0.1772
 8018TIP3    H145545   1.738   0.452  12.625 -0.5827 -0.9131 -1.8885
 8018TIP3    H245546   1.781   0.341  12.718 -1.3383  0.6949  0.4722
 8019TIP3   OH245547   6.359   2.471  15.096  0.0098 -0.4517 -0.3765
 8019TIP3    H145548   6.286   2.438  15.043 -1.2764  2.2749 -0.4492
 8019TIP3    H245549   6.401   2.537  15.041  0.2997  0.5322  0.9773
 8020TIP3   OH245550   5.733   5.971  16.969  0.1376  0.2909  0.0136
 8020TIP3    H145551   5.715   5.997  17.059 -2.1685 -0.8458 -0.0434
 8020TIP3    H245552   5.678   6.029  16.916 -3.0630 -2.6708 -0.2531
 8021TIP3   OH245553   0.202   5.747  12.690 -0.4867 -0.6400 -0.2359
 8021TIP3    H145554   0.148   5.801  12.749  1.1040  1.3064 -0.4470
 8021TIP3    H245555   0.169   5.768  12.603 -0.9014 -1.2578 -0.2332
 8022TIP3   OH245556   4.770   1.232  12.168  0.4357  0.0448 -1.0570
 8022TIP3    H145557   4.762   1.302  12.103  0.1645  1.1963  0.1667
 8022TIP3    H245558   4.814   1.161  12.121  1.2795  1.2553 -2.1891
 8023TIP3   OH245559   3.284   5.154  15.358 -0.1511  0.2888  0.5863
 8023TIP3    H145560   3.243   5.087  15.412  0.4823  0.8320  1.7812
 8023TIP3    H245561   3.220   5.172  15.289 -1.3788  0.2043  1.6642
 8024TIP3   OH245562   1.865   3.006   0.744  0.3608 -0.6368  0.0344
 8024TIP3    H145563   1.853   3.100   0.759 -0.6541 -1.0833  2.5886
 8024TIP3    H245564   1.791   2.981   0.688 -0.2979 -0.1653  0.6675
 8025TIP3   OH245565   2.481   3.815   3.976 -0.6776  0.2428  0.1584
 8025TIP3    H145566   2.402   3.867   3.961 -1.2097 -0.1591  1.3906
 8025TIP3    H245567   2.448   3.729   4.003  0.1698  0.2620  1.3223
 8026TIP3   OH245568   6.575   5.628   4.676  0.2917 -0.1591 -0.0827
 8026TIP3    H145569   6.519   5.687   4.626  0.9184 -0.5943 -1.3426
 8026TIP3    H245570   6.521   5.601   4.751 -0.1912  1.5444  0.2246
 8027TIP3   OH245571   0.200   3.997   1.682 -0.4474 -0.4961  0.2698
 8027TIP3    H145572   0.152   3.924   1.722 -1.3441 -1.6395 -2.6666
 8027TIP3    H245573   0.150   4.020   1.604  1.5981  1.0533 -0.6947
 8028TIP3   OH245574   6.651   3.537   1.049 -0.4254  0.0910  0.4792
 8028TIP3    H145575   6.615   3.600   0.986 -0.2448 -0.6776 -0.4334
 8028TIP3    H245576   6.576   3.510   1.102 -0.1658  2.5227  2.2566
 8029TIP3   OH245577   1.788   3.745  12.507 -0.2272  0.1884 -0.2212
 8029TIP3    H145578   1.769   3.729  12.600 -1.0162  1.2747 -0.1810
 8029TIP3    H245579   1.712   3.710  12.460  0.1874 -0.3925 -0.4795
 8030TIP3   OH245580   1.289   4.949  11.526  0.0492 -0.6033 -0.1680
 8030TIP3    H145581   1.339   5.011  11.473  0.9005 -0.8160  0.3738
 8030TIP3    H245582   1.260   4.882  11.464 -0.5220  0.1008 -0.6830
 8031TIP3   OH245583   4.511   5.048  14.087  0.2073  0.3020  0.4499
 8031TIP3    H145584   4.458   5.123  14.113  0.9855  1.2609 -0.6016
 8031TIP3    H245585   4.578   5.041  14.154  0.0603  0.4644  0.6162
 8032TIP3   OH245586   1.197   6.090   1.961 -0.7249  0.3540 -0.3650
 8032TIP3    H145587   1.272   6.140   1.929  1.6197 -3.1481 -0.9105
 8032TIP3    H245588   1.126   6.113   1.901  1.2513  0.3904 -2.8859
 8033TIP3   OH245589   4.725   4.921  14.557  0.4273  0.0039 -0.2827
 8033TIP3    H145590   4.683   4.849  14.603 -1.3094  0.3891 -1.1886
 8033TIP3    H245591   4.705   4.998  14.611 -0.5379  0.2712 -1.0107
 8034TIP3   OH245592   1.103   3.170   4.947  0.0377  0.2325 -0.5845
 8034TIP3    H145593   1.032   3.226   4.979 -0.8355 -1.1421 -0.0183
 8034TIP3    H245594   1.180   3.227   4.946 -1.0179  1.7072 -1.0058
 8035TIP3   OH245595   0.149   2.631   3.983  0.0152  0.0453 -0.9875
 8035TIP3    H145596   0.219   2.587   4.032 -1.1125 -0.3964  0.2786
 8035TIP3    H245597   0.162   2.603   3.892  0.3266 -1.5866 -0.4744
 8036TIP3   OH245598   4.030   3.757  16.759  0.0255 -0.1767  0.0752
 8036TIP3    H145599   4.086   3.821  16.715  0.0942  1.1878  2.0465
 8036TIP3    H245600   4.025   3.684  16.697  2.9897  0.1349 -0.6910
 8037TIP3   OH245601   0.923   1.594  14.120 -0.4134 -0.2661 -0.1858
 8037TIP3    H145602   0.908   1.505  14.151  0.2697 -1.1882 -2.3069
 8037TIP3    H245603   0.866   1.603  14.044 -0.9940  1.3907  0.3887
 8038TIP3   OH245604   2.930   0.242  14.437  0.5948  0.0891 -0.5918
 8038TIP3    H145605   3.019   0.246  14.473  1.2231 -1.5466 -1.8218
 8038TIP3    H245606   2.887   0.320  14.471  1.8906 -0.0728  1.6113
 8039TIP3   OH245607   4.386   0.560  11.553 -0.3804 -0.5590 -0.3158
 8039TIP3    H145608   4.389   0.572  11.648  2.5568 -0.6822 -0.2856
 8039TIP3    H245609   4.445   0.627  11.519  2.4130 -3.3808 -1.5680
 8040TIP3   OH245610   2.503   0.605   6.019 -0.2097 -0.4286 -0.5521
 8040TIP3    H145611   2.519   0.511   6.005  3.1643 -0.2606  1.1629
 8040TIP3    H245612   2.493   0.614   6.113 -1.7923  0.8418 -0.8003
 8041TIP3   OH245613   0.496   3.074   2.250  0.1825 -0.5530 -0.1551
 8041TIP3    H145614   0.442   3.110   2.181 -0.4077 -0.6871  0.2248
 8041TIP3    H245615   0.451   2.993   2.275 -0.8359  0.5573  1.8587
 8042TIP3   OH245616   1.621   0.239  13.664 -0.0971 -0.1321  0.1422
 8042TIP3    H145617   1.527   0.255  13.671  0.1885  1.0704  2.0972
 8042TIP3    H245618   1.636   0.220  13.572 -2.4162 -1.5580 -0.0293
 8043TIP3   OH245619   3.269   3.561  15.915  0.1368  0.4326  0.2278
 8043TIP3    H145620   3.345   3.525  15.962 -0.9967 -0.1534  1.6934
 8043TIP3    H245621   3.234   3.628  15.973 -0.1406  1.1230 -0.7065
 8044TIP3   OH245622   5.723   4.575  12.647 -0.1336  0.1373  0.0703
 8044TIP3    H145623   5.754   4.650  12.597  0.4004  0.0399  0.2509
 8044TIP3    H245624   5.693   4.612  12.730  1.0079  0.0530  0.5361
 8045TIP3   OH245625   3.199   0.701  16.583 -0.0205 -0.4378  0.5814
 8045TIP3    H145626   3.180   0.754  16.660 -0.3533 -0.3199  0.4171
 8045TIP3    H245627   3.153   0.618  16.599  0.0842 -0.4923  0.6032
 8046TIP3   OH245628   2.773   3.884   5.387 -0.1079 -0.2101 -0.8407
 8046TIP3    H145629   2.790   3.914   5.476  0.7273 -1.0829 -0.6858
 8046TIP3    H245630   2.860   3.881   5.346 -0.4519 -0.0812 -1.5965
 8047TIP3   OH245631   1.731   2.955  12.100  0.0181  0.4125  0.4395
 8047TIP3    H145632   1.768   2.907  12.025 -1.4985  1.9159 -1.3910
 8047TIP3    H245633   1.776   3.039  12.099 -0.5696  0.7342  0.7364
 8048TIP3   OH245634   1.406   2.937  15.228 -0.0288  0.6035 -0.2380
 8048TIP3    H145635   1.431   3.029  15.224  3.4062 -0.2557 -1.9981
 8048TIP3    H245636   1.339   2.927  15.160  1.0160  1.4404 -1.4127
 8049TIP3   OH245637   2.881   2.612  12.048 -0.4017  0.8056  0.3152
 8049TIP3    H145638   2.800   2.576  12.011 -0.8236  0.1946  1.7462
 8049TIP3    H245639   2.903   2.552  12.119  1.8674  0.4012 -0.6533
 8050TIP3   OH245640   1.842   1.861  14.602  0.3958 -0.4539 -0.3719
 8050TIP3    H145641   1.904   1.914  14.653  0.0934  0.6547 -1.1183
 8050TIP3    H245642   1.890   1.841  14.522  0.4610 -1.2362 -0.1474
 8051TIP3   OH245643   0.625   5.542   3.264 -0.6236  0.0603  0.9168
 8051TIP3    H145644   0.631   5.559   3.170  0.5573 -0.0784  0.9539
 8051TIP3    H245645   0.553   5.598   3.294 -0.6603  0.5100  0.0310
 8052TIP3   OH245646   1.328   4.698   4.282 -0.0049 -0.0511  0.0789
 8052TIP3    H145647   1.262   4.633   4.306  1.4041 -1.5694  0.0164
 8052TIP3    H245648   1.354   4.737   4.366  1.4430 -1.9177  0.5612
 8053TIP3   OH245649   3.903   0.060   4.826  0.2100  0.1588  0.4027
 8053TIP3    H145650   3.925   0.106   4.745 -2.8847 -1.6402 -1.7288
 8053TIP3    H245651   3.982   0.010   4.848  0.4213 -1.4631 -3.2533
 8054TIP3   OH245652   3.577   4.243   3.452  0.2121 -0.2121 -0.7523
 8054TIP3    H145653   3.589   4.152   3.478 -0.0233  0.2953  1.3057
 8054TIP3    H245654   3.513   4.278   3.514  0.7938  1.5383 -1.0631
 8055TIP3   OH245655   3.721   2.436  11.884 -0.8765  0.1052 -0.3521
 8055TIP3    H145656   3.681   2.418  11.969 -0.4892 -0.7350 -0.3415
 8055TIP3    H245657   3.727   2.532  11.881 -0.4517  0.1345  0.7724
 8056TIP3   OH245658   6.403   3.205  14.369  0.1112  0.5817 -0.0196
 8056TIP3    H145659   6.344   3.271  14.332 -1.6934 -1.6085 -1.2226
 8056TIP3    H245660   6.373   3.122  14.333  2.8517 -0.8645  0.7408
 8057TIP3   OH245661   4.444   3.966  15.164 -0.0792 -0.1000 -0.8619
 8057TIP3    H145662   4.527   3.963  15.115  1.3661  2.5166  1.1819
 8057TIP3    H245663   4.466   3.930  15.250 -1.9253 -2.2131 -1.1853
 8058TIP3   OH245664   5.797   0.282  15.910 -0.0971  0.2662  0.8305
 8058TIP3    H145665   5.759   0.216  15.852  1.1140  0.1371  0.1560
 8058TIP3    H245666   5.891   0.276  15.895 -0.0006  2.8269  0.0009
 8059TIP3   OH245667   2.985   1.907  14.933 -0.6056  0.2593 -0.2625
 8059TIP3    H145668   2.919   1.843  14.961  0.4049 -0.0711  1.4470
 8059TIP3    H245669   3.005   1.882  14.842  0.3361 -2.3671  0.5900
 8060TIP3   OH245670   1.523   1.102  15.682 -0.2236  0.0596  0.4046
 8060TIP3    H145671   1.474   1.147  15.751  1.1275  0.0160  1.4226
 8060TIP3    H245672   1.603   1.154  15.671  0.6115 -1.1775  0.4637
 8061TIP3   OH245673   3.331   2.679   4.686  0.3261  0.2267  0.3473
 8061TIP3    H145674   3.329   2.772   4.660  2.1450  0.4196  0.7784
 8061TIP3    H245675   3.313   2.680   4.780 -2.4556 -0.1549 -0.0883
 8062TIP3   OH245676   1.599   4.813  14.280  0.0681 -0.1841 -0.3345
 8062TIP3    H145677   1.557   4.883  14.330 -0.9438 -1.5219  0.7954
 8062TIP3    H245678   1.533   4.786  14.216  0.1990 -0.5224 -0.3295
 8063TIP3   OH245679   0.219   6.141  11.291 -0.4949  0.5507  0.6793
 8063TIP3    H145680   0.147   6.192  11.255 -1.3021  0.0743  1.5525
 8063TIP3    H245681   0.268   6.202  11.346  1.7186  1.7224 -2.3323
 8064TIP3   OH245682   4.415   3.962   5.178 -0.0734 -0.6240 -0.3259
 8064TIP3    H145683   4.424   3.905   5.255 -0.3857  0.0554  0.2324
 8064TIP3    H245684   4.428   3.904   5.103  3.4311 -0.8013  0.2133
 8065TIP3   OH245685   2.605   3.250  12.140 -0.4474  0.5600  0.2778
 8065TIP3    H145686   2.600   3.201  12.222 -1.5219 -0.5479 -0.4143
 8065TIP3    H245687   2.695   3.282  12.137 -0.2154  0.1127  1.5889
 8066TIP3   OH245688   5.827   3.932  12.964 -0.0046 -0.3748  0.6088
 8066TIP3    H145689   5.818   3.841  12.993  1.0327 -0.3424  1.0574
 8066TIP3    H245690   5.832   3.983  13.045  1.6624 -0.1568  0.4070
 8067TIP3   OH245691   3.237   0.142   0.547  0.4580 -0.3645 -0.1682
 8067TIP3    H145692   3.230   0.225   0.501  1.8595 -0.3745 -0.4492
 8067TIP3    H245693   3.259   0.079   0.478 -2.9676 -1.4994 -0.4003
 8068TIP3   OH245694   1.304   3.413   2.720 -0.1618  0.5613  0.6676
 8068TIP3    H145695   1.351   3.330   2.728 -0.0281  0.6165  0.4610
 8068TIP3    H245696   1.356   3.464   2.658  0.8070  1.5379  2.1972
 8069TIP3   OH245697   2.667   3.860  13.549 -0.6603  0.2829  0.8916
 8069TIP3    H145698   2.717   3.916  13.608 -0.6031 -1.0417  2.1469
 8069TIP3    H245699   2.586   3.908  13.533 -0.2456  1.1079  1.2359
 8070TIP3   OH245700   0.420   5.656   2.109 -0.0345 -0.1196 -0.2161
 8070TIP3    H145701   0.384   5.638   2.022  0.9746 -1.1531 -0.4426
 8070TIP3    H245702   0.437   5.750   2.109 -1.0467  0.0869 -0.7288
 8071TIP3   OH245703   4.528   2.831   6.679 -0.1802  0.4862  0.0158
 8071TIP3    H145704   4.572   2.895   6.623  1.3160  1.5357  2.2435
 8071TIP3    H245705   4.442   2.870   6.697 -0.4081  0.4560 -0.9502
 8072TIP3   OH245706   5.124   3.026   5.988 -0.1653  0.1525 -0.0821
 8072TIP3    H145707   5.085   3.078   6.058  0.0817  0.2205  0.0057
 8072TIP3    H245708   5.070   2.947   5.983  0.0611 -0.0368  0.4576
 8073TIP3   OH245709   4.706   3.743  12.596 -0.2057 -0.3845  0.3619
 8073TIP3    H145710   4.800   3.760  12.592  0.0826 -1.7988  0.6440
 8073TIP3    H245711   4.672   3.813  12.652  0.7854 -0.2619  0.8427
 8074TIP3   OH245712   5.836   5.934   4.731  0.1526 -0.2575 -0.6457
 8074TIP3    H145713   5.838   5.894   4.644 -1.2682  0.9553 -1.2770
 8074TIP3    H245714   5.800   6.021   4.716 -0.6456 -0.2260  1.2428
 8075TIP3   OH245715   3.485   4.869   0.161 -0.2173 -0.0197 -0.4917
 8075TIP3    H145716   3.437   4.821   0.229  0.2408  1.9220  1.3126
 8075TIP3    H245717   3.423   4.874   0.088 -1.4995 -0.5048  0.5094
 8076TIP3   OH245718   1.427   2.135   6.399 -0.1124  0.2452  0.2845
 8076TIP3    H145719   1.500   2.153   6.341 -1.6908  1.3513 -1.5026
 8076TIP3    H245720   1.438   2.197   6.472  1.2656 -0.3398  0.5859
 8077TIP3   OH245721   4.643   0.124  13.866  0.0277 -0.0116  0.2244
 8077TIP3    H145722   4.579   0.191  13.841 -0.7168 -1.4498 -2.0739
 8077TIP3    H245723   4.717   0.139  13.807  0.2828 -0.5774  0.3958
 8078TIP3   OH245724   1.468   4.949  14.473  0.5698  0.2063  0.4607
 8078TIP3    H145725   1.376   4.939  14.451  0.7397  1.7868 -1.3279
 8078TIP3    H245726   1.472   5.029  14.526  0.8849  0.0829  0.6272
 8079TIP3   OH245727   3.377   0.646   5.641  0.0408  0.0416  0.4312
 8079TIP3    H145728   3.468   0.673   5.652  0.0621  0.5900 -0.8755
 8079TIP3    H245729   3.380   0.583   5.569 -0.5754 -0.2128  0.6235
 8080TIP3   OH245730   6.567   0.390  15.035  0.0173  0.2334 -0.3385
 8080TIP3    H145731   6.480   0.372  15.071 -0.1615  0.8957 -0.4186
 8080TIP3    H245732   6.584   0.317  14.975 -0.2318 -0.2012  0.1143
 8081TIP3   OH245733   3.253   4.603   5.513  0.3897 -0.3060 -0.3549
 8081TIP3    H145734   3.177   4.595   5.570 -1.0638  0.7973 -2.0369
 8081TIP3    H245735   3.280   4.694   5.522 -0.3512  0.1037 -1.9557
 8082TIP3   OH245736   4.901   1.111  11.579 -0.3649 -0.4262  0.3250
 8082TIP3    H145737   4.848   1.191  11.582  0.9771  0.4898  0.2577
 8082TIP3    H245738   4.840   1.043  11.550 -1.2953  0.7652 -0.6172
 8083TIP3   OH245739   4.031   6.239   2.069  0.8442 -0.0290  0.5971
 8083TIP3    H145740   4.006   6.316   2.018  0.1318  0.8959  2.2670
 8083TIP3    H245741   3.949   6.194   2.087  1.0967 -0.3793  0.8826
 8084TIP3   OH245742   3.153   4.171  16.905 -0.7186 -0.0173  0.3905
 8084TIP3    H145743   3.214   4.126  16.846 -1.1472  1.3323 -1.1748
 8084TIP3    H245744   3.202   4.184  16.986  0.4893 -0.4621 -0.2491
 8085TIP3   OH245745   2.734   3.732  14.713  0.4973  0.4541 -0.1336
 8085TIP3    H145746   2.697   3.802  14.767 -1.2902 -1.1024  0.8062
 8085TIP3    H245747   2.670   3.661  14.718  0.1126  0.2111 -4.4977
 8086TIP3   OH245748   0.277   6.745  16.929  0.2360 -0.3460  0.3408
 8086TIP3    H145749   0.190   6.766  16.964  0.8036  0.4293  1.3396
 8086TIP3    H245750   0.285   6.797  16.849 -0.1329 -0.2708  0.3529
 8087TIP3   OH245751   4.510   0.448  12.992  0.0373 -0.2342 -0.2668
 8087TIP3    H145752   4.546   0.417  12.908  2.0623 -0.5526  0.6551
 8087TIP3    H245753   4.534   0.379  13.054 -0.3006  0.5999  0.8034
 8088TIP3   OH245754   6.596   2.503  11.976 -0.6010 -0.0677  0.2455
 8088TIP3    H145755   6.575   2.509  12.069 -1.5293 -0.7821  0.1014
 8088TIP3    H245756   6.515   2.531  11.932 -0.2502  0.0244 -0.3457
 8089TIP3   OH245757   3.288   1.937  14.411  0.0270 -0.0168  0.2280
 8089TIP3    H145758   3.302   1.988  14.491 -1.5229 -1.9747  1.8435
 8089TIP3    H245759   3.363   1.959  14.355  0.1308  2.9382  1.3435
 8090TIP3   OH245760   1.103   4.714   3.974 -0.3269 -0.4298  0.3369
 8090TIP3    H145761   1.013   4.745   3.977 -0.7643 -1.6706  0.4786
 8090TIP3    H245762   1.150   4.771   4.036 -1.0990 -0.0797  0.6105
 8091TIP3   OH245763   1.095   0.391  16.101  0.3370  0.2253 -0.1926
 8091TIP3    H145764   1.164   0.337  16.140  0.2074  1.1000  1.3126
 8091TIP3    H245765   1.102   0.375  16.007  3.4044  1.2162 -0.2258
 8092TIP3   OH245766   0.878   6.522  11.470 -0.1768 -0.0511  0.0240
 8092TIP3    H145767   0.787   6.491  11.466 -0.5824  1.0059  0.6682
 8092TIP3    H245768   0.892   6.565  11.385 -1.1826  2.1066  0.8756
 8093TIP3   OH245769   2.222   6.597  11.795  0.7118  0.0577  0.0814
 8093TIP3    H145770   2.180   6.677  11.766  1.7852 -0.2077 -2.5801
 8093TIP3    H245771   2.162   6.527  11.769  0.8703 -0.1110  0.1628
 8094TIP3   OH245772   6.244   6.438   5.890 -0.5640 -0.0979  0.8375
 8094TIP3    H145773   6.197   6.400   5.964  0.4684 -0.0228  1.5471
 8094TIP3    H245774   6.336   6.421   5.909 -0.3021 -0.5060 -0.6684
 8095TIP3   OH245775   1.978   1.455   6.215  0.7188  0.7906 -0.2488
 8095TIP3    H145776   2.047   1.393   6.240  0.6531  1.1713  0.9322
 8095TIP3    H245777   1.957   1.501   6.296 -0.6750  0.9328 -0.6736
 8096TIP3   OH245778   0.117   0.573  11.203 -0.1188 -0.0464  0.1950
 8096TIP3    H145779   0.114   0.484  11.236 -1.1926  0.0863  0.5017
 8096TIP3    H245780   0.044   0.579  11.141  2.2039 -0.4681 -2.8083
 8097TIP3   OH245781   2.933   0.021  16.940  0.2903  0.4384 -0.1886
 8097TIP3    H145782   2.860  -0.035  16.915  1.2144 -0.9577  0.1151
 8097TIP3    H245783   2.893   0.098  16.980 -1.0004 -0.5323  0.4453
 8098TIP3   OH245784   3.841   4.708   4.231 -0.5409  0.9998 -0.0758
 8098TIP3    H145785   3.853   4.775   4.164  1.4528 -0.3694 -1.2092
 8098TIP3    H245786   3.846   4.625   4.182  1.7792 -0.0726  1.7982
 8099TIP3   OH245787   1.833   3.153  16.954  0.0377  0.5483  0.1066
 8099TIP3    H145788   1.821   3.088  16.885  1.9662 -0.7085  0.8894
 8099TIP3    H245789   1.786   3.116  17.029  1.7355 -0.3772  0.7687
 8100TIP3   OH245790   4.040   6.331  11.815 -0.0788 -0.0427 -0.1310
 8100TIP3    H145791   4.094   6.367  11.745  0.0006  0.6157  0.2665
 8100TIP3    H245792   3.950   6.353  11.789 -0.1022 -0.4265 -0.3820
 8101TIP3   OH245793   0.946   2.316  11.535 -0.9160 -0.0752 -0.3201
 8101TIP3    H145794   0.899   2.334  11.454 -0.5793 -1.9340 -0.9729
 8101TIP3    H245795   1.024   2.267  11.507 -0.4749 -0.2017  1.0687
 8102TIP3   OH245796   6.078   3.029  15.600 -0.5867 -0.6021  0.9363
 8102TIP3    H145797   6.065   2.934  15.591 -0.4801 -0.5610  0.3197
 8102TIP3    H245798   6.144   3.038  15.668  2.4561 -1.1614 -1.6966
 8103TIP3   OH245799   0.026   0.081  16.544 -0.1210  0.2652  0.1739
 8103TIP3    H145800  -0.067   0.096  16.565 -0.2538 -1.0455  0.6185
 8103TIP3    H245801   0.060   0.168  16.523 -1.3471  0.8326  0.4299
 8104TIP3   OH245802   4.683   3.018  11.737  0.1488  0.0740  1.5920
 8104TIP3    H145803   4.590   3.031  11.719  0.0248  1.0766  2.7728
 8104TIP3    H245804   4.685   2.954  11.809  0.2647  1.1574  2.5896
 8105TIP3   OH245805   4.113   4.452   1.244 -0.1991 -0.3313  0.3545
 8105TIP3    H145806   4.144   4.536   1.278 -0.3713  0.5741 -1.5957
 8105TIP3    H245807   4.059   4.416   1.315  1.7855  0.0392  2.1584
 8106TIP3   OH245808   3.779   5.117   0.092  0.0852  0.2055 -0.1207
 8106TIP3    H145809   3.691   5.091   0.067  0.8319 -1.3638 -1.3463
 8106TIP3    H245810   3.804   5.055   0.161 -0.5717  2.1353  1.9820
 8107TIP3   OH245811   4.660   3.578   5.597  0.0987  0.1156  0.4067
 8107TIP3    H145812   4.602   3.514   5.557  1.3797 -1.8443  1.4600
 8107TIP3    H245813   4.602   3.640   5.640 -1.2149  0.3406 -1.5922
 8108TIP3   OH245814   1.140   1.283   1.155 -0.9404 -0.2906  0.8704
 8108TIP3    H145815   1.076   1.316   1.219 -0.1043  0.3504  1.3987
 8108TIP3    H245816   1.201   1.232   1.208 -1.4565 -1.5959  0.2461
 8109TIP3   OH245817   2.915   0.593   5.148  0.1410  0.2229 -0.8239
 8109TIP3    H145818   2.870   0.627   5.070  0.5957  0.4383 -0.9929
 8109TIP3    H245819   3.007   0.590   5.123  0.2561  0.0428 -0.3809
 8110TIP3   OH245820   2.112   5.308  11.257 -0.2954 -0.2994 -0.4104
 8110TIP3    H145821   2.066   5.318  11.174 -0.7487 -0.6019 -0.1979
 8110TIP3    H245822   2.145   5.219  11.255 -1.3639 -0.7302  0.2560
 8111TIP3   OH245823   0.234   0.426  10.395 -0.1019  0.3168 -0.0766
 8111TIP3    H145824   0.219   0.350  10.339 -2.2358  0.6258 -0.0061
 8111TIP3    H245825   0.147   0.448  10.430  0.9393  0.8774  2.3926
 8112TIP3   OH245826   2.950   3.715   4.524 -0.1958  0.4068  0.7805
 8112TIP3    H145827   2.970   3.760   4.442 -0.3855 -1.1866 -0.1772
 8112TIP3    H245828   3.035   3.695   4.562  0.0160 -1.6383 -0.6358
 8113TIP3   OH245829   0.550   6.079  14.156 -0.3472 -0.1494  0.2985
 8113TIP3    H145830   0.560   6.031  14.239  0.4990 -0.9259 -0.2319
 8113TIP3    H245831   0.635   6.071  14.114 -0.5281  0.9390 -0.2882
 8114TIP3   OH245832   1.530   4.078  17.295  0.2196 -0.5581 -0.0040
 8114TIP3    H145833   1.487   3.992  17.295 -0.0949 -0.4025 -0.2778
 8114TIP3    H245834   1.516   4.112  17.383  1.1729 -1.1968  0.4099
 8115TIP3   OH245835   4.462   2.124   2.098 -0.1339  0.2377 -0.1256
 8115TIP3    H145836   4.389   2.170   2.139 -0.2383  0.1349 -0.1955
 8115TIP3    H245837   4.536   2.141   2.156 -0.5869 -1.1004  0.9047
 8116TIP3   OH245838   6.643   5.995   5.000  0.1954  0.2549  0.3383
 8116TIP3    H145839   6.579   5.923   5.000  0.6286 -0.1297  0.2833
 8116TIP3    H245840   6.643   6.026   5.091  4.1751 -3.5668  1.9753
 8117TIP3   OH245841   1.165   5.231   4.843  0.5523  0.3471 -0.2876
 8117TIP3    H145842   1.213   5.211   4.923  2.7174  3.0994 -0.7458
 8117TIP3    H245843   1.104   5.301   4.869 -0.8023 -0.7075 -0.4914
 8118TIP3   OH245844   3.198   3.661  14.028 -0.2118 -0.7149 -0.3242
 8118TIP3    H145845   3.212   3.704  13.944  1.2147  0.5748  0.5064
 8118TIP3    H245846   3.286   3.647  14.063 -0.7780 -0.1153  1.4553
 8119TIP3   OH245847   2.967   4.508   2.875  0.2220  0.0974  0.0675
 8119TIP3    H145848   2.943   4.415   2.875 -1.0663  0.3687 -1.8465
 8119TIP3    H245849   2.890   4.553   2.908  0.7640  0.5135  0.7776
 8120TIP3   OH245850   4.625   4.579   4.058  0.4165  0.1701 -0.4805
 8120TIP3    H145851   4.678   4.540   4.127  0.2135  2.2411  0.9419
 8120TIP3    H245852   4.671   4.559   3.977  3.2360  1.5590  0.6653
 8121TIP3   OH245853   0.526   4.268  15.986  0.5521  0.5872  0.3100
 8121TIP3    H145854   0.441   4.252  16.025  0.8732 -0.3615  0.6665
 8121TIP3    H245855   0.535   4.199  15.920  0.2559  1.8181 -1.0603
 8122TIP3   OH245856   2.574   1.004  11.660  0.2262  0.5323  0.1570
 8122TIP3    H145857   2.539   0.924  11.622  1.2309 -0.8391  1.9491
 8122TIP3    H245858   2.652   1.024  11.608 -0.1499  0.4681 -0.4302
 8123TIP3   OH245859   2.475   2.784  13.100  0.3233  0.0223  0.3598
 8123TIP3    H145860   2.527   2.705  13.090 -0.6920 -0.5244 -0.9850
 8123TIP3    H245861   2.513   2.847  13.039  0.1468  0.0176  0.2418
 8124TIP3   OH245862   4.994   2.678   5.473 -0.0769  0.1142 -0.2192
 8124TIP3    H145863   5.066   2.634   5.427 -0.5297 -1.9842  0.9578
 8124TIP3    H245864   5.023   2.683   5.564 -1.2506 -0.4095  0.2024
 8125TIP3   OH245865   2.367   3.590  12.427  0.0960  0.3083  0.2301
 8125TIP3    H145866   2.452   3.548  12.436  0.7099  1.0238 -1.7325
 8125TIP3    H245867   2.358   3.607  12.333 -1.9053  0.8900  0.4762
 8126TIP3   OH245868   4.103   6.028  15.109  0.0487  0.1506  0.3953
 8126TIP3    H145869   4.130   6.095  15.172  1.5971 -2.1385  2.3399
 8126TIP3    H245870   4.184   5.982  15.087 -0.4755  0.5520 -3.0735
 8127TIP3   OH245871   0.206   2.713   0.780 -0.2392  0.5343  0.4237
 8127TIP3    H145872   0.178   2.685   0.693 -1.0469 -1.9178  1.3792
 8127TIP3    H245873   0.279   2.655   0.801 -2.1203 -1.2335  2.6059
 8128TIP3   OH245874   0.896   5.172   2.731  0.6163  0.0700 -0.7227
 8128TIP3    H145875   0.920   5.141   2.819 -1.3469  1.4000  0.3732
 8128TIP3    H245876   0.851   5.097   2.691 -0.2692  0.0650  0.2280
 8129TIP3   OH245877   3.018   2.356   3.175 -0.2364 -0.5263 -0.7833
 8129TIP3    H145878   2.944   2.320   3.225 -2.3149  2.0466 -1.8316
 8129TIP3    H245879   3.065   2.409   3.239 -0.7783 -0.1357 -0.7015
 8130TIP3   OH245880   5.497   1.747   6.781 -0.4462 -0.2771 -0.4227
 8130TIP3    H145881   5.463   1.734   6.869  0.9161  2.9806  0.7689
 8130TIP3    H245882   5.483   1.840   6.763  2.6366  0.0353 -2.0405
 8131TIP3   OH245883   1.080   4.698  13.652  0.3648  0.0957 -0.2192
 8131TIP3    H145884   1.138   4.626  13.626  0.4005 -0.3124  0.9080
 8131TIP3    H245885   1.051   4.674  13.740 -0.2335  1.0956 -0.1303
 8132TIP3   OH245886   5.876   3.185   4.413 -0.1814  0.1296 -0.6902
 8132TIP3    H145887   5.949   3.130   4.384  0.6344  0.5823  0.4487
 8132TIP3    H245888   5.902   3.274   4.391 -0.9258  0.2006 -1.3434
 8133TIP3   OH245889   1.918   5.631  13.068 -0.0114 -0.2018 -0.4522
 8133TIP3    H145890   1.977   5.556  13.075 -0.1544 -0.3212 -0.5058
 8133TIP3    H245891   1.891   5.649  13.158  0.6468  0.2950 -0.3476
 8134TIP3   OH245892   5.890   3.367   0.604  0.7366 -0.3007 -0.4069
 8134TIP3    H145893   5.966   3.358   0.547  0.9833 -1.6410  0.1097
 8134TIP3    H245894   5.916   3.327   0.687 -1.0124 -2.1877 -0.6879
 8135TIP3   OH245895   4.755   0.816  14.511  0.1507 -0.7360 -0.3502
 8135TIP3    H145896   4.750   0.766  14.429 -0.7657 -0.7296 -0.3084
 8135TIP3    H245897   4.686   0.778  14.566  1.5813 -1.6156  0.9227
 8136TIP3   OH245898   1.853   5.049  11.439  0.1824  0.2212 -0.3542
 8136TIP3    H145899   1.842   5.132  11.393  0.3551  0.2016 -0.4295
 8136TIP3    H245900   1.946   5.045  11.460  0.1419  0.1285 -0.1955
 8137TIP3   OH245901   5.719   2.483  16.514  0.2387 -0.2686 -0.4258
 8137TIP3    H145902   5.770   2.503  16.593 -0.0449 -1.9112  0.2110
 8137TIP3    H245903   5.638   2.533  16.524 -0.1327 -1.0655  0.7368
 8138TIP3   OH245904   4.577   5.912  13.725 -0.2148  0.0710  0.3893
 8138TIP3    H145905   4.637   5.922  13.799  2.1975  0.5079 -1.4901
 8138TIP3    H245906   4.523   5.991  13.727 -1.4049 -0.6966  2.5814
 8139TIP3   OH245907   4.384   5.697  15.729  0.3694  0.1827  0.1161
 8139TIP3    H145908   4.314   5.653  15.777  0.6823 -0.5987 -0.1187
 8139TIP3    H245909   4.363   5.683  15.637  1.3587 -0.9746  0.0333
 8140TIP3   OH245910   5.934   0.382  16.447 -0.2591 -0.1486 -0.2572
 8140TIP3    H145911   5.903   0.301  16.405 -3.4183  0.7163  0.1381
 8140TIP3    H245912   5.986   0.351  16.522 -1.8116 -1.9011  0.1863
 8141TIP3   OH245913   4.314   4.353   1.476  0.5165 -0.3175  0.1735
 8141TIP3    H145914   4.244   4.417   1.487 -0.6639 -1.6252  0.6656
 8141TIP3    H245915   4.279   4.291   1.411  1.4195 -0.7425  0.0788
 8142TIP3   OH245916   1.607   2.740  15.221 -0.2341 -0.2691  0.3219
 8142TIP3    H145917   1.558   2.665  15.254 -0.4222 -0.9445 -1.4061
 8142TIP3    H245918   1.544   2.812  15.220 -0.0554 -0.0548  1.9709
 8143TIP3   OH245919   1.498   5.879   2.568  0.6163 -0.0890 -0.0350
 8143TIP3    H145920   1.585   5.918   2.563  1.1828 -1.1196  1.2219
 8143TIP3    H245921   1.512   5.786   2.550 -0.5257  0.0333 -1.7207
 8144TIP3   OH245922   4.836   4.035  15.790 -0.1181 -0.1668 -0.2767
 8144TIP3    H145923   4.849   4.095  15.863 -0.8255  1.0462 -1.1031
 8144TIP3    H245924   4.776   3.969  15.824  0.8024 -0.5296  0.7006
 8145TIP3   OH245925   5.398   3.423  10.786  0.3719  0.3688 -0.5524
 8145TIP3    H145926   5.476   3.370  10.800  0.9043  1.2070 -0.2786
 8145TIP3    H245927   5.423   3.510  10.816 -0.5670  0.7194 -0.7698
 8146TIP3   OH245928   4.689   5.870  14.979  0.2008  0.0816 -0.0209
 8146TIP3    H145929   4.698   5.799  15.043  0.9888  1.8118  1.9096
 8146TIP3    H245930   4.770   5.866  14.928 -0.2584 -1.0718 -0.6947
 8147TIP3   OH245931   3.739   0.258   4.182 -0.1506  0.6866  0.1116
 8147TIP3    H145932   3.745   0.201   4.259 -1.3623 -0.7451 -0.7908
 8147TIP3    H245933   3.648   0.287   4.181 -0.0673  0.9324 -0.6227
 8148TIP3   OH245934   5.377   0.327   0.406  0.3106  0.2298  0.0139
 8148TIP3    H145935   5.458   0.299   0.449 -0.0305 -0.4213  0.2528
 8148TIP3    H245936   5.368   0.268   0.331 -0.6629 -0.6484  0.7880
 8149TIP3   OH245937   4.115   1.976  14.292  1.0075 -0.2645 -0.3157
 8149TIP3    H145938   4.205   1.944  14.285  1.4815  0.8305  0.5183
 8149TIP3    H245939   4.107   2.005  14.383 -0.1366 -0.1707 -0.4322
 8150TIP3   OH245940   3.899   4.038   1.556  0.2113 -0.1455  0.7014
 8150TIP3    H145941   3.864   3.949   1.547 -0.1932 -0.1563  2.0346
 8150TIP3    H245942   3.824   4.089   1.587 -0.0908  1.1304 -1.8621
 8151TIP3   OH245943   0.689   3.603   5.246  0.0277 -0.7175  0.2947
 8151TIP3    H145944   0.754   3.649   5.298 -0.4430  0.5314 -0.1839
 8151TIP3    H245945   0.715   3.620   5.155  0.2607 -2.0139  0.1038
 8152TIP3   OH245946   3.278   5.476   5.319  0.2264 -0.4162  0.1982
 8152TIP3    H145947   3.255   5.448   5.231  0.2022 -1.1391  0.4259
 8152TIP3    H245948   3.365   5.440   5.334  0.8480  0.9193 -0.0542
 8153TIP3   OH245949   2.076   3.627   6.584  0.4987  0.2073  0.2068
 8153TIP3    H145950   1.980   3.627   6.582  0.2946  0.3096  3.9142
 8153TIP3    H245951   2.099   3.706   6.633  2.7318  1.5113 -2.6045
 8154TIP3   OH245952   5.265   5.802  17.034  0.5778  0.1498  0.1998
 8154TIP3    H145953   5.358   5.804  17.053  0.8459  1.0576 -1.0704
 8154TIP3    H245954   5.257   5.843  16.948 -0.9435 -0.3249  0.0798
 8155TIP3   OH245955   2.478   6.373  16.784 -0.6740  0.0919 -0.5174
 8155TIP3    H145956   2.489   6.365  16.879  0.0359 -1.6374 -0.7212
 8155TIP3    H245957   2.390   6.408  16.773 -0.6530  0.5983  0.7803
 8156TIP3   OH245958   3.717   5.595   3.402 -0.4973 -0.0696 -0.0708
 8156TIP3    H145959   3.756   5.573   3.487  0.8211 -0.9327 -0.8644
 8156TIP3    H245960   3.680   5.683   3.415  2.0765  1.0206  0.6778
 8157TIP3   OH245961   6.530   0.243   2.039 -0.3115 -0.3080  0.3433
 8157TIP3    H145962   6.542   0.196   1.956  2.3648 -1.3125  1.1989
 8157TIP3    H245963   6.440   0.275   2.035 -0.6825 -1.3850 -2.3953
 8158TIP3   OH245964   1.804   2.921  13.749 -0.3818 -0.0920 -0.6304
 8158TIP3    H145965   1.786   2.909  13.656 -1.2845 -2.4135 -0.2449
 8158TIP3    H245966   1.891   2.882  13.762  1.0427  2.7664 -0.9079
 8159TIP3   OH245967   5.700   1.368   2.762 -0.6276  0.3247  0.2500
 8159TIP3    H145968   5.708   1.322   2.679 -0.5363 -0.3137  0.6080
 8159TIP3    H245969   5.765   1.327   2.819 -1.8603 -0.4193  1.1656
 8160TIP3   OH245970   2.291   0.648  12.721 -0.4241 -0.2453 -0.6819
 8160TIP3    H145971   2.255   0.572  12.767  1.3485 -1.4900 -1.2291
 8160TIP3    H245972   2.332   0.611  12.643 -0.1168  1.3774 -1.3253
 8161TIP3   OH245973   5.035   4.119   5.340 -0.6720  0.2394 -0.4299
 8161TIP3    H145974   5.043   4.212   5.321 -0.6933  0.2858 -0.2115
 8161TIP3    H245975   5.036   4.113   5.436 -0.0187 -0.0453 -0.4477
 8162TIP3   OH245976   4.115   6.429   5.438 -0.4151  1.0899 -0.2450
 8162TIP3    H145977   4.080   6.437   5.527 -2.4705 -0.9314 -0.7890
 8162TIP3    H245978   4.038   6.424   5.382  0.8341  1.3568 -2.0786
 8163TIP3   OH245979   4.369   3.833  15.495  0.4427  0.4343  0.5176
 8163TIP3    H145980   4.361   3.789  15.579 -1.7722 -0.7920 -0.2518
 8163TIP3    H245981   4.430   3.779  15.445 -0.9307 -0.8654  0.1776
 8164TIP3   OH245982   5.401   4.947   0.274 -0.0583  0.4269  0.2956
 8164TIP3    H145983   5.371   4.883   0.339  0.4054  0.2194  0.3171
 8164TIP3    H245984   5.475   4.990   0.317 -0.4984  1.1280  0.3578
 8165TIP3   OH245985   6.482   0.215   5.253  0.7654  0.5310 -0.2971
 8165TIP3    H145986   6.492   0.195   5.346  0.5243  2.3330  0.1719
 8165TIP3    H245987   6.479   0.311   5.250 -0.7314  0.4876 -2.0089
 8166TIP3   OH245988   3.349   3.407  12.836  0.1266  0.7668 -0.0615
 8166TIP3    H145989   3.427   3.436  12.789 -0.0044  0.1103 -0.6947
 8166TIP3    H245990   3.359   3.312  12.843  0.2511  0.8708  1.4393
 8167TIP3   OH245991   1.947   1.287  10.570 -0.5589  0.2701  0.3007
 8167TIP3    H145992   1.993   1.276  10.653 -1.7172  1.0114  1.0789
 8167TIP3    H245993   1.994   1.231  10.508 -1.4525 -2.7081  2.1420
 8168TIP3   OH245994   2.614   4.749  14.772 -0.0014  0.9736 -0.2207
 8168TIP3    H145995   2.660   4.680  14.820 -1.8934 -1.6502 -1.9038
 8168TIP3    H245996   2.645   4.740  14.682 -1.4460  1.2316 -0.7759
 8169TIP3   OH245997   5.907   6.453  15.569  0.0319  0.2243  0.6963
 8169TIP3    H145998   5.999   6.473  15.586  0.5863 -1.1007 -0.5587
 8169TIP3    H245999   5.892   6.369  15.614  0.0523 -0.6295 -0.8386
 8170TIP3   OH246000   2.310   1.551   5.563  0.6496 -0.5072 -0.6473
 8170TIP3    H146001   2.392   1.560   5.611  0.0914  0.3826  0.1727
 8170TIP3    H246002   2.300   1.635   5.518  0.2102 -0.6245 -0.7657
 8171TIP3   OH246003   1.586   5.625   5.103 -0.6111  0.6520 -0.2497
 8171TIP3    H146004   1.597   5.710   5.060 -2.2746  0.3517 -1.3335
 8171TIP3    H246005   1.495   5.622   5.130 -0.4188 -0.5307  0.3715
 8172TIP3   OH246006   0.909   0.714  12.646  0.2929 -0.9315 -0.0825
 8172TIP3    H146007   0.830   0.686  12.692 -1.5367  0.4733 -2.1941
 8172TIP3    H246008   0.913   0.658  12.568 -0.6113  1.1705 -1.7440
 8173TIP3   OH246009   5.107   5.058   4.777 -0.0714 -0.0189  0.0492
 8173TIP3    H146010   5.112   5.133   4.836  0.7328  0.1072 -0.1634
 8173TIP3    H246011   5.054   5.087   4.704  0.6491  0.5184 -0.2715
 8174TIP3   OH246012   6.779   3.448   4.029  0.2718 -0.7911  0.1202
 8174TIP3    H146013   6.825   3.365   4.018  0.5399 -0.5004 -1.1032
 8174TIP3    H246014   6.689   3.429   4.004  0.5952 -0.4516 -1.4367
 8175TIP3   OH246015   1.459   0.356  16.520 -0.4648 -0.2630  0.3602
 8175TIP3    H146016   1.508   0.434  16.545 -1.7606  1.0613 -1.0700
 8175TIP3    H246017   1.386   0.388  16.468 -1.6051 -2.3628  0.5408
 8176TIP3   OH246018   2.854   4.781   5.566  0.3578  0.4878  0.6539
 8176TIP3    H146019   2.875   4.875   5.560 -1.5796  1.1113  2.3678
 8176TIP3    H246020   2.762   4.776   5.537  0.0649 -0.6908  1.7242
 8177TIP3   OH246021   2.357   0.919  12.169  0.3845 -0.1655  0.7346
 8177TIP3    H146022   2.383   0.935  12.078  0.4446 -0.3712  0.7163
 8177TIP3    H246023   2.381   0.999  12.215 -0.1263  0.1442  0.4674
 8178TIP3   OH246024   1.244   4.934  17.018  0.6938  0.2987 -0.0886
 8178TIP3    H146025   1.165   4.964  16.973  0.7153  0.3574 -0.0887
 8178TIP3    H246026   1.262   4.848  16.980 -0.1021 -0.3006  0.8458
 8179TIP3   OH246027   4.249   4.354   4.249  0.2223 -0.2911  0.1802
 8179TIP3    H146028   4.330   4.348   4.197  0.1083 -2.2927  0.1504
 8179TIP3    H246029   4.238   4.447   4.265  0.9588  0.3163 -2.3161
 8180TIP3   OH246030   1.184   6.291   4.641 -0.1358 -0.3535  0.2519
 8180TIP3    H146031   1.230   6.371   4.668 -0.9623 -0.3431  1.7270
 8180TIP3    H246032   1.100   6.294   4.688 -0.4874 -1.7365 -0.2320
 8181TIP3   OH246033   0.370   2.196   3.747  0.1771  0.2282 -0.7262
 8181TIP3    H146034   0.373   2.258   3.675 -0.1113  1.0964 -0.0083
 8181TIP3    H246035   0.440   2.224   3.806 -1.2736  1.1830  0.6210
 8182TIP3   OH246036   5.563   0.030   5.780 -0.6466  0.2087 -0.0366
 8182TIP3    H146037   5.654   0.046   5.754  0.2411  0.0922  2.7348
 8182TIP3    H246038   5.534   0.113   5.817 -0.7325 -0.5157  1.5701
 8183TIP3   OH246039   0.396   0.228  12.543 -0.4378  0.0714  0.2772
 8183TIP3    H146040   0.354   0.312  12.524  1.0543  1.2085  1.7021
 8183TIP3    H246041   0.393   0.220  12.638 -1.2815 -1.9256  0.1346
 8184TIP3   OH246042   3.453   2.464   5.626 -0.1332  0.3573  0.7292
 8184TIP3    H146043   3.466   2.386   5.571 -0.5642  0.9223 -0.1992
 8184TIP3    H246044   3.366   2.496   5.602  0.9180  2.4294 -0.6211
 8185TIP3   OH246045   6.763   3.361  17.295  0.4366 -0.2848 -0.6288
 8185TIP3    H146046   6.774   3.330  17.385  0.6203 -0.7323 -0.8015
 8185TIP3    H246047   6.851   3.356  17.257  0.0179 -2.1132 -1.4610
 8186TIP3   OH246048   2.443   0.106   4.440 -0.1154 -0.4278  0.1768
 8186TIP3    H146049   2.381   0.099   4.368 -1.3089  2.6212  0.7625
 8186TIP3    H246050   2.401   0.061   4.513  0.1346 -1.6675 -0.4232
 8187TIP3   OH246051   0.162   5.875   4.776 -0.3509  0.3254  0.6777
 8187TIP3    H146052   0.126   5.870   4.865  0.4441 -1.5861  0.9438
 8187TIP3    H246053   0.257   5.867   4.789 -0.1665  0.8272 -0.3038
 8188TIP3   OH246054   1.896   0.791   3.190 -0.0941  0.4208  0.5820
 8188TIP3    H146055   1.868   0.829   3.274 -0.0065 -1.8502  1.7146
 8188TIP3    H246056   1.934   0.706   3.214  1.3748  0.3909 -1.6243
 8189TIP3   OH246057   5.793   4.509   4.698  0.0118  0.7674  0.3324
 8189TIP3    H146058   5.738   4.454   4.754 -1.1915  2.4964  0.9322
 8189TIP3    H246059   5.763   4.489   4.609 -0.3695  0.4285  0.5316
 8190TIP3   OH246060   5.266   5.154   0.182  0.2053  0.0344 -0.3285
 8190TIP3    H146061   5.199   5.115   0.125 -0.9723  0.2926  0.8335
 8190TIP3    H246062   5.329   5.084   0.197  0.5484 -0.0463 -1.9148
 8191TIP3   OH246063   1.268   2.383   4.565 -0.5190  0.2457  0.5213
 8191TIP3    H146064   1.278   2.442   4.639 -1.8636  0.8576  0.2460
 8191TIP3    H246065   1.176   2.390   4.540  0.0793  0.8113 -1.8121
 8192TIP3   OH246066   4.349   1.384  16.913  1.0400  0.1225  0.3576
 8192TIP3    H146067   4.403   1.461  16.894 -0.4988  1.1886  0.0825
 8192TIP3    H246068   4.298   1.370  16.833  1.3603 -1.2588  0.3714
 8193TIP3   OH246069   1.007   2.300  15.925 -0.7134 -0.0357 -0.3134
 8193TIP3    H146070   0.992   2.361  15.997 -0.0228  2.7016 -2.3123
 8193TIP3    H246071   0.937   2.318  15.863  0.9663  0.6503 -2.1097
 8194TIP3   OH246072   0.933   2.244  16.665  0.1898  0.0372  0.1998
 8194TIP3    H146073   0.883   2.184  16.719  1.8158 -0.8923  0.7429
 8194TIP3    H246074   0.930   2.327  16.713  0.0271 -0.2761  0.7386
 8195TIP3   OH246075   0.689   2.354   3.062 -0.5420 -0.1120  0.0753
 8195TIP3    H146076   0.720   2.264   3.050  2.9536  0.8108  1.0495
 8195TIP3    H246077   0.612   2.345   3.119  0.3259 -2.4423  1.0402
 8196TIP3   OH246078   3.334   4.272   5.129  0.3040 -0.2992  0.2178
 8196TIP3    H146079   3.306   4.335   5.195  0.9676  0.4293 -0.1713
 8196TIP3    H246080   3.374   4.326   5.060 -0.7965 -0.9827 -1.0118
 8197TIP3   OH246081   5.228   5.424  14.570 -0.2752 -1.1087 -0.3411
 8197TIP3    H146082   5.177   5.504  14.554  0.6623 -0.2115  0.9269
 8197TIP3    H246083   5.166   5.353  14.555 -1.0479 -0.1788 -1.8433
 8198TIP3   OH246084   4.991   2.161  15.835 -0.3344 -0.3119 -0.1097
 8198TIP3    H146085   5.082   2.134  15.835 -0.6150 -1.3527  1.0652
 8198TIP3    H246086   4.944   2.088  15.797 -0.7469 -0.0574 -0.0994
 8199TIP3   OH246087   2.948   2.179  12.341 -0.0060 -0.2558  0.9582
 8199TIP3    H146088   2.884   2.156  12.409 -0.9476 -0.4815  0.0129
 8199TIP3    H246089   3.030   2.141  12.373  0.0374  1.2917  2.9099
 8200TIP3   OH246090   4.923   1.221   6.972 -0.2783  0.1825 -0.0407
 8200TIP3    H146091   4.870   1.286   7.018  0.2621  0.4722  0.1681
 8200TIP3    H246092   5.000   1.268   6.943  0.5177 -0.5505  0.8222
 8201TIP3   OH246093   4.757   1.164   5.333 -0.0132  0.0578  0.0162
 8201TIP3    H146094   4.758   1.259   5.320 -0.4710 -0.0199 -0.6719
 8201TIP3    H246095   4.664   1.141   5.332  0.0292 -0.2427  1.4848
 8202TIP3   OH246096   2.628   6.630   2.145  0.2305  0.3005 -0.0985
 8202TIP3    H146097   2.614   6.687   2.070  1.1277  2.5712  1.3441
 8202TIP3    H246098   2.723   6.620   2.151  0.1542 -0.1275  0.5288
 8203TIP3   OH246099   6.801   4.707  15.584  0.0855 -0.0946  0.7080
 8203TIP3    H146100   6.894   4.687  15.592  0.2598  0.6743  0.6366
 8203TIP3    H246101   6.759   4.650  15.649  0.5276 -0.9501  0.2676
 8204TIP3   OH246102   5.535   1.467  14.747  0.0320  0.4306  0.6250
 8204TIP3    H146103   5.534   1.382  14.703  0.3629 -0.0319  1.4922
 8204TIP3    H246104   5.594   1.521  14.693 -0.6247  0.3044 -0.2509
 8205TIP3   OH246105   3.908   4.028   4.151 -0.0686 -0.1432 -0.3065
 8205TIP3    H146106   3.936   4.044   4.061 -0.4136 -0.6819 -0.5159
 8205TIP3    H246107   3.815   4.009   4.144 -0.5077  1.5685  0.3847
 8206TIP3   OH246108   6.335   1.468   1.567  0.1892 -0.4852 -0.8046
 8206TIP3    H146109   6.327   1.390   1.512  0.4437 -0.0578 -1.4617
 8206TIP3    H246110   6.397   1.523   1.521  1.9744 -0.9499  0.9126
 8207TIP3   OH246111   6.545   3.488  14.591  0.2098 -0.0190 -0.2782
 8207TIP3    H146112   6.468   3.533  14.625  1.1925  0.9676  0.7376
 8207TIP3    H246113   6.535   3.397  14.621 -0.5609  0.0848 -0.1941
 8208TIP3   OH246114   0.989   1.786   2.241 -0.4212  0.0056  0.2626
 8208TIP3    H146115   1.042   1.793   2.321  3.2381 -1.4308 -1.7863
 8208TIP3    H246116   1.023   1.855   2.184 -0.7494 -0.9758 -1.1603
 8209TIP3   OH246117   1.430   2.513   6.237  0.0759  0.0939  0.1254
 8209TIP3    H146118   1.486   2.519   6.315 -0.6232 -0.3489  0.6839
 8209TIP3    H246119   1.489   2.526   6.164  1.1804 -1.6470  0.6276
 8210TIP3   OH246120   3.862   3.566  14.991 -0.2559  0.7052 -0.3630
 8210TIP3    H146121   3.860   3.491  15.050 -1.8744  1.0838  0.1027
 8210TIP3    H246122   3.930   3.544  14.928  1.3212  0.1453  1.4238
 8211TIP3   OH246123   6.368   6.001  15.575  0.0470 -0.0105 -0.4530
 8211TIP3    H146124   6.308   6.048  15.633  1.9148  1.7487  0.1740
 8211TIP3    H246125   6.455   6.025  15.606  1.1120 -1.6344 -1.9759
 8212TIP3   OH246126   4.923   1.852  14.764 -0.5150  0.9931 -0.9229
 8212TIP3    H146127   4.979   1.803  14.704  0.4418 -0.9728  1.3892
 8212TIP3    H246128   4.945   1.944  14.749  0.5336  0.4957 -2.6862
 8213TIP3   OH246129   2.580   4.306  16.327  0.5544 -0.2502  0.5745
 8213TIP3    H146130   2.520   4.370  16.365 -1.0115 -1.9048  1.0404
 8213TIP3    H246131   2.655   4.358  16.297 -1.2733  2.0012 -0.4427
 8214TIP3   OH246132   2.760   2.788   5.232 -0.2504 -0.1227 -0.0048
 8214TIP3    H146133   2.852   2.812   5.226 -0.5003  0.5328 -1.8336
 8214TIP3    H246134   2.715   2.849   5.173 -1.6176 -1.5356 -0.5088
 8215TIP3   OH246135   5.197   3.657   3.462  0.3387 -0.5305  0.6227
 8215TIP3    H146136   5.213   3.564   3.444  1.2687 -0.3819  0.6336
 8215TIP3    H246137   5.110   3.659   3.502  0.2599 -1.3857  0.5097
 8216TIP3   OH246138   1.795   4.098   1.342  0.4711  0.2557 -0.7550
 8216TIP3    H146139   1.777   4.033   1.275  0.7787 -0.1932 -0.4009
 8216TIP3    H246140   1.712   4.109   1.388  0.8489 -1.1912  0.3265
 8217TIP3   OH246141   2.919   4.400   5.412 -1.0715 -0.0508 -0.0824
 8217TIP3    H146142   2.968   4.456   5.472 -0.7093 -0.7980  0.3365
 8217TIP3    H246143   2.896   4.457   5.339  0.0856  0.4106 -0.1028
 8218TIP3   OH246144   3.582   4.501   5.139 -0.2536 -0.2671 -0.2224
 8218TIP3    H146145   3.677   4.512   5.143 -0.2556 -0.6812  1.5414
 8218TIP3    H246146   3.569   4.406   5.138 -0.6602 -0.2120 -0.2965
 8219TIP3   OH246147   6.480   5.171  13.961 -0.5016  0.6280 -0.3196
 8219TIP3    H146148   6.562   5.195  14.004 -1.2129  0.8604  0.9564
 8219TIP3    H246149   6.486   5.211  13.874  1.5596 -1.0358 -0.9962
 8220TIP3   OH246150   0.673   4.889   5.284 -0.7342 -0.5161 -0.0165
 8220TIP3    H146151   0.601   4.903   5.346 -1.3116 -0.2679 -0.7379
 8220TIP3    H246152   0.633   4.843   5.210 -0.0869 -0.6423 -0.3006
 8221TIP3   OH246153   1.931   5.566  12.764 -0.0192 -0.6494  0.3264
 8221TIP3    H146154   1.965   5.512  12.835  0.6526  0.2553  0.7148
 8221TIP3    H246155   1.840   5.538  12.755  1.1315 -4.3572 -1.8923
 8222TIP3   OH246156   5.135   3.457   4.304  0.4127  0.1697 -0.1412
 8222TIP3    H146157   5.044   3.430   4.311  0.9511 -1.6079  0.5999
 8222TIP3    H246158   5.139   3.507   4.222 -1.0830 -0.2689 -0.5066
 8223TIP3   OH246159   2.714   1.520  16.782  0.0879  0.1324  0.2933
 8223TIP3    H146160   2.688   1.592  16.725 -0.0254 -0.2982 -0.2019
 8223TIP3    H246161   2.649   1.452  16.767 -0.9557  0.6228  2.1871
 8224TIP3   OH246162   0.651   4.182  14.847  0.4712  0.1249  0.1864
 8224TIP3    H146163   0.723   4.243  14.860  0.9746  0.3724 -2.8341
 8224TIP3    H246164   0.694   4.097  14.835  0.1721  0.0440 -0.3403
 8225TIP3   OH246165   0.070   5.445   1.351 -0.6645 -0.4735 -0.0512
 8225TIP3    H146166   0.156   5.433   1.390 -0.3336 -1.1313 -0.9364
 8225TIP3    H246167   0.087   5.450   1.257 -1.6571 -1.4208 -0.3060
 8226TIP3   OH246168   3.994   3.123   5.339  0.1788  0.3168  0.3518
 8226TIP3    H146169   4.057   3.114   5.410 -0.5125  2.2340  1.3028
 8226TIP3    H246170   3.953   3.209   5.355 -1.3212 -0.0360 -1.2936
 8227TIP3   OH246171   4.476   1.088   5.291 -0.8850 -0.1222  0.0654
 8227TIP3    H146172   4.383   1.084   5.315 -1.3099 -0.2290 -1.4807
 8227TIP3    H246173   4.476   1.087   5.195  0.6209  1.7256 -0.0280
 8228TIP3   OH246174   5.958   3.198  11.600 -0.3769 -0.3651 -0.4575
 8228TIP3    H146175   5.899   3.267  11.569  0.3235  0.6655  0.4049
 8228TIP3    H246176   6.045   3.239  11.596  0.2371 -1.6853 -1.2533
 8229TIP3   OH246177   6.180   0.695   7.034  0.3971  0.0359 -0.5443
 8229TIP3    H146178   6.087   0.711   7.021  0.0219 -0.3379  1.3170
 8229TIP3    H246179   6.209   0.765   7.093  1.2518  0.0323 -0.9370
 8230TIP3   OH246180   2.281   1.872  15.629 -0.0315 -0.4824  0.4369
 8230TIP3    H146181   2.200   1.917  15.652  0.4630  1.0661 -0.7152
 8230TIP3    H246182   2.341   1.894  15.701 -0.4549 -1.1868  1.0161
 8231TIP3   OH246183   1.751   5.034  13.759  0.3232  0.2967  0.5767
 8231TIP3    H146184   1.705   5.093  13.699  0.5991 -0.9644 -0.9204
 8231TIP3    H246185   1.809   5.092  13.809  1.2941  1.2312 -1.5074
 8232TIP3   OH246186   0.885   5.991   3.609 -0.2792  0.4654  0.2507
 8232TIP3    H146187   0.857   6.066   3.661  0.3188  0.6048  0.3769
 8232TIP3    H246188   0.803   5.949   3.581 -0.6080  0.8250  0.6656
 8233TIP3   OH246189   6.617   2.587  14.198 -0.4570 -0.0098  0.1257
 8233TIP3    H146190   6.677   2.525  14.157 -3.3406 -0.9004 -3.1452
 8233TIP3    H246191   6.563   2.534  14.257 -0.6213  0.0466  0.0267
 8234TIP3   OH246192   4.659   4.102   1.913  0.0124  0.1577 -0.4610
 8234TIP3    H146193   4.606   4.141   1.844 -0.4391  0.4035  0.0217
 8234TIP3    H246194   4.623   4.015   1.926  0.8193 -0.3251 -1.3167
 8235TIP3   OH246195   0.196   2.650   4.446  0.1300  0.3839 -0.3471
 8235TIP3    H146196   0.216   2.594   4.521  0.1272  1.1665  0.2412
 8235TIP3    H246197   0.246   2.730   4.462  1.7895 -0.1890 -2.1840
 8236TIP3   OH246198   1.978   4.417   3.062 -0.1094 -0.8272 -0.0153
 8236TIP3    H146199   1.995   4.366   3.141  2.0861 -1.2605 -0.7073
 8236TIP3    H246200   2.046   4.390   3.001  0.2147  1.8202 -0.9511
 8237TIP3   OH246201   5.694   5.390   0.831  0.7310  0.7352 -0.2727
 8237TIP3    H146202   5.671   5.335   0.906  2.7870 -0.1985 -0.2514
 8237TIP3    H246203   5.617   5.388   0.775 -0.5668  0.8193  1.4307
 8238TIP3   OH246204   2.228   0.565   6.278 -0.7517 -0.1901  0.0619
 8238TIP3    H146205   2.317   0.532   6.268 -0.3295  0.2161  2.0616
 8238TIP3    H246206   2.231   0.655   6.244  0.2598  0.6608  2.1846
 8239TIP3   OH246207   0.891   1.551   3.699 -0.6568  0.1427  0.3762
 8239TIP3    H146208   0.928   1.629   3.659 -0.8691  0.4699  0.8069
 8239TIP3    H246209   0.798   1.552   3.675 -1.0291  0.9303  1.7543
 8240TIP3   OH246210   5.343   2.809   6.044  0.3579  0.1595  0.4816
 8240TIP3    H146211   5.420   2.853   6.008  1.1886  0.5176  2.5652
 8240TIP3    H246212   5.273   2.874   6.038  0.1157 -0.2358 -1.6085
 8241TIP3   OH246213   1.598   4.313   1.776  0.2741 -0.2682  0.6272
 8241TIP3    H146214   1.515   4.303   1.729  0.0738 -2.5960  1.3506
 8241TIP3    H246215   1.663   4.278   1.716  0.3736 -0.7079  0.9800
 8242TIP3   OH246216   4.761   6.532   5.422  0.2626  0.3421  0.1266
 8242TIP3    H146217   4.811   6.490   5.492  0.9048 -0.4521 -0.7725
 8242TIP3    H246218   4.738   6.618   5.457  1.0418  0.1770  1.1009
 8243TIP3   OH246219   0.709   1.693  16.161 -0.0687 -0.3245 -0.8450
 8243TIP3    H146220   0.655   1.766  16.192  0.0703 -0.4635 -0.2578
 8243TIP3    H246221   0.721   1.709  16.068 -2.1598 -0.9304 -1.2716
 8244TIP3   OH246222   2.419   4.300   0.464 -0.1360 -0.0871  0.0292
 8244TIP3    H146223   2.374   4.377   0.430 -0.1549  0.2053  0.6885
 8244TIP3    H246224   2.503   4.334   0.497 -0.0886 -0.3638  0.1990
 8245TIP3   OH246225   1.074   4.975   4.245 -0.0670  0.1811  0.6455
 8245TIP3    H146226   1.072   4.934   4.331  1.5311 -0.2959  0.4837
 8245TIP3    H246227   1.167   4.977   4.221 -0.5490 -0.9942 -1.6547
 8246TIP3   OH246228   0.163   1.275  13.013  0.1916 -0.0039 -0.4500
 8246TIP3    H146229   0.146   1.362  12.975 -0.1134 -0.1074 -0.5540
 8246TIP3    H246230   0.109   1.216  12.961 -1.5877  0.0581  1.1978
 8247TIP3   OH246231   3.636   5.538  17.286 -0.0141 -0.2261  0.0212
 8247TIP3    H146232   3.687   5.471  17.241 -0.0269  1.0323 -2.0093
 8247TIP3    H246233   3.700   5.581  17.344  0.4089 -0.8203  0.0065
 8248TIP3   OH246234   4.787   3.102  15.901  0.3670  0.1672 -0.0519
 8248TIP3    H146235   4.732   3.166  15.946  0.1478  0.8320 -1.2099
 8248TIP3    H246236   4.764   3.112  15.808  1.3857 -0.5776 -0.4020
 8249TIP3   OH246237   5.812   0.988  16.801  0.3617  0.1762  0.4718
 8249TIP3    H146238   5.765   1.062  16.761  0.4335 -1.9651 -4.1472
 8249TIP3    H246239   5.747   0.919  16.806  1.4297 -0.8851  0.0746
 8250TIP3   OH246240   4.905   4.162   0.137  0.1209  0.0521 -0.0581
 8250TIP3    H146241   4.960   4.083   0.137 -1.9502 -1.5290  1.9934
 8250TIP3    H246242   4.926   4.206   0.219 -0.3103  0.4504 -0.1567
 8251TIP3   OH246243   2.193   3.895  10.864  0.7214 -0.1796  0.2614
 8251TIP3    H146244   2.225   3.822  10.917  0.8138 -1.8099 -1.9052
 8251TIP3    H246245   2.120   3.858  10.814  2.1903  0.4578 -2.5728
 8252TIP3   OH246246   4.711   4.726   4.733  0.8776  0.2089 -0.8200
 8252TIP3    H146247   4.723   4.640   4.692  2.0328  0.1781 -0.4648
 8252TIP3    H246248   4.624   4.723   4.772  0.9592 -0.8501 -0.6951
 8253TIP3   OH246249   5.668   3.152   1.407 -0.5370  0.3721 -0.5691
 8253TIP3    H146250   5.637   3.237   1.438  2.0374  1.3987 -0.5886
 8253TIP3    H246251   5.761   3.150   1.430 -0.4640 -2.3957 -0.7066
 8254TIP3   OH246252   0.329   5.564   4.665 -0.3350  0.2734 -0.5322
 8254TIP3    H146253   0.416   5.605   4.670  0.4012 -1.1907 -0.9245
 8254TIP3    H246254   0.311   5.535   4.755 -0.2516  0.2389 -0.5265
 8255TIP3   OH246255   5.897   1.740  13.770  0.1623  0.2776  0.1189
 8255TIP3    H146256   5.981   1.775  13.800 -0.0913  0.8782  0.1406
 8255TIP3    H246257   5.902   1.647  13.790  0.6346  0.3892  0.5636
 8256TIP3   OH246258   3.927   2.034   3.908 -0.1861 -0.3909 -0.4945
 8256TIP3    H146259   3.928   1.954   3.960  0.8951  0.4495  0.8616
 8256TIP3    H246260   3.858   2.087   3.948 -0.7578 -0.5426 -1.2584
 8257TIP3   OH246261   2.231   4.508  13.949  0.2049 -0.0241 -0.1311
 8257TIP3    H146262   2.254   4.592  13.989  0.1498  0.5155 -1.1947
 8257TIP3    H246263   2.265   4.443  14.010 -0.9875  0.7426  1.4326
 8258TIP3   OH246264   1.928   3.826   0.138  0.6438  0.0150 -0.1272
 8258TIP3    H146265   1.961   3.869   0.059 -0.9535 -0.6045 -1.1782
 8258TIP3    H246266   1.960   3.736   0.131 -0.9185 -0.5161 -1.0140
 8259TIP3   OH246267   3.852   6.110  13.811  0.0983 -0.4912  0.0552
 8259TIP3    H146268   3.866   6.029  13.761 -0.3963 -0.3627 -0.3058
 8259TIP3    H246269   3.884   6.179  13.753 -1.0634 -0.2851 -0.3687
 8260TIP3   OH246270   2.733   3.418  16.269  0.4550  0.3273  0.0487
 8260TIP3    H146271   2.817   3.379  16.291  1.1163  1.2639 -0.7062
 8260TIP3    H246272   2.704   3.370  16.191 -0.0144 -0.3972  0.6590
 8261TIP3   OH246273   3.856   5.456   1.016 -0.4251  0.0438 -0.0694
 8261TIP3    H146274   3.767   5.429   1.040  0.0039 -0.2703  1.3166
 8261TIP3    H246275   3.889   5.500   1.094  1.2726 -1.4989  0.1564
 8262TIP3   OH246276   3.521   4.027  13.112  0.0610  0.3002 -1.1380
 8262TIP3    H146277   3.517   3.987  13.199 -0.6286  1.8739 -0.4085
 8262TIP3    H246278   3.490   3.959  13.053  1.5519 -1.1710 -0.3086
 8263TIP3   OH246279   4.309   0.632   5.856 -0.2724  0.5789  0.2772
 8263TIP3    H146280   4.351   0.548   5.875 -1.3028  0.2720  1.3295
 8263TIP3    H246281   4.336   0.689   5.928 -0.2198  0.9113 -0.0054
 8264TIP3   OH246282   4.146   2.093  14.739  0.0077 -0.3164 -0.0484
 8264TIP3    H146283   4.118   2.076  14.829 -0.8265  0.7955 -0.0920
 8264TIP3    H246284   4.230   2.137  14.748  0.4169 -1.1039  0.1426
 8265TIP3   OH246285   4.942   1.533  16.546 -0.2169 -0.6775  0.2003
 8265TIP3    H146286   4.938   1.628  16.560 -1.3027 -0.7315  0.3461
 8265TIP3    H246287   4.946   1.523  16.451  0.3986 -0.4714  0.2039
 8266TIP3   OH246288   1.489   3.741  13.207 -0.0148 -1.0312  0.5344
 8266TIP3    H146289   1.462   3.669  13.264 -1.2703 -0.9299  0.1089
 8266TIP3    H246290   1.529   3.698  13.132 -0.8908 -1.3150  0.2145
 8267TIP3   OH246291   4.812   5.805   2.052  0.0387  0.5381 -0.5578
 8267TIP3    H146292   4.821   5.900   2.062  0.8924  0.3564  0.6405
 8267TIP3    H246293   4.742   5.781   2.112  0.1162  0.3529 -0.5421
 8268TIP3   OH246294   4.658   4.615  12.631 -0.2155  0.2155  0.7477
 8268TIP3    H146295   4.583   4.596  12.575  1.1552 -1.0860 -0.7629
 8268TIP3    H246296   4.664   4.539  12.689  1.3878 -0.9863 -0.8785
 8269TIP3   OH246297   3.244   2.522   2.975 -0.2293 -0.2463 -0.2048
 8269TIP3    H146298   3.248   2.458   3.045 -0.4009  0.4690  0.4773
 8269TIP3    H246299   3.190   2.481   2.907 -0.2089 -0.8743  0.1528
 8270TIP3   OH246300   3.110   5.028   3.028  0.8847  0.0496  0.4786
 8270TIP3    H146301   3.060   4.950   3.053  0.9991 -0.1145  0.2058
 8270TIP3    H246302   3.192   5.020   3.077  0.6417  0.3271  0.9377
 8271TIP3   OH246303   5.784   5.906  15.012  0.5017 -0.3078 -0.3553
 8271TIP3    H146304   5.797   5.962  15.089  2.3526 -2.0069  0.6872
 8271TIP3    H246305   5.690   5.889  15.010  0.0411  1.8709 -0.0713
 8272TIP3   OH246306   3.991   3.758   3.842  0.0944 -0.1195  0.0778
 8272TIP3    H146307   4.062   3.814   3.810  0.8666 -1.9140 -1.5573
 8272TIP3    H246308   4.034   3.696   3.901 -0.6578  0.5927  1.4241
 8273TIP3   OH246309   3.061   5.424   4.516 -0.0835  0.3975  0.2825
 8273TIP3    H146310   3.055   5.447   4.609 -0.4503  0.4762  0.2424
 8273TIP3    H246311   3.016   5.340   4.509  2.8488 -1.3052  0.7448
 8274TIP3   OH246312   6.236   4.031  11.203 -0.2928 -0.4183 -0.4618
 8274TIP3    H146313   6.214   4.046  11.111  0.8193  0.7884 -0.5643
 8274TIP3    H246314   6.232   3.936  11.214 -3.3191 -0.4335 -0.9784
 8275TIP3   OH246315   2.840   1.197   4.161 -0.2156 -0.2336  0.2970
 8275TIP3    H146316   2.766   1.152   4.203 -0.0484 -1.0358 -0.2532
 8275TIP3    H246317   2.866   1.263   4.225 -1.5038  0.1731  0.4497
 8276TIP3   OH246318   1.659   2.462   4.560  0.2237  0.2192 -0.3507
 8276TIP3    H146319   1.733   2.504   4.605  0.7778  0.1763 -1.1918
 8276TIP3    H246320   1.634   2.524   4.492 -1.2519  0.7240  0.6064
 8277TIP3   OH246321   5.335   5.866   2.716  0.4530 -0.3566 -0.1389
 8277TIP3    H146322   5.403   5.932   2.732  0.0704 -0.2737  1.2400
 8277TIP3    H246323   5.365   5.788   2.762 -0.7439 -0.0719  1.2073
 8278TIP3   OH246324   4.078   5.940  11.628  0.4604  0.2515 -0.4017
 8278TIP3    H146325   4.114   6.015  11.676  1.6044 -0.6873  0.2652
 8278TIP3    H246326   4.123   5.864  11.666  0.0071 -0.6870 -1.6917
 8279TIP3   OH246327   1.181   0.131   3.717 -0.3654 -0.1221  0.3381
 8279TIP3    H146328   1.206   0.075   3.643  1.1741 -0.0667  0.7934
 8279TIP3    H246329   1.088   0.113   3.730 -0.8789  0.4165 -2.0882
 8280TIP3   OH246330   0.997   5.363   0.118  0.0136  0.2381 -0.1093
 8280TIP3    H146331   1.070   5.416   0.086 -0.4279  0.4344 -0.8142
 8280TIP3    H246332   0.969   5.406   0.199  1.5265 -0.6014  0.9041
 8281TIP3   OH246333   2.152   1.402   4.105  0.1906  0.7332  0.4142
 8281TIP3    H146334   2.102   1.481   4.128  0.0010  0.8230 -0.2807
 8281TIP3    H246335   2.131   1.340   4.174 -0.3751  0.9896  0.4832
 8282TIP3   OH246336   5.456   2.884  14.832  0.4027  0.0922 -0.4841
 8282TIP3    H146337   5.483   2.976  14.836  1.6214 -0.2842  0.3619
 8282TIP3    H246338   5.534   2.835  14.856 -0.1010 -1.2056 -1.3866
 8283TIP3   OH246339   4.396   6.431  13.531 -0.3898  0.6716  0.1831
 8283TIP3    H146340   4.330   6.438  13.462  0.3926  1.5722 -0.4950
 8283TIP3    H246341   4.471   6.388  13.489 -0.3888  0.0049  0.8429
 8284TIP3   OH246342   1.101   5.926   2.940  0.0651 -0.2248 -0.3540
 8284TIP3    H146343   1.171   5.894   2.884 -0.4842  0.0699 -1.2333
 8284TIP3    H246344   1.113   6.021   2.943 -1.4612  0.0997 -2.2250
 8285TIP3   OH246345   4.763   5.138  16.097  0.2903 -0.3010  0.2472
 8285TIP3    H146346   4.762   5.149  16.192  0.2376 -0.8334  0.3091
 8285TIP3    H246347   4.792   5.223  16.064 -0.0363 -0.0029  0.7220
 8286TIP3   OH246348   4.539   4.064   6.874 -0.1431 -0.8995  0.1734
 8286TIP3    H146349   4.509   3.978   6.845 -1.0840 -1.4633  2.6055
 8286TIP3    H246350   4.482   4.126   6.829 -0.0643 -1.5760 -0.8894
 8287TIP3   OH246351   6.179   6.715  11.380 -0.3675  0.0475 -0.1952
 8287TIP3    H146352   6.194   6.798  11.425  0.4356 -0.0299 -0.3036
 8287TIP3    H246353   6.264   6.692  11.342 -0.7164 -0.5400 -0.6487
 8288TIP3   OH246354   2.922   3.318  13.006  0.4581 -0.1859 -0.0979
 8288TIP3    H146355   2.943   3.306  13.098  0.6029  1.1778  0.0696
 8288TIP3    H246356   2.836   3.359  13.006 -0.4106 -1.9027 -0.6556
 8289TIP3   OH246357   5.069   0.048  12.078  0.0533 -0.1814 -0.1278
 8289TIP3    H146358   4.981   0.020  12.103 -1.2837  2.6771 -1.1241
 8289TIP3    H246359   5.098   0.102  12.152  0.2570  0.2347 -0.5098
 8290TIP3   OH246360   2.369   3.651  14.234 -0.5166 -0.5083  0.1756
 8290TIP3    H146361   2.411   3.580  14.283  1.0249  0.0178 -0.3130
 8290TIP3    H246362   2.359   3.615  14.146  0.7877  0.0295 -0.2208
 8291TIP3   OH246363   1.670   5.544   0.743 -0.1697  0.3741 -0.3803
 8291TIP3    H146364   1.696   5.470   0.799 -0.6775  1.0925  0.8438
 8291TIP3    H246365   1.751   5.591   0.727 -0.2785  1.3514  1.5701
 8292TIP3   OH246366   6.516   6.063   2.945 -0.3055  0.3132 -0.3094
 8292TIP3    H146367   6.447   5.998   2.955  0.3578 -0.1306  1.8913
 8292TIP3    H246368   6.476   6.145   2.972 -0.9322  0.7676 -2.4086
 8293TIP3   OH246369   2.719   3.619   5.521  0.4570 -0.1660 -0.6773
 8293TIP3    H146370   2.666   3.602   5.443  0.7619  1.0550 -1.1736
 8293TIP3    H246371   2.798   3.660   5.488  0.0847  1.4570  0.3519
 8294TIP3   OH246372   6.786   1.390  16.795  0.0038 -0.0836 -0.6068
 8294TIP3    H146373   6.840   1.388  16.874 -0.7518  1.0067 -0.0285
 8294TIP3    H246374   6.775   1.298  16.771  0.2595 -0.4348  0.5494
 8295TIP3   OH246375   6.824   0.639  13.451  0.6706 -0.0154  0.4340
 8295TIP3    H146376   6.778   0.671  13.374  0.2132 -0.0635  0.6789
 8295TIP3    H246377   6.822   0.712  13.513 -0.1454 -0.4025  0.8936
 8296TIP3   OH246378   6.091   0.350   4.497  0.1925  0.0148  0.0012
 8296TIP3    H146379   6.099   0.257   4.518  2.3382  0.3530  0.9281
 8296TIP3    H246380   6.004   0.374   4.527 -0.6414 -1.8135 -0.8275
 8297TIP3   OH246381   1.422   4.634  16.078  0.1679  0.6162 -0.5358
 8297TIP3    H146382   1.466   4.627  16.162 -0.4508 -0.6887 -0.2862
 8297TIP3    H246383   1.463   4.567  16.023 -0.4276  0.4514 -0.7950
 8298TIP3   OH246384   1.230   3.977   6.337  0.1940 -0.2419 -0.0797
 8298TIP3    H146385   1.205   4.059   6.379 -0.5242 -0.8972  0.8105
 8298TIP3    H246386   1.180   3.910   6.384  1.9100 -1.3551  0.2173
 8299TIP3   OH246387   6.078   6.795  11.759  0.5429 -0.6374  0.4088
 8299TIP3    H146388   6.155   6.744  11.733  1.1368  0.0048  0.8780
 8299TIP3    H246389   6.064   6.855  11.686 -0.1556 -1.4427 -0.1434
 8300TIP3   OH246390   1.985   3.697   4.308  0.4184 -0.2330  0.3167
 8300TIP3    H146391   2.057   3.634   4.321  0.2426 -0.4823  0.0831
 8300TIP3    H246392   1.929   3.685   4.385  0.3674 -0.3884  0.2563
 8301TIP3   OH246393   2.200   5.742   2.779  0.4492  0.0046  0.6876
 8301TIP3    H146394   2.260   5.672   2.752  0.4859  0.7658 -1.3317
 8301TIP3    H246395   2.114   5.712   2.749  0.0995 -0.1519  1.7839
 8302TIP3   OH246396   4.160   3.337   2.909 -0.4753 -0.2122 -0.1353
 8302TIP3    H146397   4.162   3.298   2.821  0.7539  1.9655 -1.1415
 8302TIP3    H246398   4.081   3.390   2.910  1.2875  2.6676 -1.3700
 8303TIP3   OH246399   2.153   2.296  16.524 -0.0501  0.5337 -0.3263
 8303TIP3    H146400   2.214   2.332  16.589 -0.7858  0.4044  0.4453
 8303TIP3    H246401   2.192   2.211  16.500  0.0937  0.4658  0.1344
 8304TIP3   OH246402   5.537   1.186   1.986  0.0239  0.5458 -0.0076
 8304TIP3    H146403   5.504   1.103   2.020  1.2465  0.1387  0.2527
 8304TIP3    H246404   5.528   1.178   1.891  0.2777  0.0442  0.0068
 8305TIP3   OH246405   1.872   1.691   0.665  0.3680 -0.0216 -0.3106
 8305TIP3    H146406   1.782   1.665   0.643  0.1105 -0.5517  1.2614
 8305TIP3    H246407   1.871   1.703   0.760  2.2166 -1.0139 -0.1330
 8306TIP3   OH246408   5.438   1.484  14.153 -0.1271  0.2959 -0.2082
 8306TIP3    H146409   5.422   1.555  14.091  0.8355  0.8780  0.1791
 8306TIP3    H246410   5.426   1.525  14.239 -1.6037 -0.5380  0.0100
 8307TIP3   OH246411   2.341   4.916  16.792  0.2431 -0.0788  0.5458
 8307TIP3    H146412   2.355   4.963  16.875 -0.9478  2.1874 -0.4566
 8307TIP3    H246413   2.262   4.864  16.807  0.7820 -0.7371  1.2215
 8308TIP3   OH246414   4.085   1.744  11.520  0.4989  0.1408  0.1466
 8308TIP3    H146415   4.040   1.787  11.447  0.7029 -0.8645 -0.5950
 8308TIP3    H246416   4.016   1.700  11.569  0.4954 -0.1998 -0.1584
 8309TIP3   OH246417   3.984   1.803  10.784 -0.6060 -0.0219 -0.2448
 8309TIP3    H146418   4.029   1.877  10.825 -1.9171  0.0827  1.0659
 8309TIP3    H246419   4.048   1.732  10.785  0.1221  0.6299 -0.0224
 8310TIP3   OH246420   4.273   1.040  15.202  0.5481  0.8434  0.4247
 8310TIP3    H146421   4.347   1.101  15.200 -0.5881  2.3800  2.3536
 8310TIP3    H246422   4.216   1.068  15.131  0.1991  1.8438  1.0846
 8311TIP3   OH246423   4.426   3.271   5.047  0.0992  0.2835  0.0450
 8311TIP3    H146424   4.483   3.196   5.031 -0.0435  0.6141 -2.4379
 8311TIP3    H246425   4.342   3.233   5.074  1.1708 -0.2214  2.9920
 8312TIP3   OH246426   3.861   5.230   0.841 -0.1730 -0.0173  0.2201
 8312TIP3    H146427   3.874   5.298   0.906 -1.7756 -0.2756  0.8622
 8312TIP3    H246428   3.767   5.210   0.845 -0.0851 -0.9424 -1.2661
 8313TIP3   OH246429   1.592   5.435  16.133  0.0548 -0.4053 -0.2659
 8313TIP3    H146430   1.650   5.467  16.202  1.4875 -0.9193 -1.1799
 8313TIP3    H246431   1.604   5.340  16.133 -1.8402 -0.6892  0.4007
 8314TIP3   OH246432   0.866   5.092   3.515  0.3147 -0.6305 -0.0910
 8314TIP3    H146433   0.919   5.029   3.564  2.0537  2.0614  1.7129
 8314TIP3    H246434   0.930   5.150   3.473 -1.2134  0.5335 -0.9235
 8315TIP3   OH246435   4.918   0.305  15.524  0.1080 -0.0877 -0.2957
 8315TIP3    H146436   4.850   0.279  15.463 -0.2299 -0.2850  0.1642
 8315TIP3    H246437   4.891   0.392  15.554 -1.1046 -1.0309  1.5285
 8316TIP3   OH246438   6.024   0.202  14.031 -0.3476  0.3262 -0.3603
 8316TIP3    H146439   6.077   0.135  13.989 -1.7115 -0.5628 -0.7209
 8316TIP3    H246440   6.079   0.235  14.102 -0.1636 -2.1771  0.7422
 8317TIP3   OH246441   2.339   6.211  16.480  0.0040  0.0899 -0.2567
 8317TIP3    H146442   2.412   6.159  16.447 -0.2013 -0.3797  0.0367
 8317TIP3    H246443   2.262   6.176  16.435 -0.1648  0.0003  0.1042
 8318TIP3   OH246444   6.707   2.193   4.195 -0.0685  0.1856 -0.6737
 8318TIP3    H146445   6.738   2.243   4.270  0.6471  0.6921 -1.2881
 8318TIP3    H246446   6.615   2.219   4.186  0.6464  2.5904 -1.8540
 8319TIP3   OH246447   0.681   3.957   5.000 -0.1611  0.5663  0.3051
 8319TIP3    H146448   0.632   3.922   5.074 -0.1635 -0.6177 -0.2258
 8319TIP3    H246449   0.772   3.959   5.029 -0.1982  0.3615  0.4411
 8320TIP3   OH246450   6.709   5.082   3.632  0.6633 -0.0758  0.2578
 8320TIP3    H146451   6.779   5.036   3.587 -1.6732 -5.3182  1.1950
 8320TIP3    H246452   6.637   5.085   3.569 -1.0117 -3.0393  1.8203
 8321TIP3   OH246453   6.639   5.230  15.530 -0.0677 -0.7958 -0.2377
 8321TIP3    H146454   6.546   5.214  15.512 -0.1919 -0.9303  0.5151
 8321TIP3    H246455   6.673   5.146  15.558  0.0993 -0.5671  0.2551
 8322TIP3   OH246456   1.898   4.584   2.507  0.8638 -0.0302 -0.3219
 8322TIP3    H146457   1.960   4.597   2.435 -1.3454  0.4073 -2.2531
 8322TIP3    H246458   1.812   4.588   2.466 -0.4776 -2.4344  1.9357
 8323TIP3   OH246459   0.872   3.532   4.324 -0.0729 -0.1635  0.1493
 8323TIP3    H146460   0.785   3.527   4.365  0.0455  0.3935  0.4763
 8323TIP3    H246461   0.862   3.600   4.257 -0.1783 -0.8508 -0.5364
 8324TIP3   OH246462   1.290   2.854  17.080 -0.5260  0.3188  0.3088
 8324TIP3    H146463   1.372   2.902  17.092 -1.1122  1.2027  0.9891
 8324TIP3    H246464   1.227   2.921  17.052 -1.3785 -0.0241  1.3283
 8325TIP3   OH246465   6.760   6.116   4.345 -0.0307  0.1315  0.0028
 8325TIP3    H146466   6.820   6.145   4.276  0.0234  0.3257  0.1306
 8325TIP3    H246467   6.754   6.021   4.333 -0.8835  0.2930 -0.9622
 8326TIP3   OH246468   3.942   3.327  13.504  0.0035  0.5310  0.1676
 8326TIP3    H146469   4.011   3.394  13.502  0.1326  0.4626  1.3334
 8326TIP3    H246470   3.973   3.259  13.446  1.9029 -0.3768  2.1008
 8327TIP3   OH246471   4.006   6.469  14.861 -0.4824 -0.0034 -0.3641
 8327TIP3    H146472   4.017   6.543  14.921 -0.5199  0.4673 -0.9345
 8327TIP3    H246473   3.916   6.440  14.874  0.4248 -2.0117  2.1973
 8328TIP3   OH246474   6.208   3.342  11.665 -0.2156  0.0069  0.0120
 8328TIP3    H146475   6.300   3.346  11.640 -0.0617  0.9539  0.6888
 8328TIP3    H246476   6.200   3.402  11.739 -1.4334  0.1700 -0.2248
 8329TIP3   OH246477   4.589   5.737   1.398 -0.0937 -0.4777 -0.3925
 8329TIP3    H146478   4.554   5.691   1.322 -0.0746 -0.5312 -0.3691
 8329TIP3    H246479   4.622   5.819   1.363  1.1518 -1.0708 -0.6680
 8330TIP3   OH246480   5.145   4.695  14.457  0.2194 -0.2934 -0.7812
 8330TIP3    H146481   5.180   4.715  14.544 -1.2388 -0.9654 -0.0040
 8330TIP3    H246482   5.210   4.637  14.418  0.4244 -0.7796  0.2487
 8331TIP3   OH246483   3.898   0.456  16.905 -0.3196 -0.2116  0.4507
 8331TIP3    H146484   3.887   0.438  16.998  0.3646 -1.3800  0.3316
 8331TIP3    H246485   3.949   0.381  16.872 -1.2439 -0.2314 -1.0159
 8332TIP3   OH246486   0.741   6.064  15.686 -0.2510  0.2407  0.2565
 8332TIP3    H146487   0.784   6.150  15.687  1.6825 -0.6713  1.1802
 8332TIP3    H246488   0.651   6.081  15.713 -0.2418  2.1124 -0.7290
 8333TIP3   OH246489   0.310   0.442   3.161  0.3831  0.1483  0.3339
 8333TIP3    H146490   0.317   0.517   3.101 -0.1470 -1.2095 -1.5371
 8333TIP3    H246491   0.236   0.464   3.218 -1.1151  0.2222 -1.5334
 8334TIP3   OH246492   5.707   3.257  13.735  0.6775 -0.2150  0.3961
 8334TIP3    H146493   5.733   3.337  13.781  0.1290  0.5722 -0.5998
 8334TIP3    H246494   5.621   3.278  13.698  1.7760 -0.1524 -2.3906
 8335TIP3   OH246495   3.290   6.077  11.299  0.7850  0.4553  0.2655
 8335TIP3    H146496   3.372   6.090  11.346 -0.9614  0.7035  3.5761
 8335TIP3    H246497   3.256   6.165  11.285  1.7396  0.4532 -2.5962
 8336TIP3   OH246498   1.454   0.283   5.539 -0.1293  0.1674 -1.2476
 8336TIP3    H146499   1.433   0.208   5.485 -0.3928 -0.7486  0.0856
 8336TIP3    H246500   1.520   0.251   5.601 -2.2070  0.1862  1.1418
 8337TIP3   OH246501   1.976   2.586   6.414  0.0894  0.2339 -0.4626
 8337TIP3    H146502   2.054   2.620   6.457 -0.1948 -1.5066  1.5501
 8337TIP3    H246503   1.950   2.510   6.466 -3.3462  1.1129 -0.6556
 8338TIP3   OH246504   0.166   6.463  16.734 -0.6440 -0.6210 -0.0242
 8338TIP3    H146505   0.198   6.549  16.706  1.3752 -1.4022 -0.3449
 8338TIP3    H246506   0.135   6.476  16.823 -3.1974  1.0214 -1.0631
 8339TIP3   OH246507   5.970   4.737   4.663  0.3806  0.5438  0.6462
 8339TIP3    H146508   5.926   4.653   4.675  2.4382 -0.4306  2.0888
 8339TIP3    H246509   6.021   4.749   4.743  0.5665  2.9329  0.2468
 8340TIP3   OH246510   3.582   5.071  11.861 -0.3546 -0.0027 -0.1773
 8340TIP3    H146511   3.599   5.087  11.954  0.8453 -0.1482 -0.3591
 8340TIP3    H246512   3.489   5.048  11.858 -0.1233 -1.2595  1.1547
 8341TIP3   OH246513   2.731   0.840   2.871 -0.1889 -0.6199 -0.2836
 8341TIP3    H146514   2.813   0.889   2.879 -0.1779 -0.1966 -2.3690
 8341TIP3    H246515   2.663   0.905   2.887 -0.1380 -0.2521 -1.4302
 8342TIP3   OH246516   3.554   5.473   4.615  0.1276  0.4139 -0.0482
 8342TIP3    H146517   3.609   5.432   4.681  0.3494  0.7710 -0.0082
 8342TIP3    H246518   3.495   5.403   4.586 -0.3722  0.3926  0.9491
 8343TIP3   OH246519   6.738   0.865  15.570  0.0903  0.0920  0.9014
 8343TIP3    H146520   6.669   0.920  15.534  0.1424 -0.6965 -0.4955
 8343TIP3    H246521   6.736   0.882  15.664 -0.0275  2.2761  0.5448
 8344TIP3   OH246522   5.261   1.008  15.659 -0.6073 -0.2263 -0.0113
 8344TIP3    H146523   5.204   1.060  15.717 -0.6898  0.8643 -1.0250
 8344TIP3    H246524   5.328   0.973  15.717 -1.3578 -0.1549  0.9371
 8345TIP3   OH246525   5.778   1.064   3.408 -0.1329  0.0795  0.1787
 8345TIP3    H146526   5.749   1.129   3.473 -1.0990  1.6980 -1.7579
 8345TIP3    H246527   5.697   1.036   3.365  0.5238 -0.5467 -0.6797
 8346TIP3   OH246528   4.649   2.603   0.983 -0.5206 -0.1165 -0.4427
 8346TIP3    H146529   4.644   2.679   0.925  0.0589  1.0130  0.9158
 8346TIP3    H246530   4.690   2.637   1.063  0.3242 -2.0118 -0.0178
 8347TIP3   OH246531   6.090   4.890   4.469  0.2633  0.1789  0.3148
 8347TIP3    H146532   6.089   4.985   4.482 -0.0137  0.2181  0.0388
 8347TIP3    H246533   6.023   4.857   4.530  0.4781  0.1447  0.5315
 8348TIP3   OH246534   5.223   4.025  11.959 -0.1125 -0.2667 -0.3418
 8348TIP3    H146535   5.204   4.111  11.923 -0.4358  1.3386  3.1980
 8348TIP3    H246536   5.137   3.986  11.977 -0.0526  0.2260  1.1983
 8349TIP3   OH246537   4.835   4.885   3.658  0.6183  0.2547  0.1762
 8349TIP3    H146538   4.797   4.874   3.745 -0.4740 -1.6092 -0.4734
 8349TIP3    H246539   4.845   4.980   3.648 -2.0639  0.7368  1.1901
 8350TIP3   OH246540   2.167   2.462  12.616 -0.4349 -0.2545  0.4850
 8350TIP3    H146541   2.101   2.490  12.552 -1.3727  0.8389  1.8676
 8350TIP3    H246542   2.197   2.543  12.656  0.4565 -0.8862  1.1384
 8351TIP3   OH246543   1.346   0.565  12.624 -0.2593  0.1270  0.0416
 8351TIP3    H146544   1.329   0.514  12.545  1.7329 -0.2087 -0.2356
 8351TIP3    H246545   1.424   0.617  12.602  0.5559 -0.2468  1.8685
 8352TIP3   OH246546   4.745   1.334   2.727 -0.0389 -0.2484 -0.6927
 8352TIP3    H146547   4.688   1.370   2.659  0.2769  0.4947 -0.5769
 8352TIP3    H246548   4.830   1.325   2.686  0.3254  0.8502 -0.2300
 8353TIP3   OH246549   3.136   6.497  11.996  0.4992  0.1805  0.0997
 8353TIP3    H146550   3.122   6.420  12.051 -0.5048  1.9863  2.5359
 8353TIP3    H246551   3.084   6.479  11.917  0.9181 -1.9362  0.2437
 8354TIP3   OH246552   3.552   2.952  17.093  0.5777 -0.0130  0.0611
 8354TIP3    H146553   3.565   3.044  17.118  3.2553  0.2681 -1.9138
 8354TIP3    H246554   3.521   2.956  17.002  0.2527 -1.0753  0.1088
 8355TIP3   OH246555   3.369   3.575  13.039  0.2672  0.5489  0.2399
 8355TIP3    H146556   3.297   3.533  13.086 -0.3484  0.4924 -0.7111
 8355TIP3    H246557   3.395   3.510  12.973  1.6897  0.2778  1.0342
 8356TIP3   OH246558   2.753   6.800  11.356 -0.3423  1.1155  0.4085
 8356TIP3    H146559   2.826   6.741  11.337 -1.4222 -0.7745  1.7031
 8356TIP3    H246560   2.791   6.869  11.411  0.2586 -0.7383  2.4632
 8357TIP3   OH246561   1.288   0.801  16.962 -0.4482  0.3394 -0.1617
 8357TIP3    H146562   1.232   0.878  16.964 -1.7966 -0.6229  0.6111
 8357TIP3    H246563   1.228   0.728  16.949  0.6380 -0.7178  0.5182
 8358TIP3   OH246564   2.219   5.956  15.140  0.8256  0.0191  0.0452
 8358TIP3    H146565   2.186   5.988  15.224  1.1116  0.4310  0.0009
 8358TIP3    H246566   2.199   6.026  15.078 -2.4841 -1.5873 -0.9705
 8359TIP3   OH246567   4.324   2.192   5.605  0.2053 -0.5243 -0.4901
 8359TIP3    H146568   4.381   2.267   5.590  0.4056 -0.0626  2.1322
 8359TIP3    H246569   4.382   2.117   5.606  0.5947 -0.2285  0.6810
 8360TIP3   OH246570   5.785   4.071  16.659  0.0567 -0.0495 -0.0354
 8360TIP3    H146571   5.857   4.132  16.679  0.3702 -0.1852 -0.7286
 8360TIP3    H246572   5.795   4.052  16.566  0.8756 -2.3450  0.4732
 8361TIP3   OH246573   4.374   6.238   2.582 -0.4530  0.3438  0.4448
 8361TIP3    H146574   4.297   6.288   2.555 -1.5850 -0.3437  2.2333
 8361TIP3    H246575   4.448   6.283   2.540 -1.9502 -0.5991 -3.6312
 8362TIP3   OH246576   2.116   6.595  15.623  0.2409 -0.0048  0.2936
 8362TIP3    H146577   2.056   6.649  15.572 -2.7955 -1.8179  1.6903
 8362TIP3    H246578   2.135   6.648  15.700 -1.3292 -0.1926  0.8438
 8363TIP3   OH246579   4.872   1.913  14.371 -0.1864 -0.1514 -0.3068
 8363TIP3    H146580   4.900   2.003  14.387  2.3648 -0.8795 -0.2517
 8363TIP3    H246581   4.809   1.895  14.441 -1.7325  1.9170 -1.0398
 8364TIP3   OH246582   0.438   4.789  13.663 -0.6503  0.6862  0.0426
 8364TIP3    H146583   0.489   4.714  13.693  0.3324  1.3695  0.1302
 8364TIP3    H246584   0.347   4.763  13.678 -0.4267 -1.0916 -1.3323
 8365TIP3   OH246585   0.754   1.350  17.260 -0.0061 -0.4560  0.0621
 8365TIP3    H146586   0.776   1.327  17.170  2.3277 -0.6582  0.6253
 8365TIP3    H246587   0.665   1.316  17.273  0.5225 -2.5727 -1.4227
 8366TIP3   OH246588   5.839   0.583   1.372 -0.5275  0.3306 -0.1201
 8366TIP3    H146589   5.872   0.615   1.288 -0.6048 -1.9494 -1.0882
 8366TIP3    H246590   5.781   0.653   1.403 -0.1981  1.3901 -1.7637
 8367TIP3   OH246591   3.930   0.497  11.392  0.2536 -0.8614  0.0053
 8367TIP3    H146592   3.884   0.427  11.345  0.9538 -1.3584  0.0416
 8367TIP3    H246593   3.997   0.451  11.443  0.5851 -0.1792  0.1886
 8368TIP3   OH246594   6.457   0.446   1.778  0.2277 -0.4619 -0.3648
 8368TIP3    H146595   6.396   0.375   1.760  0.0489 -0.4037  0.0094
 8368TIP3    H246596   6.542   0.413   1.748 -0.1032 -0.2667 -1.5392
 8369TIP3   OH246597   0.875   5.571   4.536 -0.2024  0.8463  0.4969
 8369TIP3    H146598   0.894   5.543   4.446  0.3407  0.9012  0.5900
 8369TIP3    H246599   0.939   5.525   4.589  0.2286  1.6879  0.7321
 8370TIP3   OH246600   6.421   1.844   2.516  0.5988  0.0278 -0.3145
 8370TIP3    H146601   6.474   1.774   2.478  1.6531  1.7446 -2.1845
 8370TIP3    H246602   6.370   1.879   2.443  1.4119  2.3332  0.1394
 8371TIP3   OH246603   1.596   3.138   5.749 -0.4384  0.0375  0.5466
 8371TIP3    H146604   1.558   3.050   5.743 -0.2844  0.0126 -0.2112
 8371TIP3    H246605   1.685   3.124   5.780 -1.0855  0.1137  2.5608
 8372TIP3   OH246606   6.484   3.660  15.487 -0.1595  0.0024 -0.0614
 8372TIP3    H146607   6.394   3.679  15.513  0.2708 -0.6011  2.1121
 8372TIP3    H246608   6.535   3.732  15.522  0.3811 -0.4684  0.1398
 8373TIP3   OH246609   5.456   3.683   3.399  0.5982 -0.1573 -0.4316
 8373TIP3    H146610   5.498   3.631   3.468 -0.2717  0.2480  0.4194
 8373TIP3    H246611   5.362   3.669   3.413  0.4086 -0.6617 -2.0008
 8374TIP3   OH246612   5.251   6.240  14.891 -0.0042 -0.0099  0.7527
 8374TIP3    H146613   5.331   6.259  14.842  0.5561  0.0718  1.6751
 8374TIP3    H246614   5.270   6.270  14.980 -1.4127  0.8852  0.7775
 8375TIP3   OH246615   4.749   6.406   3.241  0.1929 -0.1478  0.0399
 8375TIP3    H146616   4.770   6.499   3.232 -0.6236  0.1449  0.9387
 8375TIP3    H246617   4.832   6.361   3.225  0.7998  0.7820  0.4303
 8376TIP3   OH246618   1.742   5.897   4.653 -0.0165 -0.4976 -0.1963
 8376TIP3    H146619   1.758   5.810   4.691 -0.5216 -0.5303 -0.0384
 8376TIP3    H246620   1.666   5.884   4.596  0.3812 -0.3202 -0.7637
 8377TIP3   OH246621   5.908   2.730   3.588 -0.3467  0.2375 -0.5715
 8377TIP3    H146622   5.878   2.780   3.664  0.8495 -0.5324  0.4306
 8377TIP3    H246623   5.998   2.758   3.574  0.2948 -1.4773 -0.0875
 8378TIP3   OH246624   5.445   2.276  16.413  0.1144  0.4679  0.8401
 8378TIP3    H146625   5.352   2.257  16.422 -0.1436  2.2520  3.2880
 8378TIP3    H246626   5.448   2.355  16.359  0.6709 -2.1080 -3.2699
 8379TIP3   OH246627   5.875   4.755  13.426  0.3201 -0.0491  0.6002
 8379TIP3    H146628   5.916   4.840  13.414  0.1269 -0.0053  0.2148
 8379TIP3    H246629   5.787   4.766  13.389  0.8931 -0.9278 -1.1108
 8380TIP3   OH246630   1.475   6.661   0.567 -0.2427  0.0923 -0.6812
 8380TIP3    H146631   1.476   6.709   0.650 -1.5761  0.0014 -0.5927
 8380TIP3    H246632   1.454   6.728   0.501  0.4868  0.1045 -0.9030
 8381TIP3   OH246633   6.529   1.057  12.478 -0.3796  0.0592  0.1107
 8381TIP3    H146634   6.479   1.061  12.397  1.1738 -2.7058 -1.1291
 8381TIP3    H246635   6.477   1.002  12.536 -0.3939  0.0720  0.1102
 8382TIP3   OH246636   5.895   1.075   0.218 -0.2011 -0.8655 -0.1739
 8382TIP3    H146637   5.817   1.103   0.265  0.0617 -1.4382  0.6204
 8382TIP3    H246638   5.862   1.036   0.137 -0.7388 -1.0721  0.1404
 8383TIP3   OH246639   6.283   4.438   3.419 -0.1143 -0.3992  0.0975
 8383TIP3    H146640   6.199   4.403   3.449 -0.0113 -0.6296  0.1170
 8383TIP3    H246641   6.259   4.506   3.357 -0.3643  0.8312  1.4749
 8384TIP3   OH246642   5.595   3.766   0.768 -0.0910 -0.3984 -0.5342
 8384TIP3    H146643   5.658   3.746   0.699  1.7927 -0.0452  1.0049
 8384TIP3    H246644   5.599   3.690   0.826 -1.2013 -0.4226 -0.4784
 8385TIP3   OH246645   0.743   3.575   0.629  0.4026 -0.0874 -0.5486
 8385TIP3    H146646   0.686   3.512   0.585  0.9144 -1.8970  1.2197
 8385TIP3    H246647   0.685   3.620   0.690 -0.1542  1.9050 -2.4285
 8386TIP3   OH246648   2.811   4.354   1.546 -0.1315 -0.0116  0.1326
 8386TIP3    H146649   2.804   4.385   1.637 -0.5591 -0.7423  0.3565
 8386TIP3    H246650   2.904   4.335   1.535  0.5567  3.2017 -0.6591
 8387TIP3   OH246651   0.964   3.936  15.699  0.0954 -0.1816 -0.1457
 8387TIP3    H146652   0.991   3.948  15.791  0.0922 -0.7753 -0.0673
 8387TIP3    H246653   0.941   3.844  15.692 -1.9076  0.2730 -0.2184
 8388TIP3   OH246654   3.573   0.324  15.277 -0.1708 -0.3025 -0.1452
 8388TIP3    H146655   3.621   0.258  15.326  1.2742  1.1809  0.5542
 8388TIP3    H246656   3.611   0.322  15.189  0.2295 -0.0640  0.0203
 8389TIP3   OH246657   1.105   1.261  12.438  0.4061  0.0125 -0.2369
 8389TIP3    H146658   1.091   1.199  12.367  2.6670 -0.7233 -0.1328
 8389TIP3    H246659   1.145   1.208  12.508 -0.3827  1.0148  1.0070
 8390TIP3   OH246660   5.472   6.047  12.064  0.1126  0.0654 -0.1299
 8390TIP3    H146661   5.405   6.008  12.119  0.8835 -0.8281  0.2019
 8390TIP3    H246662   5.468   5.999  11.982  0.6069 -0.2736  0.0360
 8391TIP3   OH246663   6.546   4.958   0.719 -0.0632  0.2824 -0.1737
 8391TIP3    H146664   6.480   4.906   0.673  1.1025 -0.2478 -1.3203
 8391TIP3    H246665   6.540   5.045   0.680  0.3799  0.0453 -0.7871
 8392TIP3   OH246666   2.572   3.733  12.205  0.5443  0.7498  0.0043
 8392TIP3    H146667   2.510   3.674  12.161  1.3470  0.7043 -1.1001
 8392TIP3    H246668   2.591   3.690  12.288  0.9618 -0.4670 -0.7007
 8393TIP3   OH246669   2.253   5.903  13.134 -0.5588 -1.0495  0.2752
 8393TIP3    H146670   2.247   5.814  13.169  0.5811 -0.6407  1.6133
 8393TIP3    H246671   2.347   5.917  13.120 -0.5634  0.4287  1.4807
 8394TIP3   OH246672   4.122   1.920  16.548  0.7454 -0.1961 -0.1329
 8394TIP3    H146673   4.148   1.836  16.509 -1.4348 -0.2796 -1.5648
 8394TIP3    H246674   4.157   1.986  16.488  0.1429 -0.2007 -0.4954
 8395TIP3   OH246675   3.039   1.566   1.607  0.5147  0.1229 -0.7019
 8395TIP3    H146676   3.100   1.640   1.597  2.1104 -1.1018 -0.3902
 8395TIP3    H246677   3.091   1.497   1.648 -1.3751 -0.6377  0.5829
 8396TIP3   OH246678   0.476   6.540   6.112 -0.0141 -0.2177  0.1882
 8396TIP3    H146679   0.451   6.465   6.167  0.1435  0.0517  0.6364
 8396TIP3    H246680   0.473   6.615   6.172  0.1102  0.0895 -0.1879
 8397TIP3   OH246681   5.158   4.143  13.514  0.0505 -0.2737 -0.2254
 8397TIP3    H146682   5.095   4.117  13.448 -0.8341  0.5539  0.2703
 8397TIP3    H246683   5.242   4.111  13.481 -0.2761  0.5872 -2.0224
 8398TIP3   OH246684   5.812   0.858  12.239 -0.0641 -0.1568 -0.6257
 8398TIP3    H146685   5.857   0.774  12.244  0.2278 -0.0719 -1.5473
 8398TIP3    H246686   5.852   0.912  12.306 -0.2024 -0.7273 -0.0774
 8399TIP3   OH246687   0.636   6.544  15.646 -0.4005  0.2410 -0.4017
 8399TIP3    H146688   0.636   6.635  15.616 -2.9200  0.3898 -0.1440
 8399TIP3    H246689   0.592   6.547  15.731  0.6820 -1.0751  0.2383
 8400TIP3   OH246690   5.716   2.780  12.881  0.0491 -0.3868  0.3602
 8400TIP3    H146691   5.656   2.739  12.818 -1.3596  0.5761  1.0306
 8400TIP3    H246692   5.702   2.874  12.870  1.0693 -0.1554  0.9178
 8401TIP3   OH246693   1.437   5.642  14.005 -0.1724  0.2689  0.0814
 8401TIP3    H146694   1.401   5.730  14.008 -2.5436 -0.6318  3.0248
 8401TIP3    H246695   1.508   5.643  14.069  1.3906  0.5620 -1.5864
 8402TIP3   OH246696   1.558   6.357  15.186  0.3647  0.0148 -1.0400
 8402TIP3    H146697   1.650   6.344  15.161  1.0106  0.2459  1.0610
 8402TIP3    H246698   1.528   6.427  15.127  1.4973 -0.1362 -1.8338
 8403TIP3   OH246699   2.697   4.107  13.291  0.0292  0.5533  0.4693
 8403TIP3    H146700   2.742   4.043  13.236 -1.0027  0.5392 -0.3874
 8403TIP3    H246701   2.656   4.054  13.360 -0.8180  0.2661 -0.2338
 8404TIP3   OH246702   0.449   2.344   5.605 -0.3776  0.6570  0.3855
 8404TIP3    H146703   0.523   2.283   5.601 -1.6361 -0.9208 -0.1857
 8404TIP3    H246704   0.449   2.375   5.696  0.4100 -0.0866  0.6603
 8405TIP3   OH246705   6.504   3.395   4.780  0.2252  0.2243 -0.4544
 8405TIP3    H146706   6.479   3.406   4.872  2.0816  1.7124 -0.0798
 8405TIP3    H246707   6.446   3.455   4.733 -0.3329 -0.1117 -0.2164
 8406TIP3   OH246708   1.915   6.599   0.168 -0.4414 -0.0887  0.3098
 8406TIP3    H146709   1.909   6.694   0.167  0.9929  0.0249 -0.3790
 8406TIP3    H246710   1.949   6.575   0.082  0.5776 -1.0923  0.9471
 8407TIP3   OH246711   2.349   1.147  14.070  0.1078 -0.0774  0.2905
 8407TIP3    H146712   2.378   1.087  14.002  2.4857  1.9496 -0.6458
 8407TIP3    H246713   2.427   1.163  14.123 -0.6479  1.5437  0.9950
 8408TIP3   OH246714   5.608   2.815   0.729 -0.6647  0.7926 -0.2621
 8408TIP3    H146715   5.530   2.761   0.727 -0.9098  1.1499 -0.5343
 8408TIP3    H246716   5.676   2.759   0.768 -1.3432  0.8697  1.0717
 8409TIP3   OH246717   6.546   2.864  16.575 -0.0820  0.2200  0.7423
 8409TIP3    H146718   6.552   2.932  16.508  1.8111  0.1072  0.7537
 8409TIP3    H246719   6.500   2.906  16.648 -2.9376  0.1009 -0.8615
 8410TIP3   OH246720   4.573   4.992  15.230 -0.3591 -0.0316  0.4764
 8410TIP3    H146721   4.599   4.966  15.142 -1.5093  1.6802 -0.4218
 8410TIP3    H246722   4.477   4.989  15.229 -0.3816 -0.3727  1.8103
 8411TIP3   OH246723   3.882   2.691  12.774 -0.7307 -0.5041 -0.2907
 8411TIP3    H146724   3.871   2.656  12.862 -0.0958  0.4998  0.2116
 8411TIP3    H246725   3.899   2.614  12.719 -1.0522 -1.1307  0.4672
 8412TIP3   OH246726   4.436   4.467   2.415  0.0667 -0.0128 -0.7609
 8412TIP3    H146727   4.438   4.518   2.496  1.6689  0.7700 -1.2511
 8412TIP3    H246728   4.343   4.455   2.396 -0.4323 -2.1965  2.3707
 8413TIP3   OH246729   5.495   2.704  14.401 -0.6820 -0.0275  0.4073
 8413TIP3    H146730   5.579   2.701  14.448 -0.8457 -1.3121  0.6519
 8413TIP3    H246731   5.520   2.702  14.309 -0.4195  0.0878  0.4755
 8414TIP3   OH246732   5.209   6.382   6.004 -0.2222  0.1147  0.3765
 8414TIP3    H146733   5.202   6.407   6.096  3.5130  0.1540  0.8126
 8414TIP3    H246734   5.227   6.463   5.958 -0.8409 -0.0800 -0.2262
 8415TIP3   OH246735   0.863   0.255  16.195  0.6661 -0.3512 -0.0192
 8415TIP3    H146736   0.867   0.351  16.196  1.1272 -0.3489  2.0593
 8415TIP3    H246737   0.953   0.227  16.176  0.6312 -0.3898 -0.1329
 8416TIP3   OH246738   1.506   0.460   2.354 -0.2836  0.0028 -0.2503
 8416TIP3    H146739   1.447   0.478   2.427  0.7708 -0.5455  0.7613
 8416TIP3    H246740   1.464   0.390   2.305  0.4735 -1.8663  1.6490
 8417TIP3   OH246741   3.511   0.072   3.998 -0.0522  0.0338 -0.1517
 8417TIP3    H146742   3.511   0.165   4.022 -0.2038 -0.2674  1.0520
 8417TIP3    H246743   3.441   0.033   4.050 -0.0992 -0.7398 -0.7642
 8418TIP3   OH246744   0.373   4.989   6.143  0.1945  0.4866 -0.3369
 8418TIP3    H146745   0.302   4.994   6.207 -0.9459  1.7127 -1.6345
 8418TIP3    H246746   0.451   4.969   6.195 -1.1086 -1.2549  1.0964
 8419TIP3   OH246747   4.946   3.210  11.867 -0.0665 -0.2863 -0.4709
 8419TIP3    H146748   4.983   3.264  11.937  0.0003 -0.9799  0.0404
 8419TIP3    H246749   5.022   3.172  11.824 -0.0870  0.5664 -1.2787
 8420TIP3   OH246750   2.089   0.361  13.216 -0.2932 -0.4349 -0.7625
 8420TIP3    H146751   2.064   0.411  13.293 -0.7276  0.2934 -1.3697
 8420TIP3    H246752   2.114   0.275  13.250 -2.2532 -0.7270  0.0093
 8421TIP3   OH246753   5.145   2.196  13.898 -0.2615 -0.3820  0.4262
 8421TIP3    H146754   5.119   2.123  13.842 -0.0465  0.1072 -0.3220
 8421TIP3    H246755   5.124   2.167  13.987  0.3135 -1.5759  0.1951
 8422TIP3   OH246756   6.679   3.247  16.852  0.3300  0.0935 -0.0729
 8422TIP3    H146757   6.738   3.200  16.910  1.6269  0.7402 -0.8092
 8422TIP3    H246758   6.625   3.301  16.910  1.7111  0.8498  0.5407
 8423TIP3   OH246759   0.868   5.878   0.898  0.0966  0.5729  0.9968
 8423TIP3    H146760   0.805   5.912   0.835 -0.6808 -0.8324  0.9653
 8423TIP3    H246761   0.815   5.826   0.959  1.1847 -0.3643  1.1759
 8424TIP3   OH246762   3.168   5.413   4.776 -0.2580 -0.2769 -0.3804
 8424TIP3    H146763   3.145   5.321   4.785  0.4885 -0.3414  1.0457
 8424TIP3    H246764   3.243   5.414   4.716 -2.5101 -0.2296 -3.4250
 8425TIP3   OH246765   5.130   2.906  13.901 -0.3347 -0.8242  0.4717
 8425TIP3    H146766   5.125   2.825  13.850  2.3001 -0.6847 -0.1525
 8425TIP3    H246767   5.176   2.881  13.981  1.1677  0.1367 -0.0463
 8426TIP3   OH246768   5.038   6.603  11.966  0.3468  0.2513 -0.4059
 8426TIP3    H146769   5.047   6.694  11.995 -0.1908 -0.0608  0.7639
 8426TIP3    H246770   5.118   6.560  11.998 -0.8760 -0.4164  1.9562
 8427TIP3   OH246771   0.290   3.987  12.689  0.0134  0.4391 -0.2149
 8427TIP3    H146772   0.257   3.957  12.774 -1.8497 -0.2490 -1.1074
 8427TIP3    H246773   0.385   3.983  12.697 -0.0717  1.2217  2.1065
 8428TIP3   OH246774   1.046   2.723   6.033  0.0701  0.4229  0.0830
 8428TIP3    H146775   0.984   2.689   6.098  0.2569  0.3885  0.2419
 8428TIP3    H246776   1.107   2.651   6.018  1.2038  1.0894  1.3366
 8429TIP3   OH246777   6.709   3.788  11.460 -0.9547  0.0620  0.5719
 8429TIP3    H146778   6.691   3.806  11.552 -0.2477 -0.2081  0.7676
 8429TIP3    H246779   6.689   3.696  11.448 -3.2915  0.5911 -0.1181
 8430TIP3   OH246780   3.713   0.788   1.900 -0.0342  0.2604  0.2060
 8430TIP3    H146781   3.734   0.709   1.851 -2.0871 -0.4519  0.3552
 8430TIP3    H246782   3.664   0.843   1.838  2.6457  2.1688 -0.3708
 8431TIP3   OH246783   6.160   5.671   1.997  0.1496  0.3026 -0.0819
 8431TIP3    H146784   6.155   5.696   2.090 -1.4486 -0.7686  0.1561
 8431TIP3    H246785   6.108   5.737   1.952 -1.1578 -0.5494  0.1220
 8432TIP3   OH246786   4.188   0.640   5.612  0.3800 -0.3510 -0.4545
 8432TIP3    H146787   4.227   0.633   5.698  1.2587  0.0045 -0.8103
 8432TIP3    H246788   4.176   0.735   5.599  0.7664 -0.3652 -0.9395
 8433TIP3   OH246789   0.794   5.714  11.147  0.0893  0.0400  0.2343
 8433TIP3    H146790   0.830   5.655  11.081  0.4292  0.1203  0.3437
 8433TIP3    H246791   0.708   5.738  11.113 -0.2938 -0.9676  0.4735
 8434TIP3   OH246792   3.806   2.624   4.104  0.6659  0.1963 -0.4645
 8434TIP3    H146793   3.880   2.569   4.131  0.3138  0.1072  0.3456
 8434TIP3    H246794   3.762   2.573   4.036  1.5405  0.4019 -1.2038
 8435TIP3   OH246795   1.124   5.961   5.520  0.2651  0.4118  0.2423
 8435TIP3    H146796   1.169   5.907   5.585 -0.8520  0.6452  1.2427
 8435TIP3    H246797   1.155   6.050   5.537  0.4669  0.3850  0.0187
 8436TIP3   OH246798   5.236   4.189  11.644  0.2492 -0.0618  0.3615
 8436TIP3    H146799   5.266   4.269  11.600  1.1105 -0.5621  0.0177
 8436TIP3    H246800   5.173   4.151  11.582 -0.5242  0.5745  0.7323
 8437TIP3   OH246801   2.951   0.395   0.281 -0.1205  0.3445  0.4636
 8437TIP3    H146802   2.888   0.430   0.344  0.2878  1.1600  0.4436
 8437TIP3    H246803   2.964   0.467   0.219  0.7874  0.1777  0.4487
 8438TIP3   OH246804   5.279   1.716   5.993  0.4080  0.2360 -0.0889
 8438TIP3    H146805   5.204   1.776   5.992 -0.6121 -0.9731  0.0609
 8438TIP3    H246806   5.248   1.640   6.043  1.9544 -0.0518  0.4914
 8439TIP3   OH246807   2.404   2.436  16.020 -0.7331 -0.0218 -0.0441
 8439TIP3    H146808   2.428   2.355  16.064  1.6784  0.3757 -0.4434
 8439TIP3    H246809   2.365   2.490  16.088  0.8164 -0.2803  1.1026
 8440TIP3   OH246810   2.653   4.286  11.200  0.2226  0.4321  0.1303
 8440TIP3    H146811   2.615   4.314  11.117  1.8208  1.7645 -0.2084
 8440TIP3    H246812   2.621   4.350  11.264  0.4484  0.4999  0.1781
 8441TIP3   OH246813   0.871   2.887  17.220 -0.1232  0.2293  0.0111
 8441TIP3    H146814   0.833   2.905  17.306  1.2243  0.9304  0.4920
 8441TIP3    H246815   0.868   2.791  17.212  0.4232  0.0925  1.1803
 8442TIP3   OH246816   1.147   1.227  17.002 -0.1655 -0.4631  0.4653
 8442TIP3    H146817   1.161   1.304  17.057  3.4429  1.1102 -2.2062
 8442TIP3    H246818   1.235   1.190  16.990 -1.0943 -2.1605 -2.1507
 8443TIP3   OH246819   5.541   5.182  10.916 -0.6060  0.2166  0.3510
 8443TIP3    H146820   5.567   5.230  10.995  1.2317 -1.4496  0.8195
 8443TIP3    H246821   5.496   5.104  10.949 -1.8345  0.5849 -0.3581
 8444TIP3   OH246822   0.446   1.851   3.564 -0.3166  0.3623 -0.2255
 8444TIP3    H146823   0.366   1.903   3.562 -0.3265  0.4002  0.7853
 8444TIP3    H246824   0.513   1.908   3.525 -0.4076  1.0030  0.5310
 8445TIP3   OH246825   4.748   1.914  16.464  0.2562 -0.1204 -0.2835
 8445TIP3    H146826   4.697   1.868  16.398 -1.0851  1.1733 -0.1903
 8445TIP3    H246827   4.819   1.853  16.486 -0.6840 -1.5752 -1.1122
 8446TIP3   OH246828   4.129   1.096  14.984  0.4601  0.2829 -0.1105
 8446TIP3    H146829   4.075   1.020  14.962 -0.2062  1.2283 -1.9606
 8446TIP3    H246830   4.066   1.163  15.010  0.9504  0.5673  0.3595
 8447TIP3   OH246831   6.600   2.824   0.094  0.1072 -0.1014  0.3115
 8447TIP3    H146832   6.664   2.863   0.034 -1.4677  1.8530 -0.1860
 8447TIP3    H246833   6.534   2.785   0.036 -0.6220  0.4276  0.7824
 8448TIP3   OH246834   0.728   6.559   6.056 -0.6389  0.1231  0.1191
 8448TIP3    H146835   0.730   6.586   5.964 -2.3988  1.7991  0.5010
 8448TIP3    H246836   0.635   6.562   6.079 -0.4931 -2.4712  1.3775
 8449TIP3   OH246837   2.750   2.745  17.250 -0.3081 -0.3148 -0.2856
 8449TIP3    H146838   2.738   2.807  17.177  0.8341  0.8752  0.4957
 8449TIP3    H246839   2.698   2.781  17.321  3.1778  1.9418  1.3878
 8450TIP3   OH246840   4.062   5.065   2.402 -0.5167  0.3473 -0.8160
 8450TIP3    H146841   4.022   5.025   2.479  1.3277 -0.1472 -0.0530
 8450TIP3    H246842   4.156   5.054   2.416 -0.1033  1.2518 -2.6163
 8451TIP3   OH246843   5.668   1.975  11.743 -0.4520 -0.0747 -0.3123
 8451TIP3    H146844   5.702   2.035  11.676 -0.1648 -0.0625 -0.1585
 8451TIP3    H246845   5.746   1.948  11.793 -0.6995  0.1142  0.1785
 8452TIP3   OH246846   6.071   6.084   3.329 -0.1493  0.3993  0.2426
 8452TIP3    H146847   6.088   6.122   3.415  1.6528  0.4448 -0.0873
 8452TIP3    H246848   6.101   5.993   3.337  1.5820  0.8314 -0.7392
 8453TIP3   OH246849   5.921   3.082   5.970  0.1782 -0.1099  0.0804
 8453TIP3    H146850   6.007   3.124   5.964 -0.1591  0.6295  0.2519
 8453TIP3    H246851   5.933   3.012   6.034  0.9495 -0.8030 -0.8055
 8454TIP3   OH246852   2.696   1.595   4.819 -0.6144 -0.1489 -0.0623
 8454TIP3    H146853   2.753   1.521   4.799  1.3757  0.1706  3.5518
 8454TIP3    H246854   2.753   1.671   4.816 -1.0796  0.3733  2.1041
 8455TIP3   OH246855   2.495   6.291   3.354  0.1448  0.2524  0.3843
 8455TIP3    H146856   2.481   6.376   3.312 -1.3532 -0.2793 -0.2600
 8455TIP3    H246857   2.440   6.230   3.304  0.8503 -1.0215  1.1022
 8456TIP3   OH246858   5.672   2.099   2.650  0.6077  0.3339 -0.1036
 8456TIP3    H146859   5.663   2.111   2.744 -1.6389  0.6939 -0.2987
 8456TIP3    H246860   5.582   2.088   2.619  1.2948  0.2412 -2.2087
 8457TIP3   OH246861   0.697   4.016  15.291  0.0279  0.9749 -0.2686
 8457TIP3    H146862   0.749   4.060  15.224  1.0839  1.3110  0.7480
 8457TIP3    H246863   0.712   4.067  15.371  1.5746 -1.3685  1.0395
 8458TIP3   OH246864   1.295   6.801   5.027  0.2135 -0.7431 -0.1924
 8458TIP3    H146865   1.302   6.859   4.952  5.0580  0.0403  0.5193
 8458TIP3    H246866   1.337   6.850   5.099  0.8515 -3.5601  1.5110
 8459TIP3   OH246867   3.860   0.049   6.210 -0.2963  0.1650 -0.0544
 8459TIP3    H146868   3.864   0.011   6.123 -0.4413  0.9226 -0.4038
 8459TIP3    H246869   3.797  -0.005   6.257 -1.3142  0.5993 -0.8749
 8460TIP3   OH246870   3.765   3.414  14.694  0.6930 -0.4324  0.1034
 8460TIP3    H146871   3.839   3.388  14.638  1.2231 -2.5027  1.6740
 8460TIP3    H246872   3.784   3.376  14.779 -0.3478  2.2025  1.6482
 8461TIP3   OH246873   5.071   3.986  13.778  0.6534  0.2398 -0.1041
 8461TIP3    H146874   5.108   4.005  13.692 -0.2941  1.0574 -0.3490
 8461TIP3    H246875   5.112   3.903  13.804  0.7538 -0.1582 -1.4525
 8462TIP3   OH246876   2.454   6.528   4.424 -0.2176  0.1369  0.3188
 8462TIP3    H146877   2.429   6.574   4.344 -0.0539 -0.4534 -0.0845
 8462TIP3    H246878   2.515   6.587   4.468  1.6280 -0.5123 -1.2168
 8463TIP3   OH246879   1.717   0.708  13.249  0.1486  0.1880 -0.3763
 8463TIP3    H146880   1.711   0.768  13.176 -0.2995  0.7300  0.1013
 8463TIP3    H246881   1.626   0.687  13.271  0.2903 -0.3505 -0.2829
 8464TIP3   OH246882   2.872   6.615   3.452  0.1884  0.1492 -0.2119
 8464TIP3    H146883   2.921   6.645   3.376 -0.2450  0.8390 -0.2327
 8464TIP3    H246884   2.851   6.524   3.434  1.1143 -0.0349 -0.3782
 8465TIP3   OH246885   0.456   1.043  10.842 -0.3635  0.8347  0.0964
 8465TIP3    H146886   0.401   0.981  10.889 -0.2488  0.1704 -0.6337
 8465TIP3    H246887   0.535   0.994  10.821 -0.4545  1.0908 -0.8840
 8466TIP3   OH246888   0.268   1.703  14.643  0.2383 -0.3128 -0.1831
 8466TIP3    H146889   0.311   1.630  14.598 -1.7050 -1.1831 -0.7525
 8466TIP3    H246890   0.219   1.662  14.714 -1.6396  0.2475 -1.0790
 8467TIP3   OH246891   1.945   0.681  13.020  0.6484 -0.2582 -0.0498
 8467TIP3    H146892   1.856   0.708  13.042  1.3114  1.1224  1.1402
 8467TIP3    H246893   1.962   0.721  12.935  0.3529 -0.0104  0.0061
 8468TIP3   OH246894   5.222   2.627  16.040  0.5145  0.6449 -0.0161
 8468TIP3    H146895   5.225   2.723  16.038 -1.4210  0.7588  0.3800
 8468TIP3    H246896   5.264   2.600  15.959 -0.1847  1.8994 -0.8453
 8469TIP3   OH246897   5.985   4.268   2.083 -0.1914  0.0738  0.4109
 8469TIP3    H146898   5.909   4.294   2.030 -1.0933  0.3993  1.8104
 8469TIP3    H246899   6.056   4.258   2.020 -1.3451 -0.0515 -0.9198
 8470TIP3   OH246900   0.291   2.467   0.851  0.0623  0.3676 -0.3130
 8470TIP3    H146901   0.274   2.418   0.932  1.2461 -2.7224 -1.7741
 8470TIP3    H246902   0.379   2.441   0.826  0.4448  2.7218 -1.6908
 8471TIP3   OH246903   4.118   3.407   4.811 -0.3093  0.7206 -0.0641
 8471TIP3    H146904   4.203   3.373   4.840 -0.0135  0.3196 -1.3353
 8471TIP3    H246905   4.094   3.351   4.737 -2.2758  0.0568  1.0000
 8472TIP3   OH246906   2.209   3.455   0.203 -0.4707  0.1140 -0.3258
 8472TIP3    H146907   2.164   3.484   0.282  0.5243  0.9255 -0.0329
 8472TIP3    H246908   2.235   3.536   0.159  1.7280 -0.2767  0.1267
 8473TIP3   OH246909   2.647   5.140  11.920  0.0130 -0.0564 -0.0972
 8473TIP3    H146910   2.711   5.210  11.930 -0.6294  0.5000  0.2200
 8473TIP3    H246911   2.698   5.065  11.892  0.8268  0.3277  0.3143
 8474TIP3   OH246912   3.587   4.245  13.475  0.0359 -0.5611 -0.2996
 8474TIP3    H146913   3.592   4.214  13.384 -0.8967  1.8222 -1.2424
 8474TIP3    H246914   3.663   4.205  13.517  1.0445 -1.0039 -2.3668
 8475TIP3   OH246915   4.582   4.272  12.446 -0.7036 -0.3543  0.0865
 8475TIP3    H146916   4.543   4.358  12.465 -0.1250 -0.0160 -0.2478
 8475TIP3    H246917   4.657   4.265  12.505 -2.1895 -1.7218  1.9459
 8476TIP3   OH246918   1.599   4.373   4.702  0.7885  0.0929  0.0276
 8476TIP3    H146919   1.632   4.463   4.701 -0.4757  0.5789 -0.3585
 8476TIP3    H246920   1.523   4.375   4.644  0.3863 -1.0858  0.4853
 8477TIP3   OH246921   1.333   1.248   5.876  0.1282 -0.2505  0.1718
 8477TIP3    H146922   1.332   1.273   5.968 -1.5025  0.0735  0.0925
 8477TIP3    H246923   1.267   1.303   5.835 -0.3268 -1.5204 -0.8734
 8478TIP3   OH246924   3.870   5.886   2.858 -0.3906  0.3574  0.9091
 8478TIP3    H146925   3.851   5.811   2.915 -1.5016 -0.6127 -0.6679
 8478TIP3    H246926   3.919   5.849   2.785 -1.4326  1.0265 -0.1794
 8479TIP3   OH246927   4.510   6.368   4.873 -0.2131 -0.2443 -0.3054
 8479TIP3    H146928   4.473   6.280   4.870 -0.2960 -0.1941 -1.0710
 8479TIP3    H246929   4.584   6.365   4.813  0.1624  0.0465  0.1381
 8480TIP3   OH246930   5.215   0.664   0.622  0.0362  0.4188 -0.1265
 8480TIP3    H146931   5.219   0.571   0.643  1.5172  0.6872  0.9451
 8480TIP3    H246932   5.280   0.676   0.553  0.2596  0.7486  0.1382
 8481TIP3   OH246933   6.243   0.540  13.383  0.4074  0.1424 -0.2754
 8481TIP3    H146934   6.263   0.459  13.431  2.7258  0.2434 -0.9289
 8481TIP3    H246935   6.324   0.560  13.336 -0.3207  2.5096 -0.6501
 8482TIP3   OH246936   2.581   5.243   1.588  0.1558 -0.2055 -0.2715
 8482TIP3    H146937   2.671   5.238   1.556  0.8181  0.7001  1.3371
 8482TIP3    H246938   2.547   5.154   1.577  1.5535 -0.7859 -0.0773
 8483TIP3   OH246939   3.547   4.316  11.713  0.1356 -0.0300  0.0319
 8483TIP3    H146940   3.553   4.232  11.668  1.4756 -0.1761  0.4315
 8483TIP3    H246941   3.529   4.379  11.644 -1.2081 -0.6609 -0.2353
 8484TIP3   OH246942   2.101   4.800  16.805 -0.4468 -0.1845  0.5295
 8484TIP3    H146943   2.080   4.835  16.891 -1.9864 -1.8637  0.8995
 8484TIP3    H246944   2.039   4.844  16.746 -3.3409 -2.9522  1.1892
 8485TIP3   OH246945   1.141   2.424  15.588  0.4353 -0.6124 -0.5192
 8485TIP3    H146946   1.148   2.470  15.504 -1.2017  3.0679  1.1350
 8485TIP3    H246947   1.055   2.382  15.584 -0.1032  0.4414 -0.3382
 8486TIP3   OH246948   6.181   1.408  15.697 -0.1241 -0.2167  0.0322
 8486TIP3    H146949   6.118   1.355  15.649  0.5134 -0.7592 -0.2159
 8486TIP3    H246950   6.218   1.348  15.762 -0.6111  0.3741  0.8739
 8487TIP3   OH246951   4.420   4.959   4.459  0.2396  0.4605 -0.3482
 8487TIP3    H146952   4.354   5.021   4.492  0.1087 -0.3542  0.9937
 8487TIP3    H246953   4.498   5.013   4.446  0.1645  0.9225  0.9117
 8488TIP3   OH246954   0.375   4.754   2.716  0.1763  0.3000 -0.0007
 8488TIP3    H146955   0.456   4.703   2.717  0.1800  0.2609 -1.2255
 8488TIP3    H246956   0.321   4.714   2.784  1.3051  0.5462  1.0745
 8489TIP3   OH246957   0.788   1.835   5.813  0.2128 -0.0977 -0.3007
 8489TIP3    H146958   0.823   1.765   5.757 -0.1574 -1.8415  1.5077
 8489TIP3    H246959   0.768   1.906   5.753 -1.6754 -2.4109 -2.6493
 8490TIP3   OH246960   5.750   1.769   5.636  0.2953 -0.1319  0.4712
 8490TIP3    H146961   5.738   1.679   5.667 -0.3929 -0.2326 -0.0546
 8490TIP3    H246962   5.729   1.765   5.542  1.2327  0.3836  0.2168
 8491TIP3   OH246963   2.856   2.536  12.882 -0.0154  0.4319 -0.0105
 8491TIP3    H146964   2.930   2.529  12.943  0.1059 -0.2159 -0.2299
 8491TIP3    H246965   2.891   2.505  12.798 -1.0111 -1.6592  0.2770
 8492TIP3   OH246966   1.039   5.218  11.933 -0.1614 -0.1945  0.2615
 8492TIP3    H146967   1.098   5.252  12.001 -0.8999  0.0950  0.7759
 8492TIP3    H246968   1.080   5.242  11.851  0.1481  0.5299  0.6174
 8493TIP3   OH246969   4.410   0.390  16.506  0.5028  0.2042  0.0834
 8493TIP3    H146970   4.446   0.302  16.504  1.3042  0.5358 -1.7464
 8493TIP3    H246971   4.466   0.438  16.568 -1.0151 -0.9309  2.5005
 8494TIP3   OH246972   4.301   5.818   0.125  0.2754 -0.4404  0.0743
 8494TIP3    H146973   4.242   5.767   0.069  0.5318  0.5454 -1.1445
 8494TIP3    H246974   4.348   5.753   0.176 -0.4201 -1.3463 -0.3981
 8495TIP3   OH246975   2.376   0.002   2.126  0.0617 -0.6018 -0.3760
 8495TIP3    H146976   2.448   0.050   2.084 -0.5871  1.5490  0.8233
 8495TIP3    H246977   2.391   0.014   2.220 -0.1407 -2.8409  0.0007
 8496TIP3   OH246978   4.957   4.645   5.354 -0.0023  0.4534 -0.0787
 8496TIP3    H146979   4.956   4.711   5.423 -1.3747  0.5186 -0.1377
 8496TIP3    H246980   4.886   4.671   5.295 -0.3508 -0.9025 -0.2709
 8497TIP3   OH246981   5.318   0.876   5.041 -0.1849 -0.4025  0.0022
 8497TIP3    H146982   5.392   0.936   5.040 -0.3845 -0.1626 -0.5165
 8497TIP3    H246983   5.332   0.822   5.119  1.3120 -1.3472 -0.8681
 8498TIP3   OH246984   5.008   4.796   3.459  0.5518 -0.0789 -0.3042
 8498TIP3    H146985   4.936   4.805   3.522  0.8888  0.4019  0.0169
 8498TIP3    H246986   5.060   4.875   3.472  0.6877 -0.0364 -1.1114
 8499TIP3   OH246987   5.455   5.420  13.058  0.3382 -0.1350 -0.2704
 8499TIP3    H146988   5.434   5.495  13.114  2.4390 -1.3348  2.3377
 8499TIP3    H246989   5.548   5.431  13.037 -0.1639 -0.1955 -2.9525
 8500TIP3   OH246990   4.412   2.236  15.145  0.9203  0.1746  0.2834
 8500TIP3    H146991   4.391   2.271  15.059  0.2209 -1.5060 -0.2788
 8500TIP3    H246992   4.501   2.202  15.136  1.9281  2.3874  1.0656
 8501TIP3   OH246993   0.977   4.659   5.477  0.0449 -0.1639 -0.0405
 8501TIP3    H146994   1.029   4.580   5.489  1.0101  0.4991  0.2449
 8501TIP3    H246995   0.918   4.660   5.552 -0.3844 -0.9167 -0.3591
 8502TIP3   OH246996   1.947   5.859  16.126  0.4635 -0.7805  0.1206
 8502TIP3    H146997   1.962   5.777  16.079  2.2283  0.3032 -1.3660
 8502TIP3    H246998   1.931   5.832  16.216 -0.2616 -2.8072 -0.5561
 8503TIP3   OH246999   1.993   0.726  12.750  0.3594  0.3396 -0.1434
 8503TIP3    H147000   2.038   0.805  12.721  1.5925  0.2159  1.3275
 8503TIP3    H247001   2.052   0.655  12.728  0.1756  0.0250  0.3573
 8504TIP3   OH247002   6.648   4.019  13.029 -0.4710 -0.7324  0.4809
 8504TIP3    H147003   6.653   4.095  12.971 -1.2932  0.1645  1.5394
 8504TIP3    H247004   6.696   3.950  12.982 -1.2602 -0.1164 -1.3228
 8505TIP3   OH247005   0.494   3.621  17.287  0.2388  0.1662  0.1824
 8505TIP3    H147006   0.481   3.661  17.202  0.2240 -0.1411  0.0383
 8505TIP3    H247007   0.447   3.678  17.348  1.1878  1.0011  0.1477
 8506TIP3   OH247008   2.409   2.182  12.129  0.2529  0.3547  0.0906
 8506TIP3    H147009   2.328   2.222  12.163 -0.0620 -0.5659  0.4357
 8506TIP3    H247010   2.381   2.137  12.049  0.7652  1.4799 -0.7635
 8507TIP3   OH247011   5.939   0.335   5.843 -0.1030 -0.0105  0.1032
 8507TIP3    H147012   5.855   0.343   5.797  0.9251 -1.1964 -2.0784
 8507TIP3    H247013   5.947   0.242   5.861  0.5169  0.1731  0.8067
 8508TIP3   OH247014   1.443   6.728   5.400  0.4605 -0.4206  0.1200
 8508TIP3    H147015   1.456   6.732   5.495 -3.0036  0.0944  0.7036
 8508TIP3    H247016   1.363   6.779   5.385  1.7279  0.8084 -3.3150
 8509TIP3   OH247017   0.204   0.993  12.237  0.0591  0.1423  0.4385
 8509TIP3    H147018   0.250   1.072  12.266  1.9021 -0.9062  0.4806
 8509TIP3    H247019   0.264   0.950  12.176 -1.4154 -0.6303 -0.5398
 8510TIP3   OH247020   1.873   3.057  17.263 -0.2028  0.4778 -0.2570
 8510TIP3    H147021   1.820   2.977  17.266  0.8835 -0.3017  3.4507
 8510TIP3    H247022   1.834   3.114  17.329  0.0934  2.3735 -1.6375
 8511TIP3   OH247023   4.451   1.419   2.961 -0.5822  0.2612  0.2348
 8511TIP3    H147024   4.448   1.509   2.929  0.1355  0.2047  0.0064
 8511TIP3    H247025   4.361   1.387   2.950 -0.5962  0.5963 -0.7198
 8512TIP3   OH247026   1.552   0.042  11.109  0.3806 -0.1882  0.9031
 8512TIP3    H147027   1.599  -0.024  11.160  0.2967 -0.8845  0.1114
 8512TIP3    H247028   1.475   0.062  11.162 -0.0526 -1.3882  0.7702
 8513TIP3   OH247029   4.689   4.845   6.910 -0.3607  0.3319  0.0746
 8513TIP3    H147030   4.753   4.869   6.978  0.4406  1.0432 -0.8986
 8513TIP3    H247031   4.653   4.928   6.880  0.4140  0.1543 -1.4174
 8514TIP3   OH247032   3.703   6.636   4.469  0.5527 -0.0471  0.1558
 8514TIP3    H147033   3.788   6.591   4.468  1.5219  1.6567 -1.2570
 8514TIP3    H247034   3.640   6.568   4.444  1.6148 -1.1593  0.4035
 8515TIP3   OH247035   5.518   0.534  17.043 -0.2880  0.0202 -0.3386
 8515TIP3    H147036   5.589   0.485  17.000 -2.1103  0.6351 -4.6176
 8515TIP3    H247037   5.543   0.626  17.031 -0.3453  0.2247  1.0168
 8516TIP3   OH247038   0.106   0.072   2.976  0.0061 -0.4733  0.3014
 8516TIP3    H147039   0.187   0.050   3.022  1.6503 -0.6023 -2.4276
 8516TIP3    H247040   0.108   0.168   2.968 -1.4942 -0.1978  2.4510
 8517TIP3   OH247041   5.669   1.615  11.161 -0.7054  0.4722  0.6652
 8517TIP3    H147042   5.600   1.550  11.168  0.8293 -1.1771  1.1779
 8517TIP3    H247043   5.683   1.646  11.251 -0.5346  0.5419  0.6160
 8518TIP3   OH247044   2.839   3.449  13.764  0.1719 -0.1668 -0.3362
 8518TIP3    H147045   2.840   3.544  13.779  0.1484 -0.3419  0.8765
 8518TIP3    H247046   2.808   3.440  13.674  0.8438  0.9985 -0.7109
 8519TIP3   OH247047   4.683   1.107  13.348 -0.4559  0.0207 -0.1165
 8519TIP3    H147048   4.624   1.031  13.354 -0.0603 -0.3200 -0.4446
 8519TIP3    H247049   4.637   1.168  13.290 -0.3580 -0.3672 -0.6072
 8520TIP3   OH247050   5.179   4.291  11.872  0.0451 -0.2435 -0.7170
 8520TIP3    H147051   5.182   4.267  11.780 -0.7947  0.9460 -1.0694
 8520TIP3    H247052   5.087   4.315  11.888 -0.5285 -3.1351  1.1387
 8521TIP3   OH247053   6.685   5.095  14.754 -0.0757  0.5252 -0.4457
 8521TIP3    H147054   6.620   5.162  14.774 -1.0083 -0.4853  0.0729
 8521TIP3    H247055   6.641   5.013  14.777  2.0338 -0.1128  1.7273
 8522TIP3   OH247056   5.166   2.219  12.126 -0.2011 -0.0938  0.0262
 8522TIP3    H147057   5.205   2.269  12.055  1.0657 -1.1487 -0.0611
 8522TIP3    H247058   5.232   2.154  12.150 -0.8442 -0.1991  1.7311
 8523TIP3   OH247059   1.817   3.841  11.795 -0.4068 -0.3820  0.0808
 8523TIP3    H147060   1.848   3.886  11.716 -4.2782  2.9329  0.1174
 8523TIP3    H247061   1.818   3.909  11.863 -2.0432 -1.7091  1.5062
 8524TIP3   OH247062   4.410   0.860  11.750  0.5596 -0.2583  0.0521
 8524TIP3    H147063   4.376   0.776  11.782 -0.6669 -0.4486 -1.6408
 8524TIP3    H247064   4.352   0.884  11.679  1.4170  1.6291 -0.0625
 8525TIP3   OH247065   6.532   4.536   2.755 -0.4820  0.0428 -0.2390
 8525TIP3    H147066   6.461   4.560   2.696 -0.9625 -0.5711  0.0759
 8525TIP3    H247067   6.510   4.579   2.837  0.4929  1.3864 -0.6435
 8526TIP3   OH247068   5.826   1.662   2.937 -0.3527 -0.3749  0.2804
 8526TIP3    H147069   5.909   1.667   2.985  0.5645 -4.2375 -0.5568
 8526TIP3    H247070   5.848   1.688   2.848  0.0082 -1.3669  0.0662
 8527TIP3   OH247071   2.190   1.197   5.265 -0.2023  0.3286  0.5098
 8527TIP3    H147072   2.232   1.276   5.234  3.3535 -1.4781  0.2712
 8527TIP3    H247073   2.133   1.227   5.337  1.1285  3.0357  0.5492
 8528TIP3   OH247074   3.730   2.429  14.066 -0.0326 -0.5456  0.7403
 8528TIP3    H147075   3.696   2.516  14.087  1.5365 -0.0767  1.4677
 8528TIP3    H247076   3.769   2.398  14.147  0.4407 -1.4601  0.1809
 8529TIP3   OH247077   4.390   4.849   1.376 -0.1107  0.2506 -0.2160
 8529TIP3    H147078   4.445   4.777   1.408 -0.1705  0.2923 -0.0168
 8529TIP3    H247079   4.439   4.928   1.397 -1.4373  0.4682  2.4772
 8530TIP3   OH247080   4.358   5.657  12.837 -1.0547 -0.1268 -0.0702
 8530TIP3    H147081   4.276   5.618  12.807  0.2002 -2.5035 -0.6269
 8530TIP3    H247082   4.379   5.722  12.771 -0.8327 -1.8664 -1.8057
 8531TIP3   OH247083   2.775   2.528   0.154 -0.0345  0.0181 -0.2951
 8531TIP3    H147084   2.787   2.557   0.063  0.6909 -0.6352 -0.4193
 8531TIP3    H247085   2.846   2.466   0.168 -0.2058  0.0392  0.6946
 8532TIP3   OH247086   4.671   3.712   4.647 -0.0242 -0.1781 -0.3509
 8532TIP3    H147087   4.689   3.680   4.736  1.4778  2.2056  0.2851
 8532TIP3    H247088   4.756   3.711   4.604 -0.5711 -0.3490 -1.4526
 8533TIP3   OH247089   0.651   2.593   0.533  0.1030 -0.2977 -0.1423
 8533TIP3    H147090   0.556   2.584   0.535 -0.2090  2.0613 -1.4540
 8533TIP3    H247091   0.670   2.631   0.447  1.8762  2.3300  1.2787
 8534TIP3   OH247092   3.896   1.045  14.742 -0.3753  0.2939 -0.5806
 8534TIP3    H147093   3.889   1.140  14.729  0.0958  0.3396 -0.5230
 8534TIP3    H247094   3.928   1.036  14.832 -0.1256  0.0875 -0.6902
 8535TIP3   OH247095   3.897   1.812   1.785 -0.0970 -0.7059 -0.0839
 8535TIP3    H147096   3.933   1.787   1.870 -1.9640  1.9339  1.6509
 8535TIP3    H247097   3.966   1.865   1.745  0.1917 -0.5925  0.5463
 8536TIP3   OH247098   4.058   2.229  11.712  0.0613  0.7282 -0.3418
 8536TIP3    H147099   4.064   2.261  11.802  0.4225  2.6417 -0.9968
 8536TIP3    H247100   3.989   2.163  11.714 -0.6981  1.5207  1.1339
 8537TIP3   OH247101   1.273   2.852   5.192 -0.3085 -0.4737  0.7755
 8537TIP3    H147102   1.317   2.924   5.146  0.4443 -0.0654  2.0671
 8537TIP3    H247103   1.329   2.776   5.175 -1.3348 -0.8856 -0.9464
 8538TIP3   OH247104   6.484   5.276   5.802  0.3020  0.1185 -0.0807
 8538TIP3    H147105   6.473   5.184   5.826 -1.8260  0.4937  0.5794
 8538TIP3    H247106   6.573   5.298   5.831  1.2054 -1.9367 -1.0807
 8539TIP3   OH247107   2.943   6.309   5.227 -0.3670 -0.1187 -0.2871
 8539TIP3    H147108   2.909   6.253   5.297  2.1745  0.4539  1.5504
 8539TIP3    H247109   2.892   6.390   5.234  0.5776  0.3695  1.7623
 8540TIP3   OH247110   5.983   0.866   4.505 -0.7663 -0.5944  0.2298
 8540TIP3    H147111   5.942   0.952   4.519  0.4024  0.1923 -0.9556
 8540TIP3    H247112   5.935   0.807   4.563 -3.3730  0.3114 -0.8213
 8541TIP3   OH247113   0.328   4.570   1.395  0.7048  0.2906 -0.0547
 8541TIP3    H147114   0.238   4.586   1.424  0.1146 -1.2968 -0.8362
 8541TIP3    H247115   0.328   4.477   1.371  3.0790 -0.2753  1.7778
 8542TIP3   OH247116   0.424   3.423  13.087  0.0789 -0.0853 -0.4077
 8542TIP3    H147117   0.375   3.382  13.015 -0.0223 -0.2298 -0.2594
 8542TIP3    H247118   0.462   3.349  13.135  0.2632  0.0171 -0.3956
 8543TIP3   OH247119   0.828   1.827  10.865  0.0485  0.0314 -0.5285
 8543TIP3    H147120   0.859   1.916  10.878  1.4711 -0.6248  0.9388
 8543TIP3    H247121   0.742   1.837  10.823 -0.4103  2.1173  0.7682
 8544TIP3   OH247122   5.577   2.849  11.550 -0.0886 -0.3331  0.1306
 8544TIP3    H147123   5.539   2.806  11.626  0.9661 -1.3494  0.1093
 8544TIP3    H247124   5.607   2.778  11.494 -1.3341  0.3902 -1.5211
 8545TIP3   OH247125   3.930   1.329  13.427 -0.2926 -0.4229  0.2037
 8545TIP3    H147126   3.858   1.290  13.378 -0.7924  1.2858 -0.4943
 8545TIP3    H247127   3.915   1.423  13.422  1.0595 -0.0884  1.5059
 8546TIP3   OH247128   3.267   1.540  12.471 -0.5179 -0.4642  0.0927
 8546TIP3    H147129   3.356   1.572  12.455 -0.5551 -1.2269 -1.9205
 8546TIP3    H247130   3.224   1.612  12.518  0.4499  0.9904 -1.1286
 8547TIP3   OH247131   6.175   6.134   2.103 -0.0259  0.3911 -0.4156
 8547TIP3    H147132   6.171   6.090   2.018 -0.7300  2.6359 -1.6410
 8547TIP3    H247133   6.229   6.078   2.157 -0.6208 -1.7724 -1.9404
 8548TIP3   OH247134   4.391   0.848   0.918 -0.3079  0.1395  0.0088
 8548TIP3    H147135   4.397   0.786   0.845  1.5477  0.2901 -0.0293
 8548TIP3    H247136   4.409   0.795   0.996  2.0269  0.6593 -0.0868
 8549TIP3   OH247137   4.576   0.192   4.292 -0.4808 -0.5692 -0.6751
 8549TIP3    H147138   4.670   0.179   4.303 -0.1216  1.1493 -1.4764
 8549TIP3    H247139   4.556   0.270   4.343 -1.1100  0.1527 -1.9834
 8550TIP3   OH247140   5.718   5.821  12.410  0.6623  0.5905 -0.2084
 8550TIP3    H147141   5.779   5.867  12.467  2.2539 -1.0140 -0.5300
 8550TIP3    H247142   5.715   5.732  12.445 -2.1057  0.7698  0.2273
 8551TIP3   OH247143   1.207   5.034  11.196 -0.6446  0.2686 -0.0409
 8551TIP3    H147144   1.165   5.054  11.280  0.3488  1.8593  0.1117
 8551TIP3    H247145   1.135   5.009  11.139 -1.4856  0.4027  0.9307
 8552TIP3   OH247146   6.681   6.083   2.054  0.1941 -0.3904  0.3371
 8552TIP3    H147147   6.670   6.135   2.133 -1.0813 -0.2747  0.1100
 8552TIP3    H247148   6.753   6.125   2.007 -0.6399  1.0391  0.2803
 8553TIP3   OH247149   1.708   3.329  14.308  0.2420 -0.0274  0.0702
 8553TIP3    H147150   1.622   3.286  14.313  0.8058 -1.2965 -0.7100
 8553TIP3    H247151   1.689   3.414  14.267 -1.0037  0.9211  2.3718
 8554TIP3   OH247152   0.877   0.813  14.379  0.6304 -0.5459  0.6190
 8554TIP3    H147153   0.847   0.880  14.318  0.3861  0.3981  1.7462
 8554TIP3    H247154   0.926   0.861  14.446 -0.3272 -1.3447  1.9505
 8555TIP3   OH247155   5.496   0.211   3.792 -0.0792 -0.3072  0.0736
 8555TIP3    H147156   5.442   0.284   3.762  0.3937  0.3811  0.8676
 8555TIP3    H247157   5.433   0.150   3.831 -0.3092  0.4090  0.8384
 8556TIP3   OH247158   3.900   1.270   5.516 -0.2405  0.0921  0.2725
 8556TIP3    H147159   3.928   1.309   5.433 -1.8791  1.0972  0.1407
 8556TIP3    H247160   3.850   1.339   5.560  0.7683 -0.3316  2.2327
 8557TIP3   OH247161   6.540   3.630   3.973  0.0870  0.2759  0.1771
 8557TIP3    H147162   6.457   3.637   4.022  0.1993  2.3173  0.1498
 8557TIP3    H247163   6.543   3.538   3.946 -1.4010 -0.2318  1.5158
 8558TIP3   OH247164   2.817   3.207   3.180  0.4497 -0.2586 -0.2150
 8558TIP3    H147165   2.771   3.210   3.264  0.4858  0.2967 -0.2071
 8558TIP3    H247166   2.758   3.252   3.119 -0.9485 -3.1907 -1.2105
 8559TIP3   OH247167   6.316   2.706   2.285  0.0101  0.4734 -1.5530
 8559TIP3    H147168   6.230   2.744   2.305  0.8080  1.8009 -0.4131
 8559TIP3    H247169   6.339   2.658   2.365 -0.0442 -0.6427 -2.1921
 8560TIP3   OH247170   2.644   1.464   2.257 -0.1727 -0.5433 -0.6392
 8560TIP3    H147171   2.616   1.383   2.215 -0.5556  0.7566 -3.1168
 8560TIP3    H247172   2.575   1.526   2.237 -0.5469  0.1401  2.3478
 8561TIP3   OH247173   2.259   4.056   3.669  0.0404  0.3510  0.0198
 8561TIP3    H147174   2.228   3.977   3.624  0.6901  0.5002 -0.7063
 8561TIP3    H247175   2.211   4.127   3.627  2.7311  0.8293 -2.6009
 8562TIP3   OH247176   4.570   6.821  12.248  0.4811 -0.1814  0.1729
 8562TIP3    H147177   4.565   6.891  12.183  0.8924 -1.4013 -1.2290
 8562TIP3    H247178   4.481   6.784  12.250  0.6290 -0.5812 -0.2389
 8563TIP3   OH247179   5.369   3.470   4.920 -0.3120  0.6702 -0.3362
 8563TIP3    H147180   5.397   3.466   5.011 -2.4369 -1.5469  0.3362
 8563TIP3    H247181   5.440   3.430   4.870 -0.4490 -1.0502  0.7812
 8564TIP3   OH247182   4.746   3.534  15.964 -0.4092 -0.3097  0.0057
 8564TIP3    H147183   4.673   3.472  15.957 -0.9447  0.4150 -1.3747
 8564TIP3    H247184   4.807   3.494  16.024 -2.4872 -0.4276  2.1702
 8565TIP3   OH247185   6.785   0.618   3.890 -0.0375 -1.2336  0.3634
 8565TIP3    H147186   6.748   0.691   3.940  1.3339  0.2240 -0.6318
 8565TIP3    H247187   6.714   0.590   3.833 -0.1564  0.3613 -0.3156
 8566TIP3   OH247188   3.489   2.304  13.846  0.0207  0.1088 -0.3110
 8566TIP3    H147189   3.417   2.365  13.826 -0.8776 -1.0738 -0.8362
 8566TIP3    H247190   3.444   2.224  13.873  1.1114 -0.9814 -1.5996
 8567TIP3   OH247191   6.078   0.634   5.128 -0.2790  0.7394  0.2176
 8567TIP3    H147192   6.151   0.572   5.118 -1.1483 -0.2563 -0.1945
 8567TIP3    H247193   6.046   0.620   5.217  0.0979  1.2542  0.4365
 8568TIP3   OH247194   0.804   6.216   3.748 -0.2209 -0.3128 -0.4128
 8568TIP3    H147195   0.823   6.308   3.729 -0.0714 -0.3326 -0.3537
 8568TIP3    H247196   0.829   6.205   3.839 -2.3665  0.1853  0.2957
 8569TIP3   OH247197   6.433   1.725   3.453 -0.7707 -0.2002  0.0787
 8569TIP3    H147198   6.511   1.684   3.490  0.1156  1.9134  0.6654
 8569TIP3    H247199   6.450   1.727   3.359  0.9082  2.1393  0.3665
 8570TIP3   OH247200   2.007   4.809  17.317 -0.2776 -0.0711  0.4066
 8570TIP3    H147201   2.086   4.836  17.363 -0.4174 -2.0626  1.9479
 8570TIP3    H247202   1.944   4.790  17.386 -1.5154 -0.2935 -0.7333
 8571TIP3   OH247203   3.155   1.462   2.363  0.9955 -0.5818 -0.0841
 8571TIP3    H147204   3.175   1.475   2.271 -0.7777 -0.0191 -0.4262
 8571TIP3    H247205   3.059   1.459   2.367  1.0253 -0.3851  1.7617
 8572TIP3   OH247206   1.200   4.677  15.965 -0.1340 -0.0380  0.1831
 8572TIP3    H147207   1.208   4.617  15.891  0.6634  1.0760 -0.6655
 8572TIP3    H247208   1.285   4.673  16.009  1.0320  2.5670 -1.5854
 8573TIP3   OH247209   2.542   2.576   5.789 -0.0330 -0.6056 -0.5437
 8573TIP3    H147210   2.486   2.509   5.748  0.2341 -1.3446  0.2637
 8573TIP3    H247211   2.515   2.576   5.881  0.5871 -0.2340 -0.3572
 8574TIP3   OH247212   2.285   1.996  15.338  0.5346 -0.4453 -0.0261
 8574TIP3    H147213   2.347   1.992  15.411  0.1236 -3.4813  0.2809
 8574TIP3    H247214   2.337   1.974  15.261  0.5180  0.6104 -0.3630
 8575TIP3   OH247215   1.416   2.891   0.408 -0.4600  0.0128 -0.1765
 8575TIP3    H147216   1.354   2.842   0.462 -0.3177 -0.8497 -0.7772
 8575TIP3    H247217   1.360   2.943   0.350 -0.6183  1.2513  1.0258
 8576TIP3   OH247218   1.719   1.859  12.117  0.0322 -0.3907 -0.1626
 8576TIP3    H147219   1.714   1.951  12.145  1.3796 -0.1419 -0.7036
 8576TIP3    H247220   1.676   1.811  12.188  0.2297  0.5594  0.6238
 8577TIP3   OH247221   5.117   6.374  12.627 -0.8333 -0.2769 -0.3062
 8577TIP3    H147222   5.133   6.460  12.587  0.0959 -0.1667  0.2634
 8577TIP3    H247223   5.081   6.321  12.556  1.3592 -0.2818 -1.5187
 8578TIP3   OH247224   2.876   1.674   3.874 -0.0212  1.1403 -0.2133
 8578TIP3    H147225   2.955   1.725   3.854  0.4394  0.1727 -0.9058
 8578TIP3    H247226   2.905   1.583   3.874 -1.0015  0.8125  0.2300
 8579TIP3   OH247227   4.308   0.328  17.121 -0.2070  0.3777  0.4987
 8579TIP3    H147228   4.396   0.323  17.156  0.1519  0.9116 -0.2978
 8579TIP3    H247229   4.266   0.246  17.148  0.9384 -0.4661 -0.2094
 8580TIP3   OH247230   6.283   6.571  12.460 -0.3395 -0.4003 -0.4638
 8580TIP3    H147231   6.294   6.581  12.554  1.3605 -0.4804 -0.6215
 8580TIP3    H247232   6.213   6.507  12.450  0.5359 -1.5980  0.7818
 8581TIP3   OH247233   1.745   3.200  11.205  0.0404  0.2236  0.6016
 8581TIP3    H147234   1.697   3.247  11.136  1.5660 -0.6300 -1.1233
 8581TIP3    H247235   1.753   3.111  11.171 -0.4624 -0.6220  2.5996
 8582TIP3   OH247236   5.370   2.797   6.338  0.2489 -0.5554 -0.0952
 8582TIP3    H147237   5.460   2.800   6.370  0.7992  1.4224 -1.6704
 8582TIP3    H247238   5.377   2.809   6.243 -1.6547 -0.9352 -0.3378
 8583TIP3   OH247239   4.124   3.755   3.481  0.2221 -0.1781 -0.1384
 8583TIP3    H147240   4.159   3.700   3.410  1.0175  1.6801 -1.2731
 8583TIP3    H247241   4.029   3.752   3.469  0.3315 -0.1323 -1.1248
 8584TIP3   OH247242   0.809   5.535   1.599 -0.3112 -0.6093  0.1681
 8584TIP3    H147243   0.767   5.609   1.643  1.7277 -0.5034  2.0958
 8584TIP3    H247244   0.795   5.460   1.657  0.8658 -0.8704  0.1505
 8585TIP3   OH247245   4.962   0.052  12.478  0.5708 -0.3495  0.2769
 8585TIP3    H147246   4.919  -0.025  12.516  1.4353 -1.0694 -0.1788
 8585TIP3    H247247   5.054   0.043  12.502  0.7536  0.3207 -0.1472
 8586TIP3   OH247248   5.298   4.763   0.009  0.1898  0.4511 -0.1140
 8586TIP3    H147249   5.217   4.732  -0.031  0.4920  0.6320 -0.8752
 8586TIP3    H247250   5.307   4.853  -0.021  0.6310  0.4604  0.0382
 8587TIP3   OH247251   2.119   0.794   5.442  0.1688  0.2095  0.0297
 8587TIP3    H147252   2.024   0.787   5.435  0.1515  0.9349 -0.4696
 8587TIP3    H247253   2.136   0.885   5.466  0.8379  0.7684 -2.2520
 8588TIP3   OH247254   4.928   5.452   0.265 -0.1148  0.3334  0.2151
 8588TIP3    H147255   4.973   5.467   0.182  0.4389 -0.9403  0.2722
 8588TIP3    H247256   4.836   5.473   0.247 -0.3448 -1.6916 -1.2521
 8589TIP3   OH247257   5.269   3.726  12.773 -0.6222 -0.4279 -0.3104
 8589TIP3    H147258   5.305   3.650  12.819 -2.1046 -1.0672 -0.1376
 8589TIP3    H247259   5.176   3.725  12.795 -0.6706  1.4836 -0.2678
 8590TIP3   OH247260   4.327   3.829  14.139  0.3305 -0.4372  0.0533
 8590TIP3    H147261   4.423   3.839  14.135  0.2909 -0.2624 -0.5647
 8590TIP3    H247262   4.301   3.883  14.213  0.9263 -2.2177  1.6413
 8591TIP3   OH247263   2.424   6.564   5.198 -0.2402  0.0597 -0.2605
 8591TIP3    H147264   2.495   6.540   5.138  0.1844  0.5491  0.0383
 8591TIP3    H247265   2.378   6.635   5.153 -0.0281  0.3082 -0.0883
 8592TIP3   OH247266   3.299   3.715   5.421 -0.1656  0.2009 -0.2556
 8592TIP3    H147267   3.274   3.802   5.390 -0.4565 -0.2132 -1.2523
 8592TIP3    H247268   3.358   3.681   5.353 -0.5753 -0.6235 -0.2180
 8593TIP3   OH247269   6.596   4.928  14.475  0.0513 -0.3543  0.3229
 8593TIP3    H147270   6.684   4.956  14.448 -0.3945 -0.7669 -1.7526
 8593TIP3    H247271   6.543   5.007  14.470 -0.0650 -0.4613 -0.2273
 8594TIP3   OH247272   5.974   1.484  15.370  0.1218  0.5305 -0.3341
 8594TIP3    H147273   6.012   1.562  15.329  2.1324 -0.1213  0.1510
 8594TIP3    H247274   6.037   1.460  15.438 -1.5022 -0.3199  0.9428
 8595TIP3   OH247275   6.079   6.458  15.249  0.0450  0.5826  0.0426
 8595TIP3    H147276   6.009   6.396  15.228  0.6669 -0.2841  0.4860
 8595TIP3    H247277   6.127   6.417  15.321  0.6706  1.4311  0.1275
 8596TIP3   OH247278   0.122   0.193  14.193 -0.1830  0.2787  0.1113
 8596TIP3    H147279   0.144   0.156  14.107 -0.3134  1.3064 -0.3867
 8596TIP3    H247280   0.096   0.283  14.174  0.0488  0.6079  1.2662
 8597TIP3   OH247281   2.101   0.867  15.988  0.9150 -0.3955 -0.6214
 8597TIP3    H147282   2.153   0.937  16.026  1.1272  0.1066 -1.7893
 8597TIP3    H247283   2.141   0.850  15.902  0.0833 -1.0478 -0.9008
 8598TIP3   OH247284   4.378   1.215   3.738  0.3033  0.2017  0.3567
 8598TIP3    H147285   4.297   1.260   3.714  0.6641  0.0841 -1.1766
 8598TIP3    H247286   4.349   1.135   3.781 -0.3646  0.7054  0.8793
 8599TIP3   OH247287   6.366   1.609  12.171 -0.1146  0.1645  0.3567
 8599TIP3    H147288   6.450   1.631  12.130 -0.3486  0.4517  0.0270
 8599TIP3    H247289   6.372   1.644  12.260 -0.7199  2.1829 -0.3384
 8600TIP3   OH247290   2.181   3.187   1.197  0.0614  0.5643  0.5314
 8600TIP3    H147291   2.234   3.265   1.181  2.2258 -1.1387 -1.1993
 8600TIP3    H247292   2.235   3.133   1.255 -0.4183 -0.5830 -0.0716
 8601TIP3   OH247293   2.921   2.317   1.383 -0.1273  0.0038 -0.5282
 8601TIP3    H147294   2.870   2.252   1.431  2.2637 -1.3356  0.3646
 8601TIP3    H247295   2.948   2.272   1.303  0.5138  0.3018 -0.4861
 8602TIP3   OH247296   3.452   1.461   3.299  0.0232  0.4084  0.0751
 8602TIP3    H147297   3.432   1.397   3.368  1.7313 -0.0255  0.2155
 8602TIP3    H247298   3.368   1.476   3.256 -0.8962 -0.0841  1.5898
 8603TIP3   OH247299   6.347   1.730   3.914 -0.2996 -0.2487  0.2453
 8603TIP3    H147300   6.427   1.759   3.871 -0.8907  0.8963 -0.1125
 8603TIP3    H247301   6.375   1.708   4.003  0.3460  0.5070  0.2416
 8604TIP3   OH247302   6.226   6.169  11.336  0.1786  0.0055 -0.0809
 8604TIP3    H147303   6.286   6.158  11.262 -2.2905 -1.4467 -2.0423
 8604TIP3    H247304   6.184   6.254  11.321 -0.3430 -0.3012 -0.3976
 8605TIP3   OH247305   1.481   2.758  12.362 -0.3816 -0.4473 -0.2935
 8605TIP3    H147306   1.481   2.737  12.268 -0.5431 -2.0770  0.0467
 8605TIP3    H247307   1.391   2.786  12.380  0.0278  1.4232 -0.9101
 8606TIP3   OH247308   0.309   4.943  12.701  0.1272 -0.0961 -0.6694
 8606TIP3    H147309   0.384   4.933  12.643 -0.5111  0.3191 -1.5845
 8606TIP3    H247310   0.271   5.028  12.678  0.2692  0.4063  0.8484
 8607TIP3   OH247311   1.099   5.925   5.024  0.6907 -0.8791 -0.2112
 8607TIP3    H147312   1.008   5.935   5.049  0.3243 -0.2103 -1.7196
 8607TIP3    H247313   1.119   5.833   5.042 -0.2057 -0.9670  0.3634
 8608TIP3   OH247314   4.055   4.768  12.810  0.6608 -0.6712  0.8696
 8608TIP3    H147315   4.121   4.718  12.761  1.3194  2.6841 -2.0888
 8608TIP3    H247316   3.972   4.747  12.767  1.0878  1.3986 -1.1612
 8609TIP3   OH247317   3.490   6.085  10.876 -0.0849 -0.3898  0.4352
 8609TIP3    H147318   3.427   6.096  10.804 -1.6189  0.7209  1.8664
 8609TIP3    H247319   3.504   6.173  10.909  0.3253 -0.9120  1.7048
 8610TIP3   OH247320   3.866   4.210   3.025 -0.2030 -0.6871  0.6692
 8610TIP3    H147321   3.776   4.191   3.052 -0.4758  0.5426  0.6645
 8610TIP3    H247322   3.913   4.224   3.107 -0.6068  1.1715  0.6242
 8611TIP3   OH247323   5.067   2.022  15.309 -0.3002 -0.2876  0.0600
 8611TIP3    H147324   5.060   2.087  15.379  1.0140  0.9780 -0.9309
 8611TIP3    H247325   5.115   1.949  15.348 -0.7508 -0.1728  0.8494
 8612TIP3   OH247326   3.736   4.910   4.397 -0.3127  0.2135  0.1408
 8612TIP3    H147327   3.722   4.972   4.469  0.4902  0.0592  0.4498
 8612TIP3    H247328   3.820   4.936   4.359 -0.9662  0.6024 -1.0763
 8613TIP3   OH247329   2.748   4.897   4.549 -0.2294 -0.4580 -0.4925
 8613TIP3    H147330   2.815   4.834   4.576 -0.2880 -0.4648 -0.3579
 8613TIP3    H247331   2.681   4.891   4.618  0.0634  0.2086 -0.1387
 8614TIP3   OH247332   2.999   0.052  13.291 -0.0372  0.0075 -0.1027
 8614TIP3    H147333   3.048   0.134  13.287 -2.4015  1.5677  0.6908
 8614TIP3    H247334   3.035  -0.002  13.221  1.8422  1.5599 -0.3996
 8615TIP3   OH247335   4.757   1.662  11.971 -0.1043 -0.0362 -0.1807
 8615TIP3    H147336   4.759   1.752  11.940  0.4043  0.0337  0.0542
 8615TIP3    H247337   4.708   1.665  12.053  0.7231  0.1801  0.3133
 8616TIP3   OH247338   5.284   2.403   0.241  0.1404  0.2358  0.2405
 8616TIP3    H147339   5.312   2.331   0.298  0.5237  0.2166  0.0332
 8616TIP3    H247340   5.191   2.414   0.260 -0.3228 -1.3947 -0.8950
 8617TIP3   OH247341   0.464   6.637   5.782 -0.2379  0.6376  0.2020
 8617TIP3    H147342   0.433   6.689   5.857  2.1209  0.6908  1.2345
 8617TIP3    H247343   0.553   6.613   5.805 -0.7257 -2.6797 -0.9208
 8618TIP3   OH247344   6.707   2.853  10.838 -0.3735  0.2417  0.1327
 8618TIP3    H147345   6.687   2.940  10.874 -1.7649 -0.4429  1.1053
 8618TIP3    H247346   6.636   2.836  10.776  0.2697  0.0603 -0.5759
 8619TIP3   OH247347   1.209   3.190  16.863 -0.5909  0.1399  0.0910
 8619TIP3    H147348   1.131   3.144  16.891 -0.8770  1.0666  0.8855
 8619TIP3    H247349   1.212   3.177  16.768 -2.6259  1.4164 -0.2152
 8620TIP3   OH247350   0.541   5.655   5.729 -0.1439  0.0404 -0.0161
 8620TIP3    H147351   0.507   5.677   5.816  1.0962  0.4825  0.3815
 8620TIP3    H247352   0.625   5.701   5.724 -0.5950  0.7588 -1.8013
 8621TIP3   OH247353   5.904   1.692  14.817 -0.2027  0.1085 -0.1481
 8621TIP3    H147354   5.914   1.612  14.869 -0.7615 -1.1197 -1.8289
 8621TIP3    H247355   5.992   1.708  14.781 -0.1240  0.1556  0.0654
 8622TIP3   OH247356   6.174   6.813   2.120 -0.2066 -0.4226 -0.3570
 8622TIP3    H147357   6.189   6.790   2.029 -1.6113 -2.2966 -0.1787
 8622TIP3    H247358   6.124   6.739   2.156  0.9582 -0.1210  2.1331
 8623TIP3   OH247359   1.257   0.811   0.549 -0.2855 -0.2084  0.3146
 8623TIP3    H147360   1.235   0.846   0.463  1.0619  0.7019  0.3121
 8623TIP3    H247361   1.188   0.843   0.607  0.3106  1.6002  0.0988
 8624TIP3   OH247362   2.294   6.790   4.607  0.3921 -0.0020 -0.0994
 8624TIP3    H147363   2.275   6.841   4.686  1.8676 -0.0761  0.3386
 8624TIP3    H247364   2.242   6.710   4.617 -1.7318  1.2162 -0.6587
 8625TIP3   OH247365   5.604   2.154   5.518 -0.7279  0.7085  0.1061
 8625TIP3    H147366   5.679   2.118   5.470 -1.7226 -1.4748  0.0512
 8625TIP3    H247367   5.639   2.173   5.605  0.2437  1.2325 -0.3818
 8626TIP3   OH247368   1.072   5.525  16.933 -0.0081  0.4906 -0.3479
 8626TIP3    H147369   1.076   5.440  16.977 -2.0329  0.9437  0.8719
 8626TIP3    H247370   1.125   5.583  16.988 -0.0433  0.3891 -0.2072
 8627TIP3   OH247371   0.414   6.320   1.029  0.1472 -0.6014  0.1660
 8627TIP3    H147372   0.336   6.371   1.008  1.6784  2.7862  1.8493
 8627TIP3    H247373   0.391   6.273   1.109  0.1818  1.7831  1.7139
 8628TIP3   OH247374   1.281   3.746   5.088  0.0071  0.1332 -0.3089
 8628TIP3    H147375   1.345   3.811   5.058 -1.3643  0.7452 -2.1315
 8628TIP3    H247376   1.327   3.662   5.081  1.1917  0.7160  0.2346
 8629TIP3   OH247377   3.740   0.102   0.776  0.0639 -0.2033  0.4226
 8629TIP3    H147378   3.709   0.114   0.687 -0.2923  1.2054  0.7095
 8629TIP3    H247379   3.722   0.185   0.820  2.1274 -0.1128  1.2494
 8630TIP3   OH247380   6.769   5.652   0.169  0.0002 -0.6283 -0.4330
 8630TIP3    H147381   6.864   5.642   0.183 -0.0182 -2.6026 -1.3388
 8630TIP3    H247382   6.740   5.705   0.243  2.0399  1.5199 -1.0566
 8631TIP3   OH247383   5.239   0.017   5.110  0.3702 -0.1998  0.0453
 8631TIP3    H147384   5.333  -0.001   5.109  0.3791 -0.2837 -1.9407
 8631TIP3    H247385   5.220   0.042   5.201  2.8909  2.8223 -0.1065
 8632TIP3   OH247386   6.680   2.444  16.557  0.2578 -0.3993 -0.1678
 8632TIP3    H147387   6.765   2.487  16.545  0.1383 -0.6454 -2.1890
 8632TIP3    H247388   6.618   2.504  16.516 -0.2945 -1.1220 -0.3898
 8633TIP3   OH247389   4.748   1.348  11.903 -0.3032  0.0090 -0.1083
 8633TIP3    H147390   4.703   1.265  11.888 -1.8721  0.5078  1.5196
 8633TIP3    H247391   4.698   1.412  11.853  1.0139  0.0079 -1.5181
 8634TIP3   OH247392   4.349   0.658  16.113  0.2352  0.3727 -0.2272
 8634TIP3    H147393   4.375   0.719  16.182  1.4940 -0.6347  0.2149
 8634TIP3    H247394   4.314   0.582  16.160  0.2809  0.0389 -0.7261
 8635TIP3   OH247395   4.824   4.628   2.309  0.2311  0.2079 -1.0322
 8635TIP3    H147396   4.825   4.589   2.396 -1.1629  1.4667 -0.4065
 8635TIP3    H247397   4.841   4.721   2.323 -0.0730  0.4441 -2.0883
 8636TIP3   OH247398   1.143   5.577   0.066  0.8708 -0.5129 -0.4018
 8636TIP3    H147399   1.219   5.545   0.116  0.1882 -1.6239 -0.0505
 8636TIP3    H247400   1.161   5.670   0.054  1.4483 -0.3750  1.2414
 8637TIP3   OH247401   3.014   3.590   5.269  0.8049  0.2236  0.2067
 8637TIP3    H147402   3.013   3.531   5.194  0.0364  0.1511  0.2582
 8637TIP3    H247403   3.015   3.677   5.231 -0.8115  0.2117  0.0679
 8638TIP3   OH247404   6.204   4.832  16.035 -0.5521  0.0852  0.0818
 8638TIP3    H147405   6.199   4.899  16.102 -0.2475 -0.4126  0.6161
 8638TIP3    H247406   6.296   4.804  16.035 -1.0579 -1.7924  1.3586
 8639TIP3   OH247407   3.164   0.187  11.570 -0.0687 -0.0567 -0.0792
 8639TIP3    H147408   3.253   0.217  11.586 -0.8184  2.7497 -0.5074
 8639TIP3    H247409   3.125   0.178  11.657  1.2723 -4.0728  0.3164
 8640TIP3   OH247410   3.126   0.824   4.827 -0.0842  0.0927 -0.1272
 8640TIP3    H147411   3.093   0.828   4.916  1.6504 -0.5445  0.5892
 8640TIP3    H247412   3.089   0.901   4.784  0.3674  1.3352  1.6047
 8641TIP3   OH247413   1.040   4.109  11.539  0.3403  0.2053 -0.4763
 8641TIP3    H147414   1.056   4.037  11.478 -0.2592 -1.3204  1.0871
 8641TIP3    H247415   0.987   4.172  11.489 -1.1571 -1.5444 -1.1956
 8642TIP3   OH247416   0.005   4.473   2.412 -0.3868 -0.0313  0.4022
 8642TIP3    H147417   0.057   4.396   2.434 -1.5103 -0.8578  0.2378
 8642TIP3    H247418  -0.018   4.512   2.496 -0.6383 -0.4346  0.5196
 8643TIP3   OH247419   3.324   4.903  16.850 -0.1509  0.2355 -0.4078
 8643TIP3    H147420   3.327   4.844  16.775 -2.2757 -1.3774  0.6666
 8643TIP3    H247421   3.231   4.908  16.874  0.1583  2.7186  0.5964
 8644TIP3   OH247422   6.385   5.482  16.696  0.0460 -0.1585  0.3189
 8644TIP3    H147423   6.293   5.510  16.692 -0.1187 -0.6370  0.6831
 8644TIP3    H247424   6.405   5.454  16.606 -0.2199 -0.2159  0.2748
 8645TIP3   OH247425   5.454   5.192   3.225  0.2376  0.3970  0.5236
 8645TIP3    H147426   5.477   5.104   3.257 -1.5044  0.0670  0.9771
 8645TIP3    H247427   5.531   5.245   3.245  1.5262 -1.1107 -0.2030
 8646TIP3   OH247428   1.308   3.362  11.227  0.0173  0.0138  0.2167
 8646TIP3    H147429   1.382   3.376  11.285 -0.6793  2.3445  0.6649
 8646TIP3    H247430   1.264   3.447  11.223 -1.9665 -0.9761 -0.9556
 8647TIP3   OH247431   2.905   2.506  12.604  0.6651  0.4351  0.0668
 8647TIP3    H147432   2.993   2.471  12.596  1.3683  2.3611 -1.4616
 8647TIP3    H247433   2.917   2.600  12.619 -1.1342  0.5808  0.9658
 8648TIP3   OH247434   6.059   3.599  11.690  0.1932 -0.4250 -0.3032
 8648TIP3    H147435   6.045   3.689  11.660 -0.5674 -0.4262  0.0268
 8648TIP3    H247436   6.087   3.552  11.612  2.2175  0.4292 -0.1600
 8649TIP3   OH247437   5.673   6.417   4.444 -0.2378 -0.2878 -1.0109
 8649TIP3    H147438   5.615   6.436   4.371 -1.9131  0.0647  0.3325
 8649TIP3    H247439   5.669   6.322   4.453 -1.4408 -0.1965 -0.3300
 8650TIP3   OH247440   3.657   6.126  15.096  0.9098  0.1492  0.1035
 8650TIP3    H147441   3.574   6.171  15.113  0.5299 -0.1157 -1.0142
 8650TIP3    H247442   3.720   6.168  15.155 -0.0398  0.2636  1.0567
 8651TIP3   OH247443   6.576   5.613  13.163  0.0052 -0.5940  0.1236
 8651TIP3    H147444   6.640   5.551  13.198  0.7694 -0.3547 -0.8020
 8651TIP3    H247445   6.628   5.679  13.118 -0.8036  0.6490  0.9429
 8652TIP3   OH247446   3.372   3.039  13.221  0.0363 -0.1987  0.0891
 8652TIP3    H147447   3.453   3.011  13.263 -0.1348 -1.4690 -0.4001
 8652TIP3    H247448   3.309   2.970  13.240 -0.7349  0.4046 -0.1790
 8653TIP3   OH247449   3.885   3.275  14.489 -0.3166 -0.0210 -0.3332
 8653TIP3    H147450   3.905   3.185  14.515  2.2678  0.8210  0.9509
 8653TIP3    H247451   3.920   3.283  14.400 -1.9128 -0.6353 -1.0648
 8654TIP3   OH247452   1.341   0.176   5.231 -0.1726  1.1994 -0.0876
 8654TIP3    H147453   1.353   0.268   5.205  1.6517  0.9353 -0.3006
 8654TIP3    H247454   1.296   0.181   5.315 -1.6241  2.2185 -0.8806
 8655TIP3   OH247455   1.500   6.285   1.069 -0.5514 -0.2804  0.3672
 8655TIP3    H147456   1.488   6.270   0.975 -0.0701 -0.4156  0.3260
 8655TIP3    H247457   1.594   6.299   1.079 -0.6180 -0.1379  0.8128
 8656TIP3   OH247458   2.738   3.999   3.624 -0.1815 -0.2961 -0.7642
 8656TIP3    H147459   2.695   3.929   3.574 -0.2339 -1.7880  1.2757
 8656TIP3    H247460   2.734   3.970   3.715  0.0344  2.2663  0.1398
 8657TIP3   OH247461   6.540   6.760  16.913  0.0692  0.4045  0.1360
 8657TIP3    H147462   6.613   6.769  16.974  0.1298  1.8545 -0.1151
 8657TIP3    H247463   6.490   6.685  16.945  0.7668  0.4104  1.2631
 8658TIP3   OH247464   3.435   3.748   3.380  0.3279  0.7521  0.0240
 8658TIP3    H147465   3.477   3.785   3.303  0.6673  1.6022  0.6104
 8658TIP3    H247466   3.436   3.653   3.364 -0.8816  0.9692 -1.6689
 8659TIP3   OH247467   3.301   0.595  14.380  0.5004  0.5858  0.3411
 8659TIP3    H147468   3.343   0.592  14.294  0.3095  1.5244  0.2089
 8659TIP3    H247469   3.218   0.640  14.366 -0.0877 -0.3075  0.8048
 8660TIP3   OH247470   2.567   2.382   1.831  0.0545  0.4988 -0.1469
 8660TIP3    H147471   2.627   2.327   1.881 -1.1536 -0.8243 -0.0654
 8660TIP3    H247472   2.567   2.466   1.877  1.6890  0.4874 -0.0730
 8661TIP3   OH247473   5.352   0.691  12.964 -0.9102  0.1794 -0.1341
 8661TIP3    H147474   5.357   0.732  12.877  3.0254  0.0456 -0.1574
 8661TIP3    H247475   5.353   0.764  13.025 -0.2240  0.2489 -0.2188
 8662TIP3   OH247476   6.493   4.104   2.848 -0.4723 -0.0888  0.0850
 8662TIP3    H147477   6.491   4.015   2.811  1.0425  0.2517 -0.9328
 8662TIP3    H247478   6.516   4.091   2.940 -1.5510 -0.8010  0.2787
 8663TIP3   OH247479   3.620   0.590  17.281 -0.6776  0.3394 -0.2047
 8663TIP3    H147480   3.625   0.616  17.373 -1.4807  0.6600 -0.2413
 8663TIP3    H247481   3.527   0.576  17.265 -0.4693 -0.5197 -0.7590
 8664TIP3   OH247482   3.707   3.031   4.132 -0.4456 -0.0609  0.4618
 8664TIP3    H147483   3.645   3.012   4.202 -0.5159 -1.9714 -0.0678
 8664TIP3    H247484   3.781   2.973   4.149 -1.0066 -1.5527 -1.7251
 8665TIP3   OH247485   0.737   2.968  14.739 -0.4541  0.8688 -0.1508
 8665TIP3    H147486   0.823   2.964  14.697  0.0601 -0.0346  0.9219
 8665TIP3    H247487   0.690   3.037  14.692  1.3687  2.4157  0.2047
 8666TIP3   OH247488   1.595   4.300   2.311  0.1703 -0.6622 -0.0461
 8666TIP3    H147489   1.505   4.269   2.300  0.0437 -1.4586  2.6202
 8666TIP3    H247490   1.614   4.346   2.229 -2.5335 -0.7552 -0.8319
 8667TIP3   OH247491   6.684   4.809   4.410 -0.4842  0.1390  0.8882
 8667TIP3    H147492   6.704   4.736   4.351  0.0274 -1.8508  3.3481
 8667TIP3    H247493   6.599   4.841   4.380 -0.1502 -0.6045 -1.0333
 8668TIP3   OH247494   0.762   5.877  15.485  0.1340  0.1466  0.1433
 8668TIP3    H147495   0.685   5.887  15.429  0.4073  1.7097 -0.0178
 8668TIP3    H247496   0.750   5.941  15.555  1.5293  0.8508 -0.2124
 8669TIP3   OH247497   3.956   0.196   5.759  0.4923 -0.2821  0.0753
 8669TIP3    H147498   4.049   0.207   5.736  0.2231 -1.2696 -1.6518
 8669TIP3    H247499   3.912   0.267   5.713  0.2499 -0.6271 -0.2277
 8670TIP3   OH247500   4.825   5.654  16.434 -0.0201 -0.1288 -0.1703
 8670TIP3    H147501   4.802   5.636  16.526  0.1889  0.6259  0.0377
 8670TIP3    H247502   4.815   5.749  16.426  1.8614  0.0751 -0.3890
 8671TIP3   OH247503   0.807   3.230   4.501  0.3945  0.1228 -0.0452
 8671TIP3    H147504   0.747   3.249   4.429  1.2667  0.8268 -0.6274
 8671TIP3    H247505   0.879   3.182   4.460  0.8741  0.4752  0.3579
 8672TIP3   OH247506   0.060   2.110   5.922 -0.3630 -0.1231  0.1863
 8672TIP3    H147507   0.113   2.030   5.924  0.6873  0.5411 -0.5507
 8672TIP3    H247508  -0.022   2.083   5.880  0.4114 -0.5878 -1.0835
 8673TIP3   OH247509   2.739   6.291  17.311 -0.6360  0.3642  0.3214
 8673TIP3    H147510   2.665   6.283  17.371 -1.1992 -0.6637 -0.4677
 8673TIP3    H247511   2.811   6.323  17.365 -1.6197  1.2937  1.1251
 8674TIP3   OH247512   5.415   4.138  15.756  0.3862 -0.0774 -0.3567
 8674TIP3    H147513   5.483   4.178  15.702  0.5105  0.7988  0.4341
 8674TIP3    H247514   5.450   4.140  15.845  0.0744 -1.2591 -0.1870
 8675TIP3   OH247515   1.129   6.401   2.542 -0.1888  0.6249 -0.2377
 8675TIP3    H147516   1.041   6.383   2.576  0.4182 -0.0881  0.9847
 8675TIP3    H247517   1.180   6.323   2.564  0.8004  1.1017 -0.7908
 8676TIP3   OH247518   4.002   1.054  17.152 -0.4313  0.8468 -0.1541
 8676TIP3    H147519   4.076   1.110  17.174  0.1132 -0.0777  0.4268
 8676TIP3    H247520   4.001   1.050  17.057  0.4643  0.6146 -0.1627
 8677TIP3   OH247521   6.110   1.205  15.948 -0.0081 -0.4365 -0.3075
 8677TIP3    H147522   6.068   1.162  15.874  0.2282  0.1693 -0.7996
 8677TIP3    H247523   6.204   1.189  15.936 -0.0847 -2.4508  1.2027
 8678TIP3   OH247524   2.361   3.854   6.382  0.3778 -0.0114  0.0438
 8678TIP3    H147525   2.321   3.767   6.379  0.2136  0.0730 -1.9581
 8678TIP3    H247526   2.452   3.838   6.408  0.0091 -0.6011  1.0464
 8679TIP3   OH247527   4.731   4.168   6.657  0.8309  0.2005 -0.2562
 8679TIP3    H147528   4.672   4.154   6.731  0.8781  0.4728 -0.1665
 8679TIP3    H247529   4.793   4.234   6.688  0.2654  1.0427 -0.8532
 8680TIP3   OH247530   3.245   2.882  11.753 -0.3226 -0.3879  0.0473
 8680TIP3    H147531   3.179   2.840  11.809  0.3621 -0.7101  0.6262
 8680TIP3    H247532   3.308   2.813  11.735 -1.0649 -0.5915 -2.0206
 8681TIP3   OH247533   6.103   1.239   0.328 -0.0077  0.0937  0.5131
 8681TIP3    H147534   6.096   1.304   0.258  0.2332  0.1200  0.5150
 8681TIP3    H247535   6.040   1.171   0.303  1.7882 -1.0867 -1.0062
 8682TIP3   OH247536   6.061   4.675   1.509 -0.0222 -0.3903  0.5174
 8682TIP3    H147537   6.035   4.732   1.582  0.2249 -1.4332  1.4490
 8682TIP3    H247538   6.149   4.706   1.486  0.3595 -0.7740  1.4217
 8683TIP3   OH247539   3.243   3.546  16.288  0.5185  0.2822  0.0909
 8683TIP3    H147540   3.168   3.602  16.265 -0.2776 -0.1636  1.4797
 8683TIP3    H247541   3.294   3.599  16.350  1.5564  0.7087 -1.0958
 8684TIP3   OH247542   5.513   1.898  10.820  0.2294  0.9696 -0.3146
 8684TIP3    H147543   5.494   1.860  10.734  2.1196  0.7271 -0.6691
 8684TIP3    H247544   5.564   1.830  10.865 -0.6346  1.1391  0.9756
 8685TIP3   OH247545   5.084   3.514  15.840 -0.1316  0.1077  0.1516
 8685TIP3    H147546   5.053   3.553  15.922 -1.3018 -0.9617  0.2347
 8685TIP3    H247547   5.163   3.467  15.864 -0.6503 -0.4731  0.7457
 8686TIP3   OH247548   3.911   5.874   1.963 -0.2251  0.6353  0.2474
 8686TIP3    H147549   3.850   5.813   1.921  0.7253  0.0805 -0.3542
 8686TIP3    H247550   3.977   5.891   1.896  0.8937  0.3429  1.2541
 8687TIP3   OH247551   5.320   1.357  11.943  0.1853  0.1320 -0.0899
 8687TIP3    H147552   5.321   1.276  11.994  0.3551 -0.8644 -1.5869
 8687TIP3    H247553   5.366   1.334  11.862 -1.8297  1.0232 -1.5791
 8688TIP3   OH247554   0.490   2.325  15.222  0.5585 -0.3618  0.2333
 8688TIP3    H147555   0.415   2.384  15.231  0.8083 -0.2030  1.3818
 8688TIP3    H247556   0.479   2.286  15.135  0.1513  1.0367 -0.3741
 8689TIP3   OH247557   2.302   2.877  12.180  0.0700 -0.8566 -0.2000
 8689TIP3    H147558   2.342   2.921  12.255 -2.6506  1.8784 -0.1312
 8689TIP3    H247559   2.348   2.912  12.104  0.4796 -0.8561  0.0482
 8690TIP3   OH247560   4.610   1.958  14.226 -0.9691  0.3051  0.3036
 8690TIP3    H147561   4.652   1.971  14.311  1.6345 -0.5979 -0.7717
 8690TIP3    H247562   4.624   2.040  14.180  1.7599 -0.6986 -0.8532
 8691TIP3   OH247563   0.754   1.461   2.885 -0.1480 -0.6858 -0.5728
 8691TIP3    H147564   0.833   1.489   2.838  0.3297  0.9665  1.0676
 8691TIP3    H247565   0.683   1.510   2.844  0.1157 -0.0374 -0.2765
 8692TIP3   OH247566   6.716   4.366   1.759 -0.3955 -0.5233  0.6194
 8692TIP3    H147567   6.692   4.281   1.721  0.6008 -0.4806 -0.1387
 8692TIP3    H247568   6.775   4.345   1.831 -0.4046 -0.4871  0.6378
 8693TIP3   OH247569   0.898   5.911   0.032  0.2495 -0.4733  0.2565
 8693TIP3    H147570   0.992   5.893   0.040  0.4550  0.7283  0.7282
 8693TIP3    H247571   0.856   5.826   0.048  1.1679 -0.6395  1.9786
 8694TIP3   OH247572   1.653   1.746   1.351 -0.0001 -0.0899  0.4927
 8694TIP3    H147573   1.613   1.660   1.364  1.8134 -0.8628  1.3024
 8694TIP3    H247574   1.724   1.730   1.289  0.9874  0.5878  1.4077
 8695TIP3   OH247575   5.825   5.121  13.831 -0.2250  0.4990 -0.0792
 8695TIP3    H147576   5.893   5.130  13.897 -0.3813  1.5211 -0.0331
 8695TIP3    H247577   5.758   5.185  13.856 -0.2830  0.9166 -1.2234
 8696TIP3   OH247578   5.258   5.569  12.860 -0.0363  0.5010 -0.2093
 8696TIP3    H147579   5.231   5.579  12.768  1.0094  0.8166 -0.4964
 8696TIP3    H247580   5.271   5.658  12.891 -0.4564  0.3956  0.2731
 8697TIP3   OH247581   0.789   2.446   0.744 -0.2985 -0.1377 -0.8604
 8697TIP3    H147582   0.766   2.504   0.672  0.8826  0.6214 -0.6435
 8697TIP3    H247583   0.830   2.503   0.809 -0.4207 -0.9788 -0.0226
 8698TIP3   OH247584   3.060   3.260   1.605 -0.3863 -0.0704  0.1631
 8698TIP3    H147585   3.099   3.288   1.687  1.1897  1.6900 -1.0986
 8698TIP3    H247586   2.982   3.315   1.595  1.8135  3.0224 -1.5209
 8699TIP3   OH247587   0.159   0.663   3.641 -0.4651  0.0103 -0.1260
 8699TIP3    H147588   0.227   0.608   3.604  0.0237 -0.0285  0.7990
 8699TIP3    H247589   0.091   0.667   3.573  0.8937  0.9193 -1.4978
 8700TIP3   OH247590   3.342   0.803  15.722  0.0892  0.0758  0.4758
 8700TIP3    H147591   3.373   0.803  15.631 -0.3779 -0.0725  0.3131
 8700TIP3    H247592   3.385   0.879  15.762  0.3908  0.0721  0.1663
 8701TIP3   OH247593   0.743   1.980   1.402  0.1405  0.2861 -0.4250
 8701TIP3    H147594   0.741   1.937   1.488  0.5967  1.4726  0.1933
 8701TIP3    H247595   0.835   1.981   1.378  0.1149  0.7847 -0.5054
 8702TIP3   OH247596   5.274   6.061   1.187  0.4259 -0.2175 -0.2676
 8702TIP3    H147597   5.261   5.972   1.154 -1.3167 -0.2329  0.3781
 8702TIP3    H247598   5.298   6.050   1.279  3.9540 -0.1098 -1.0117
 8703TIP3   OH247599   0.894   0.221   1.386  0.0440 -0.5605 -0.3559
 8703TIP3    H147600   0.851   0.248   1.467 -0.1224 -0.5568 -0.4460
 8703TIP3    H247601   0.915   0.303   1.341  0.4644 -0.5476 -0.1492
 8704TIP3   OH247602   2.946   3.112  16.613 -0.4437 -0.3986  0.2926
 8704TIP3    H147603   2.936   3.191  16.665  1.7253  1.6977 -2.1654
 8704TIP3    H247604   3.018   3.065  16.654 -0.5578 -0.1779  0.7491
 8705TIP3   OH247605   1.309   5.804   5.700  0.0153  0.1039  0.4239
 8705TIP3    H147606   1.302   5.831   5.791  0.9629 -0.9498  0.8283
 8705TIP3    H247607   1.388   5.750   5.696  0.0632  0.2292 -1.0453
 8706TIP3   OH247608   0.880   3.261   5.707  0.3504 -0.3762 -0.0009
 8706TIP3    H147609   0.855   3.172   5.733 -1.6921  0.5654  1.6715
 8706TIP3    H247610   0.920   3.298   5.786  0.4011  0.4279 -0.3959
 8707TIP3   OH247611   4.679   1.552   0.853 -0.8432 -0.0154 -0.6510
 8707TIP3    H147612   4.624   1.560   0.931  0.4815  1.4794  0.1929
 8707TIP3    H247613   4.624   1.585   0.781 -1.9352 -1.0313 -0.3021
 8708TIP3   OH247614   3.612   5.932   6.255 -0.0949 -0.1897 -0.0186
 8708TIP3    H147615   3.579   5.866   6.194 -0.7258 -1.4268  1.5861
 8708TIP3    H247616   3.625   5.884   6.337 -0.3599  1.6517  1.1466
 8709TIP3   OH247617   5.356   4.096  12.203 -0.2648  0.1698 -0.2129
 8709TIP3    H147618   5.350   4.023  12.265  1.6007  0.1420  0.0046
 8709TIP3    H247619   5.299   4.072  12.131 -2.7391  0.3121  1.5509
 8710TIP3   OH247620   2.289   2.237   1.012  0.6823  0.1927  0.2733
 8710TIP3    H147621   2.358   2.281   1.061  0.6455  0.7882 -0.1926
 8710TIP3    H247622   2.335   2.186   0.946  0.6837  0.8540 -0.2545
 8711TIP3   OH247623   1.974   6.304  17.152 -0.2555 -0.5308 -0.0058
 8711TIP3    H147624   1.926   6.379  17.115 -0.5704 -0.4477  0.5584
 8711TIP3    H247625   1.921   6.228  17.128 -0.0645 -0.5504 -0.3676
 8712TIP3   OH247626   2.131   3.673   2.094  0.4680 -0.1500 -0.2158
 8712TIP3    H147627   2.120   3.703   2.004 -3.1799  3.1588  1.0391
 8712TIP3    H247628   2.186   3.739   2.136  1.1896 -1.0292  0.2564
 8713TIP3   OH247629   6.555   0.467  16.871 -0.3073  0.7554 -0.0968
 8713TIP3    H147630   6.518   0.509  16.949  0.2099 -0.4099  0.8112
 8713TIP3    H247631   6.600   0.390  16.905 -1.4278 -0.6787 -1.6982
 8714TIP3   OH247632   0.153   5.700  11.725 -0.4345 -0.6649  0.8940
 8714TIP3    H147633   0.074   5.657  11.759  0.1130 -2.7524 -0.3104
 8714TIP3    H247634   0.138   5.707  11.631 -0.3060  1.5072  0.9865
 8715TIP3   OH247635   4.823   6.409  16.537 -0.7767 -0.3453  0.1268
 8715TIP3    H147636   4.868   6.464  16.473 -0.1654 -1.3565 -0.3308
 8715TIP3    H247637   4.733   6.441  16.538 -0.2774  1.1106  0.3826
 8716TIP3   OH247638   3.135   4.702  12.716  0.3175 -0.0218  0.5953
 8716TIP3    H147639   3.158   4.644  12.789  0.0674 -0.2966  0.4605
 8716TIP3    H247640   3.049   4.670  12.687  0.9883 -0.7609 -0.6743
 8717TIP3   OH247641   0.598   1.857  10.704 -0.5372  0.3752 -1.0679
 8717TIP3    H147642   0.618   1.931  10.647 -1.5519  0.1575 -1.7295
 8717TIP3    H247643   0.552   1.795  10.647  1.8307 -1.5988 -1.0487
 8718TIP3   OH247644   5.700   5.413   4.161  0.0288  0.5790 -0.3875
 8718TIP3    H147645   5.701   5.491   4.217  0.4065  0.9577 -0.9249
 8718TIP3    H247646   5.787   5.374   4.171 -0.9702 -1.3102  1.9991
 8719TIP3   OH247647   6.627   4.422   5.098  0.2626  0.3350 -0.2404
 8719TIP3    H147648   6.574   4.488   5.145  0.7567  0.3580  0.2968
 8719TIP3    H247649   6.716   4.439   5.127  0.5950  0.3903 -1.2633
 8720TIP3   OH247650   5.211   6.138  12.734 -0.2045 -0.1866  0.2553
 8720TIP3    H147651   5.183   6.221  12.696 -0.3101 -0.9513 -1.4856
 8720TIP3    H247652   5.158   6.127  12.812  0.4101  1.7559  1.0021
 8721TIP3   OH247653   0.513   2.432  13.347 -0.5393 -0.2891  0.3901
 8721TIP3    H147654   0.545   2.347  13.377  0.8820  0.7249  1.9074
 8721TIP3    H247655   0.562   2.450  13.267  0.2512 -0.2536  0.8782
 8722TIP3   OH247656   0.810   0.162   6.562  0.5526  0.2626  0.2864
 8722TIP3    H147657   0.736   0.144   6.503 -0.8036  1.1252  1.6403
 8722TIP3    H247658   0.886   0.126   6.517 -0.6961 -0.7050 -1.1507
 8723TIP3   OH247659   1.907   0.747   2.448  0.0600 -0.5323  0.0086
 8723TIP3    H147660   1.944   0.826   2.411 -1.7397  0.2781 -0.1765
 8723TIP3    H247661   1.940   0.676   2.392  1.8726  0.0151  0.3226
 8724TIP3   OH247662   0.376   3.033   0.561  0.2215 -0.0253  0.3214
 8724TIP3    H147663   0.291   3.052   0.521 -0.4740 -1.3232  1.1273
 8724TIP3    H247664   0.355   2.983   0.640  1.7730 -1.0634  0.1165
 8725TIP3   OH247665   4.900   0.823   4.800  0.0923 -0.1670  0.4343
 8725TIP3    H147666   4.818   0.777   4.819 -0.1978 -0.7114 -1.8578
 8725TIP3    H247667   4.882   0.914   4.824 -1.6554 -0.0369 -1.0874
 8726TIP3   OH247668   1.496   6.589   4.893  0.2963  0.1333  0.0750
 8726TIP3    H147669   1.550   6.513   4.914  2.2749  1.4737  0.1469
 8726TIP3    H247670   1.467   6.622   4.978  2.4323  1.4676  0.3635
 8727TIP3   OH247671   1.522   3.557  12.096  0.1620  0.5641 -0.1189
 8727TIP3    H147672   1.483   3.605  12.023 -5.6488  0.5750  2.5116
 8727TIP3    H247673   1.536   3.469  12.061  1.0701  1.4124 -2.0957
 8728TIP3   OH247674   0.626   5.994  14.418  0.2936  0.2771  0.5038
 8728TIP3    H147675   0.549   6.049  14.427 -0.5435 -0.9414  1.0028
 8728TIP3    H247676   0.643   5.961  14.506  0.3489 -0.8239  0.0940
 8729TIP3   OH247677   5.132   2.519  16.390  0.0350 -0.1061 -0.1672
 8729TIP3    H147678   5.151   2.439  16.439  1.0620  0.2860  0.1071
 8729TIP3    H247679   5.061   2.495  16.331 -1.7796 -0.4047  2.0003
 8730TIP3   OH247680   1.018   5.206   4.606 -0.1143 -0.2534  0.1319
 8730TIP3    H147681   1.078   5.199   4.681  0.0245  1.1904  0.1792
 8730TIP3    H247682   0.937   5.241   4.644 -1.0884 -2.3098  0.0927
 8731TIP3   OH247683   6.014   5.624  16.423 -0.9395  0.2705  0.0194
 8731TIP3    H147684   5.926   5.648  16.395 -1.0783  1.0377  1.0266
 8731TIP3    H247685   6.052   5.706  16.455 -0.1891 -0.2214  0.4200
 8732TIP3   OH247686   2.076   6.817  13.934  0.4089  0.5907 -0.1981
 8732TIP3    H147687   2.070   6.739  13.989  1.2272  0.9740  0.4641
 8732TIP3    H247688   2.037   6.790  13.851 -0.4131 -0.1458  0.4042
 8733TIP3   OH247689   2.163   4.389  14.321  0.4473 -0.1777 -0.3582
 8733TIP3    H147690   2.089   4.448  14.336  1.5492  1.1332  0.1463
 8733TIP3    H247691   2.142   4.344  14.239  0.6445  2.6690 -2.0948
 8734TIP3   OH247692   5.835   1.342  11.694  0.2293  0.8988 -0.5910
 8734TIP3    H147693   5.818   1.313  11.784 -2.7150  2.5550 -0.4816
 8734TIP3    H247694   5.786   1.281  11.640 -0.6479  1.7865 -0.8140
 8735TIP3   OH247695   2.140   1.223  12.092 -0.3016 -0.4231  0.1734
 8735TIP3    H147696   2.159   1.261  12.178  1.1336 -0.3365 -0.1608
 8735TIP3    H247697   2.061   1.269  12.062  0.4943  1.2052  0.4600
 8736TIP3   OH247698   4.722   3.948   6.482 -0.1258  0.1900 -0.0060
 8736TIP3    H147699   4.670   3.982   6.409 -1.6669  1.3259  1.5154
 8736TIP3    H247700   4.725   4.021   6.544  2.8491 -0.0614  0.2517
 8737TIP3   OH247701   4.078   6.191  11.412 -0.1825  0.2421  0.1330
 8737TIP3    H147702   4.129   6.145  11.346  0.2826  0.5701  0.2614
 8737TIP3    H247703   4.055   6.275  11.371  1.0016  0.8931  0.7498
 8738TIP3   OH247704   2.899   4.944   6.125  0.0071 -0.0845 -0.0703
 8738TIP3    H147705   2.949   4.920   6.047  0.0172 -2.1704  0.5311
 8738TIP3    H247706   2.907   4.869   6.183 -3.0488 -0.1327  0.4417
 8739TIP3   OH247707   4.412   2.029   5.879 -0.1349  0.0009  0.0209
 8739TIP3    H147708   4.455   2.069   5.954 -0.1396  1.0931 -0.5433
 8739TIP3    H247709   4.341   2.090   5.856  0.0107 -0.1988 -1.0089
 8740TIP3   OH247710   1.538   3.753   4.360  0.6866  0.1767 -0.3890
 8740TIP3    H147711   1.596   3.784   4.429  0.9807  0.6637 -0.8520
 8740TIP3    H247712   1.597   3.720   4.292  0.3901 -0.9977 -0.1012
 8741TIP3   OH247713   0.727   1.239   4.608  0.5136 -0.2548  0.7849
 8741TIP3    H147714   0.716   1.247   4.703  0.1068  1.6607  0.6101
 8741TIP3    H247715   0.645   1.272   4.571  0.7910 -0.6820 -0.2469
 8742TIP3   OH247716   2.187   5.873  10.891 -0.2121  0.0551  0.2781
 8742TIP3    H147717   2.258   5.922  10.850 -0.4528 -0.1682 -0.4130
 8742TIP3    H247718   2.109   5.924  10.873 -0.1168  0.7829  1.8349
 8743TIP3   OH247719   0.536   6.189  11.533 -0.3606  0.1496 -0.8089
 8743TIP3    H147720   0.577   6.128  11.471  1.0853  0.6079 -0.3362
 8743TIP3    H247721   0.606   6.213  11.593 -1.5321  0.3554  0.5339
 8744TIP3   OH247722   3.128   0.977   4.161  0.1181  0.3328 -0.4574
 8744TIP3    H147723   3.092   1.029   4.090  0.6804  1.2712 -0.0765
 8744TIP3    H247724   3.053   0.929   4.196 -0.3530  0.6555 -1.0078
 8745TIP3   OH247725   4.165   0.239   4.145 -0.5093  0.2331 -0.3608
 8745TIP3    H147726   4.135   0.192   4.223 -0.2654 -0.0572 -0.4383
 8745TIP3    H247727   4.089   0.241   4.087 -0.1002 -1.4030 -0.9871
 8746TIP3   OH247728   6.531   1.614  15.075  0.0836  0.0368 -0.3169
 8746TIP3    H147729   6.593   1.686  15.061  0.6562 -0.5642 -0.9593
 8746TIP3    H247730   6.583   1.546  15.118  0.1532 -0.8649 -1.7660
 8747TIP3   OH247731   0.175   2.581  11.988  0.1053 -0.6463  0.0234
 8747TIP3    H147732   0.106   2.628  11.941 -0.5929 -3.1696 -1.6517
 8747TIP3    H247733   0.196   2.507  11.932  1.6216 -1.9720  2.2031
 8748TIP3   OH247734   6.065   1.249   5.355 -0.0173  0.2443 -0.2112
 8748TIP3    H147735   5.976   1.213   5.348 -0.2021  0.8592 -1.3889
 8748TIP3    H247736   6.105   1.201   5.427 -0.5326 -1.7357 -1.1490
 8749TIP3   OH247737   6.005   5.242   0.552 -0.3969  0.4636 -0.4223
 8749TIP3    H147738   5.932   5.207   0.604 -0.2175  0.2333 -0.3274
 8749TIP3    H247739   6.005   5.190   0.472  0.9141 -0.8971  0.4182
 8750TIP3   OH247740   5.148   5.289   1.407  0.4673  0.4282 -0.1752
 8750TIP3    H147741   5.133   5.195   1.417  0.0105  0.5290  0.1796
 8750TIP3    H247742   5.075   5.329   1.455  0.8469  0.9620 -0.0359
 8751TIP3   OH247743   0.217   3.031  13.084 -0.0791 -0.3012 -0.2234
 8751TIP3    H147744   0.208   2.938  13.063  0.2319 -0.0576 -1.4902
 8751TIP3    H247745   0.243   3.072  13.002  0.3740  0.8247  0.4578
 8752TIP3   OH247746   1.935   5.547   0.778  0.0983 -0.5435 -0.1392
 8752TIP3    H147747   1.892   5.464   0.799  1.1259 -0.5922  1.9934
 8752TIP3    H247748   1.955   5.586   0.863  2.9844  0.1327 -1.0324
 8753TIP3   OH247749   4.894   3.712  15.150  0.3183  0.0256 -0.3006
 8753TIP3    H147750   4.941   3.642  15.195  1.4963 -1.1042 -3.0687
 8753TIP3    H247751   4.833   3.667  15.092 -0.7898  1.3894 -0.2507
 8754TIP3   OH247752   3.844   1.908  14.591 -0.0287 -0.3766  0.1101
 8754TIP3    H147753   3.793   1.828  14.605  0.8534 -1.1281 -0.8120
 8754TIP3    H247754   3.847   1.950  14.677 -2.9550  0.1890  0.0425
 8755TIP3   OH247755   0.244   3.387  12.224 -0.2666 -0.1563  0.3800
 8755TIP3    H147756   0.275   3.433  12.146 -0.4444  0.5536  0.7182
 8755TIP3    H247757   0.157   3.356  12.200 -0.3006  0.0152  0.2763
 8756TIP3   OH247758   3.803   4.048  14.240  0.0649 -0.2763 -0.2346
 8756TIP3    H147759   3.770   4.088  14.321 -0.5592 -1.6400  0.2212
 8756TIP3    H247760   3.775   4.108  14.170 -1.9240 -0.4996  0.3008
 8757TIP3   OH247761   0.693   6.686   4.063  0.4193  0.6509  0.6404
 8757TIP3    H147762   0.614   6.700   4.115 -0.4170  0.4414 -0.5141
 8757TIP3    H247763   0.729   6.604   4.096 -1.1568 -0.5038 -0.3133
 8758TIP3   OH247764   2.590   1.093   1.355 -0.5392  0.2346 -0.2966
 8758TIP3    H147765   2.627   1.121   1.272 -1.4951  0.5578 -0.6296
 8758TIP3    H247766   2.665   1.062   1.406 -0.2535 -3.1322 -2.4736
 8759TIP3   OH247767   3.729   2.287   2.712  0.1152 -0.0660  0.4234
 8759TIP3    H147768   3.705   2.222   2.647 -0.9973  0.8416 -0.1153
 8759TIP3    H247769   3.677   2.364   2.689  1.0271  0.8550  1.3245
 8760TIP3   OH247770   0.162   1.000   0.989  0.2847  0.1044  0.1324
 8760TIP3    H147771   0.203   1.073   1.034  0.9920 -0.1333 -0.1197
 8760TIP3    H247772   0.119   1.039   0.913 -2.2690  0.7581  1.7756
 8761TIP3   OH247773   4.272   5.241  14.959  0.3314  0.5547  0.2825
 8761TIP3    H147774   4.231   5.324  14.985  0.0298  0.0218  1.6244
 8761TIP3    H247775   4.343   5.229  15.022  0.4735 -0.1224  0.0012
 8762TIP3   OH247776   1.416   5.613   2.602  0.2308  0.2919 -0.6539
 8762TIP3    H147777   1.398   5.580   2.514 -1.2719  0.6813 -0.5247
 8762TIP3    H247778   1.330   5.633   2.638  0.9231  1.9719  0.1929
 8763TIP3   OH247779   6.118   0.565  11.622  0.0330  0.4689  0.3738
 8763TIP3    H147780   6.041   0.547  11.569  1.6317 -3.2411 -0.9979
 8763TIP3    H247781   6.087   0.565  11.712 -1.9982  2.3258 -0.2548
 8764TIP3   OH247782   5.109   2.293   3.543  0.2031  0.2106 -0.2004
 8764TIP3    H147783   5.179   2.239   3.581  0.4417  0.9912  0.4902
 8764TIP3    H247784   5.149   2.379   3.530 -0.1218  0.1836 -1.4651
 8765TIP3   OH247785   1.665   2.556   3.902 -0.7386 -0.0662 -0.6301
 8765TIP3    H147786   1.691   2.466   3.922  1.5325  0.3765 -1.2820
 8765TIP3    H247787   1.645   2.594   3.988 -1.9553 -1.2165 -0.3662
 8766TIP3   OH247788   0.247   4.402  14.716  0.0849 -0.2800  0.4992
 8766TIP3    H147789   0.247   4.414  14.621  0.4517 -0.0792  0.5192
 8766TIP3    H247790   0.159   4.372  14.738  0.1716 -0.8871  0.0252
 8767TIP3   OH247791   2.536   3.822   3.474 -0.5674 -0.3253  0.3828
 8767TIP3    H147792   2.486   3.887   3.425 -0.5824  0.0676  0.9187
 8767TIP3    H247793   2.471   3.761   3.508 -0.4504 -1.5576 -1.4316
 8768TIP3   OH247794   5.391   6.251   4.648 -0.4142  0.0039  0.0104
 8768TIP3    H147795   5.328   6.306   4.694 -0.4011 -1.3431  1.7489
 8768TIP3    H247796   5.472   6.303   4.648 -0.2476 -0.1579  2.1014
 8769TIP3   OH247797   2.904   2.635  15.874  0.1206 -0.7170 -0.3481
 8769TIP3    H147798   2.924   2.623  15.781 -0.9301 -1.1959 -0.5286
 8769TIP3    H247799   2.956   2.567  15.918  1.6104  0.3082 -0.4267
 8770TIP3   OH247800   6.444   2.797   6.208 -0.1590  0.7491 -0.2675
 8770TIP3    H147801   6.374   2.746   6.248 -0.0902  0.6590 -0.2612
 8770TIP3    H247802   6.433   2.783   6.114  0.4122 -0.0142 -0.2334
 8771TIP3   OH247803   1.370   3.763  12.473  0.1878 -0.0170  0.3893
 8771TIP3    H147804   1.379   3.719  12.558  0.0600 -0.7679  0.0243
 8771TIP3    H247805   1.443   3.729  12.421  0.2019  0.3585  0.1613
 8772TIP3   OH247806   6.372   0.535   2.092 -0.0962  0.1318  0.0376
 8772TIP3    H147807   6.332   0.451   2.072  1.5808 -0.5057 -0.8519
 8772TIP3    H247808   6.301   0.598   2.084 -1.0695 -1.0185 -0.7999
 8773TIP3   OH247809   4.464   1.453  12.008  0.3571  0.5523  0.0280
 8773TIP3    H147810   4.387   1.406  11.974  0.4683  0.3027  0.1189
 8773TIP3    H247811   4.496   1.398  12.079  0.7553  0.5444 -0.1556
 8774TIP3   OH247812   3.336   1.410  13.527 -0.3566 -0.4011  0.5822
 8774TIP3    H147813   3.422   1.446  13.503 -0.9828  1.3185  0.8268
 8774TIP3    H247814   3.354   1.355  13.603  0.4649  0.3698  0.9709
 8775TIP3   OH247815   0.382   2.231  12.335 -0.0705  0.0849 -0.0065
 8775TIP3    H147816   0.377   2.151  12.283 -2.2919  1.7429 -2.6298
 8775TIP3    H247817   0.476   2.245  12.348  0.5290 -1.2686 -2.2554
 8776TIP3   OH247818   6.486   0.519  13.222  1.0054 -0.1548  0.6090
 8776TIP3    H147819   6.567   0.568  13.203  1.1060 -0.6003 -0.1663
 8776TIP3    H247820   6.427   0.544  13.151  1.2253 -1.5193 -0.0761
 8777TIP3   OH247821   4.085   0.874  15.295  0.0723  0.0939  0.3094
 8777TIP3    H147822   4.156   0.938  15.302  0.5519 -0.5007  1.0303
 8777TIP3    H247823   4.098   0.834  15.209 -1.0545  1.8863 -0.7754
 8778TIP3   OH247824   4.141   5.164  15.286  0.4394  0.3075 -0.3143
 8778TIP3    H147825   4.110   5.092  15.341  2.2229 -1.1008 -1.0567
 8778TIP3    H247826   4.205   5.210  15.341  0.1220  0.6771 -0.2421
 8779TIP3   OH247827   2.800   1.406   2.918  0.5560 -0.8690  0.1358
 8779TIP3    H147828   2.763   1.486   2.956 -1.3446 -1.1165 -1.0246
 8779TIP3    H247829   2.725   1.348   2.907  1.8593 -2.7340  0.6902
 8780TIP3   OH247830   0.807   2.093  15.109  0.4838 -0.1274  0.3639
 8780TIP3    H147831   0.789   2.060  15.197  2.3091 -1.4227  0.3242
 8780TIP3    H247832   0.736   2.058  15.055 -1.4867  1.8886  1.4990
 8781TIP3   OH247833   3.947   3.419  15.365  0.3697 -0.1976 -0.4695
 8781TIP3    H147834   3.995   3.496  15.396  0.6586 -1.5547  2.9416
 8781TIP3    H247835   4.012   3.349  15.366 -0.8117 -1.3518  0.9040
 8782TIP3   OH247836   5.756   4.485   2.767 -0.2897  0.0934  0.1422
 8782TIP3    H147837   5.849   4.508   2.767 -0.2921  0.1983  1.6324
 8782TIP3    H247838   5.748   4.417   2.833 -1.2557 -0.0383 -0.1007
 8783TIP3   OH247839   1.304   3.140   3.820  0.4386  0.0683 -0.6650
 8783TIP3    H147840   1.378   3.115   3.876  0.9005  0.2058 -1.2007
 8783TIP3    H247841   1.241   3.180   3.879  0.8866  0.1404 -0.2317
 8784TIP3   OH247842   3.514   5.874  12.330  0.2284 -0.8352 -0.2247
 8784TIP3    H147843   3.541   5.782  12.328 -1.5972 -1.4184  0.4097
 8784TIP3    H247844   3.420   5.872  12.349  0.2520  1.1753  0.3953
 8785TIP3   OH247845   2.178   3.556   5.408  0.1186  0.3897  0.1024
 8785TIP3    H147846   2.140   3.576   5.494  1.1203 -1.2284  0.9779
 8785TIP3    H247847   2.145   3.625   5.350 -2.2030  0.4001  1.3146
 8786TIP3   OH247848   4.820   5.068  16.997  0.1521  0.2922 -0.7633
 8786TIP3    H147849   4.881   5.088  16.926 -0.1749  0.4514 -1.0020
 8786TIP3    H247850   4.747   5.129  16.983  1.3758  2.3982  1.3936
 8787TIP3   OH247851   2.742   4.538  10.358 -0.3228 -0.3243 -0.0081
 8787TIP3    H147852   2.646   4.540  10.361 -0.2894  0.6052  0.6486
 8787TIP3    H247853   2.767   4.477  10.427 -0.3972  0.7566  0.9932
 8788TIP3   OH247854   6.138   3.503  11.364  0.1773  0.5016  0.5436
 8788TIP3    H147855   6.217   3.504  11.310  0.8406  1.8761  1.4755
 8788TIP3    H247856   6.081   3.437  11.323  2.5629 -2.0267  0.9947
 8789TIP3   OH247857   4.510   0.545  13.306  0.0938 -0.2052 -0.5010
 8789TIP3    H147858   4.485   0.630  13.269 -1.3175 -1.0494 -1.6304
 8789TIP3    H247859   4.561   0.566  13.384 -0.3610  1.6708 -0.6625
 8790TIP3   OH247860   1.339   6.447   1.465  0.3370 -0.9899 -0.2314
 8790TIP3    H147861   1.327   6.458   1.370  1.2640  0.1231 -0.2395
 8790TIP3    H247862   1.259   6.403   1.494 -0.7244  0.1693 -1.2828
 8791TIP3   OH247863   3.176   3.300  17.119 -0.0943 -0.2383  0.3101
 8791TIP3    H147864   3.097   3.266  17.162 -0.2322  0.4327  0.6054
 8791TIP3    H247865   3.159   3.393  17.109  1.0626  0.1137  1.2853
 8792TIP3   OH247866   3.012   6.180  12.035  0.5821 -0.1348  0.3414
 8792TIP3    H147867   2.950   6.192  12.106 -0.6930  0.3282 -0.8022
 8792TIP3    H247868   2.958   6.165  11.957  1.6939  3.2394 -1.3043
 8793TIP3   OH247869   5.916   5.555  15.275  0.1383  0.0801 -0.0412
 8793TIP3    H147870   5.908   5.534  15.368 -0.9388  0.8512  0.0556
 8793TIP3    H247871   5.984   5.622  15.271 -0.4044  0.6541  0.2928
 8794TIP3   OH247872   5.458   6.456   1.701  0.2965  0.4215 -0.5074
 8794TIP3    H147873   5.448   6.525   1.768 -0.7097 -0.4641  0.2795
 8794TIP3    H247874   5.541   6.478   1.657  0.2180  1.8831  0.0122
 8795TIP3   OH247875   1.851   1.147   2.510 -0.3943 -0.4772  0.1142
 8795TIP3    H147876   1.839   1.222   2.452 -0.5950  0.0374  0.8065
 8795TIP3    H247877   1.762   1.120   2.532 -0.3192 -0.2246  0.7405
 8796TIP3   OH247878   2.620   6.644  11.855 -0.5474 -0.8743 -0.3263
 8796TIP3    H147879   2.642   6.561  11.896 -0.2389 -0.2431  0.8332
 8796TIP3    H247880   2.652   6.710  11.916 -3.2783  0.1111  0.1662
 8797TIP3   OH247881   6.053   5.931   4.235 -0.2203  1.0619 -0.5240
 8797TIP3    H147882   5.977   5.875   4.219 -0.4300  1.8028 -2.3803
 8797TIP3    H247883   6.128   5.877   4.211 -0.3592  1.2384 -1.3845
 8798TIP3   OH247884   2.006   4.101  11.359  0.4059 -0.2099 -0.1473
 8798TIP3    H147885   2.067   4.171  11.338 -0.0095 -0.0929 -0.9661
 8798TIP3    H247886   1.936   4.144  11.407 -0.0500  0.0060 -1.0047
 8799TIP3   OH247887   4.503   5.464   2.342 -0.5102  0.1396  0.0146
 8799TIP3    H147888   4.526   5.460   2.249 -0.0192  0.0221  0.1379
 8799TIP3    H247889   4.419   5.419   2.348 -1.2405  1.3927 -0.5885
 8800TIP3   OH247890   3.291   2.100   6.105 -0.3317 -0.2550  0.4124
 8800TIP3    H147891   3.214   2.077   6.052  0.2487 -0.8438 -0.1865
 8800TIP3    H247892   3.351   2.027   6.094  1.3829  1.2865 -1.1613
 8801TIP3   OH247893   1.789   4.154   4.682 -0.1899  0.3639  0.0165
 8801TIP3    H147894   1.730   4.228   4.698  1.9219  2.7755 -2.2702
 8801TIP3    H247895   1.847   4.153   4.758 -1.4910 -0.3453  1.0372
 8802TIP3   OH247896   1.108   1.201   6.213 -0.3546 -0.3253 -0.8700
 8802TIP3    H147897   1.165   1.272   6.184 -1.0527  1.3584  1.5254
 8802TIP3    H247898   1.138   1.183   6.303 -1.1343 -2.0973 -0.9308
 8803TIP3   OH247899   5.761   3.580  16.734  0.0320 -0.2682  0.8645
 8803TIP3    H147900   5.741   3.608  16.824  0.6797 -1.6546  1.4651
 8803TIP3    H247901   5.782   3.487  16.742  0.9316 -0.2183 -0.6111
 8804TIP3   OH247902   2.091   4.175   0.065  0.5079 -0.0838 -0.1982
 8804TIP3    H147903   2.065   4.152  -0.024  0.5296  1.0333 -0.5096
 8804TIP3    H247904   2.130   4.262   0.057  1.0210 -0.2008  0.8216
 8805TIP3   OH247905   6.308   2.343   1.981  0.1331  0.1175 -0.0727
 8805TIP3    H147906   6.384   2.373   1.931  1.3096 -0.6624  1.1764
 8805TIP3    H247907   6.259   2.288   1.920  1.2760 -0.4150 -0.5314
 8806TIP3   OH247908   6.016   2.806  12.803  0.0658  0.9410 -0.2174
 8806TIP3    H147909   6.078   2.791  12.732  1.4948 -0.4145  1.2152
 8806TIP3    H247910   5.935   2.763  12.774  1.4220 -2.0120  0.0024
 8807TIP3   OH247911   3.008   3.128   5.709  0.7803 -0.0770  0.3489
 8807TIP3    H147912   3.081   3.080   5.748 -0.6766 -1.3311  1.6839
 8807TIP3    H247913   2.960   3.062   5.659 -1.2875 -0.1299  2.2513
 8808TIP3   OH247914   2.969   6.116  13.632  0.4431 -0.5407 -0.4299
 8808TIP3    H147915   3.004   6.177  13.567 -1.9079 -0.8100 -2.0974
 8808TIP3    H247916   2.903   6.167  13.679  1.2548 -0.7160  0.9485
 8809TIP3   OH247917   1.231   5.269  12.149  0.0056 -0.3923 -0.4571
 8809TIP3    H147918   1.303   5.234  12.096  0.7187 -1.8146  1.3537
 8809TIP3    H247919   1.269   5.345  12.194 -0.2669  0.1157 -1.0601
 8810TIP3   OH247920   3.517   0.355   5.932  0.5500 -0.3350  0.2646
 8810TIP3    H147921   3.482   0.287   5.988 -0.7297 -0.4704 -0.6492
 8810TIP3    H247922   3.442   0.411   5.911  0.7975 -0.6967 -1.8579
 8811TIP3   OH247923   0.628   0.780   5.648 -0.0271 -0.0135  0.4891
 8811TIP3    H147924   0.610   0.704   5.704  0.9649 -0.9621 -0.4258
 8811TIP3    H247925   0.693   0.748   5.585  0.6066  1.6717  0.2347
 8812TIP3   OH247926   0.630   6.030  15.020  0.2822  0.7356  0.2289
 8812TIP3    H147927   0.547   6.072  15.041 -1.2032 -1.5956 -0.5756
 8812TIP3    H247928   0.607   5.938  15.004  2.4719  0.6098 -3.2590
 8813TIP3   OH247929   6.177   5.174  11.698 -0.4202 -0.0704  0.1606
 8813TIP3    H147930   6.204   5.265  11.711 -0.4156 -0.0266 -0.1408
 8813TIP3    H247931   6.161   5.140  11.786 -0.1768  0.1476  0.2876
 8814TIP3   OH247932   5.037   6.637   5.829 -0.1243 -0.0106  0.9384
 8814TIP3    H147933   5.095   6.707   5.857 -2.3383  2.2797  0.1364
 8814TIP3    H247934   4.961   6.644   5.887 -2.6189  1.6673 -2.2202
 8815TIP3   OH247935   0.245   5.244  12.739  0.2828  0.1798 -0.0680
 8815TIP3    H147936   0.314   5.297  12.696 -0.5041  3.2580  2.1176
 8815TIP3    H247937   0.165   5.267  12.692  0.0013  0.5873  0.6036
 8816TIP3   OH247938   5.023   5.459   0.017 -0.3151 -0.0383  0.1604
 8816TIP3    H147939   4.951   5.402  -0.010 -1.4664  1.0393  0.8389
 8816TIP3    H247940   5.064   5.486  -0.064  1.1820 -2.8983 -0.1650
 8817TIP3   OH247941   5.850   6.705   4.861 -0.8300  0.0687  0.1851
 8817TIP3    H147942   5.789   6.660   4.802  2.2229 -4.0214 -0.3068
 8817TIP3    H247943   5.812   6.696   4.948 -2.1370  0.0590 -0.3635
 8818TIP3   OH247944   4.602   5.200   3.827 -0.2314 -0.1791  0.0814
 8818TIP3    H147945   4.640   5.208   3.739 -0.0957  0.8203  0.2109
 8818TIP3    H247946   4.674   5.169   3.882 -0.1102 -0.0791 -0.0208
 8819TIP3   OH247947   4.015   6.441   3.529  0.2742  0.2875 -0.0991
 8819TIP3    H147948   4.064   6.361   3.509  1.2035  0.7638  0.2160
 8819TIP3    H247949   4.052   6.507   3.470  0.0742  0.6747  0.2044
 8820TIP3   OH247950   3.461   1.947   5.373  0.0237  0.3422  0.2589
 8820TIP3    H147951   3.522   1.976   5.440  0.5022  1.1706 -0.4995
 8820TIP3    H247952   3.462   1.852   5.378  0.2787  0.3874  1.2089
 8821TIP3   OH247953   1.865   0.744  17.314  0.2088 -0.8099 -0.4065
 8821TIP3    H147954   1.948   0.792  17.307 -0.4645  0.8206  1.5013
 8821TIP3    H247955   1.861   0.719  17.407 -1.2940 -1.0847 -0.5272
 8822TIP3   OH247956   0.202   6.779   0.134  0.3029 -0.1745 -0.0911
 8822TIP3    H147957   0.115   6.803   0.163 -0.1278  0.6841 -1.9659
 8822TIP3    H247958   0.237   6.724   0.205 -0.7732  1.4738  1.8176
 8823TIP3   OH247959   0.558   4.227  16.262  0.0659  0.3269 -0.2247
 8823TIP3    H147960   0.544   4.216  16.168 -1.4192 -0.3300  0.0471
 8823TIP3    H247961   0.615   4.155  16.287 -0.7344 -0.3716 -0.3781
 8824TIP3   OH247962   2.719   4.873   0.680 -0.8174 -0.1044 -0.4793
 8824TIP3    H147963   2.671   4.840   0.757 -0.9129 -0.1898 -0.5748
 8824TIP3    H247964   2.735   4.965   0.699  0.9725 -0.5821  0.5783
 8825TIP3   OH247965   6.694   4.995  15.843  0.6825 -0.1416 -0.1013
 8825TIP3    H147966   6.628   5.065  15.836 -0.1206 -0.2129  4.1556
 8825TIP3    H247967   6.772   5.039  15.876  1.7718 -0.6155 -1.9220
 8826TIP3   OH247968   3.934   2.422   6.628  0.2118  0.2555 -0.1226
 8826TIP3    H147969   3.918   2.511   6.658 -0.8672 -0.8235  2.9517
 8826TIP3    H247970   4.026   2.422   6.601 -0.1535  2.5735 -1.6662
 8827TIP3   OH247971   0.596   0.540  15.535 -0.2031  0.3450  0.1025
 8827TIP3    H147972   0.639   0.624  15.524  0.2215  0.1167 -0.0034
 8827TIP3    H247973   0.504   0.557  15.516 -0.0184  0.6495 -0.5251
 8828TIP3   OH247974   0.849   2.424  13.622  0.1547 -0.0503  0.4952
 8828TIP3    H147975   0.892   2.370  13.688 -3.9496 -1.7888  2.0606
 8828TIP3    H247976   0.855   2.371  13.542  1.2836 -0.0124  0.5364
 8829TIP3   OH247977   1.332   3.424   4.967 -0.6972  0.4378 -0.2701
 8829TIP3    H147978   1.272   3.465   4.905 -0.9864 -0.4545 -0.5916
 8829TIP3    H247979   1.419   3.438   4.929 -0.7633  0.9761 -0.2370
 8830TIP3   OH247980   2.718   6.462   0.634 -0.8091  0.0859  0.4701
 8830TIP3    H147981   2.642   6.446   0.689 -0.3087  1.7913  1.7390
 8830TIP3    H247982   2.776   6.387   0.652 -1.6140 -0.5524  0.4836
 8831TIP3   OH247983   6.028   3.877  15.880  0.1853 -0.0431 -0.2740
 8831TIP3    H147984   5.985   3.800  15.846  0.2006 -0.5622  0.8283
 8831TIP3    H247985   6.096   3.843  15.938 -1.3851  0.7346  2.2099
 8832TIP3   OH247986   3.763   1.769   6.245  0.0530 -0.0089  0.4822
 8832TIP3    H147987   3.840   1.741   6.294  0.4856 -2.1809 -1.2714
 8832TIP3    H247988   3.797   1.828   6.178 -0.0930  0.4264  0.7823
 8833TIP3   OH247989   0.834   2.342   6.213  0.1082  0.2289 -0.1217
 8833TIP3    H147990   0.758   2.381   6.256 -0.1525 -0.5373  0.1297
 8833TIP3    H247991   0.853   2.263   6.264 -0.5966 -1.0670 -1.7437
 8834TIP3   OH247992   5.713   2.484  15.663 -0.3646  0.0362 -0.5601
 8834TIP3    H147993   5.635   2.539  15.667 -0.7835 -0.6340  1.5446
 8834TIP3    H247994   5.684   2.404  15.618 -1.0053 -0.3473  0.5037
 8835TIP3   OH247995   6.714   6.252  16.070  0.1527  0.6817 -0.1640
 8835TIP3    H147996   6.623   6.225  16.057  0.1459  1.1545 -1.2224
 8835TIP3    H247997   6.745   6.277  15.983  1.2928  0.5655  0.1822
 8836TIP3   OH247998   2.455   6.013  11.325 -0.0201 -0.0712 -0.1605
 8836TIP3    H147999   2.393   6.005  11.253  2.0685  0.2700 -2.1231
 8836TIP3    H248000   2.473   6.107  11.330 -1.4054  0.1612  2.0548
 8837TIP3   OH248001   1.239   3.373   5.843 -0.2139 -0.2299 -0.0259
 8837TIP3    H148002   1.177   3.308   5.877  1.0811 -1.3794  0.2187
 8837TIP3    H248003   1.325   3.335   5.860  0.5993  1.5791  0.1571
 8838TIP3   OH248004   1.826   5.310  12.670  0.0499 -0.3137 -0.2982
 8838TIP3    H148005   1.756   5.252  12.640  1.3201 -1.0750 -1.9372
 8838TIP3    H248006   1.851   5.359  12.591 -0.3010  1.7803  0.8217
 8839TIP3   OH248007   0.717   2.490   3.418  0.2064  0.2124  0.3782
 8839TIP3    H148008   0.625   2.487   3.392 -0.3001 -0.3118  2.1134
 8839TIP3    H248009   0.726   2.573   3.465  0.9841  0.9196 -0.9590
 8840TIP3   OH248010   6.207   0.024  13.929  0.1414  0.2765  0.9244
 8840TIP3    H148011   6.245   0.000  14.014  0.9910 -0.6390  0.3071
 8840TIP3    H248012   6.162  -0.056  13.900  1.1163  0.0928 -0.1525
 8841TIP3   OH248013   1.762   3.101   4.783 -0.4442  0.3334  0.2647
 8841TIP3    H148014   1.852   3.122   4.805 -0.6753 -0.0900  1.6599
 8841TIP3    H248015   1.754   3.007   4.796 -1.0013  0.3100 -0.1854
 8842TIP3   OH248016   1.689   0.495   1.043  0.3884 -0.3856 -0.0035
 8842TIP3    H148017   1.677   0.492   1.138 -0.5434  0.4224 -0.0785
 8842TIP3    H248018   1.784   0.504   1.031  0.4830 -0.1457  0.8579
 8843TIP3   OH248019   3.989   5.180   0.349  0.3968 -0.3838 -0.4057
 8843TIP3    H148020   3.898   5.162   0.323  0.4411 -1.4622  0.1634
 8843TIP3    H248021   3.983   5.206   0.441  0.6351 -0.0583 -0.4783
 8844TIP3   OH248022   5.704   1.299   6.219  0.4490  0.2965  0.5620
 8844TIP3    H148023   5.782   1.281   6.272  1.7366  1.3609 -0.8760
 8844TIP3    H248024   5.651   1.357   6.274  0.8772 -0.0822  1.3938
 8845TIP3   OH248025   5.964   5.753  16.697  0.7272 -0.4959  0.1419
 8845TIP3    H148026   5.934   5.839  16.668  3.0591  0.2879 -0.1127
 8845TIP3    H248027   5.992   5.766  16.787 -0.6650 -1.4839  0.7575
 8846TIP3   OH248028   2.630   6.266   3.889 -0.2551 -0.2613 -0.2345
 8846TIP3    H148029   2.631   6.345   3.834 -2.7090 -0.9857 -1.4504
 8846TIP3    H248030   2.547   6.270   3.936 -0.0563 -1.7297  0.2841
 8847TIP3   OH248031   1.087   6.341  12.602  0.0731  0.8478  0.5257
 8847TIP3    H148032   1.080   6.352  12.696 -2.3559 -0.5848  0.5877
 8847TIP3    H248033   1.094   6.247  12.588  0.6600  1.0490 -0.7171
 8848TIP3   OH248034   0.890   5.807   2.269  0.1699 -0.0890  0.6497
 8848TIP3    H148035   0.889   5.790   2.175 -0.3027  1.8481  0.2639
 8848TIP3    H248036   0.953   5.878   2.280  0.7640 -0.7645  1.9239
 8849TIP3   OH248037   3.414   3.574   1.621 -0.6744 -0.1108  0.1122
 8849TIP3    H148038   3.424   3.660   1.661 -0.7423  0.5885 -1.3344
 8849TIP3    H248039   3.319   3.557   1.623 -0.5840 -0.5499  1.1752
 8850TIP3   OH248040   1.816   4.920  12.146 -0.4121  0.0383 -0.4099
 8850TIP3    H148041   1.907   4.891  12.152 -0.5674 -0.2305  0.7469
 8850TIP3    H248042   1.792   4.904  12.054  0.9612  0.9063 -0.9534
 8851TIP3   OH248043   3.961   3.800  16.442 -0.2526  0.4569  0.0588
 8851TIP3    H148044   4.049   3.771  16.466 -0.4546 -0.2553 -0.0509
 8851TIP3    H248045   3.947   3.764  16.355 -0.0216  1.9513 -0.6306
 8852TIP3   OH248046   1.645   6.497   4.201 -0.3498  0.6944  0.2006
 8852TIP3    H148047   1.620   6.438   4.272  0.7634  0.9023  0.7834
 8852TIP3    H248048   1.564   6.542   4.177 -0.6678  0.9379  1.6416
 8853TIP3   OH248049   0.210   1.720   4.931  0.2719 -0.2467  0.4707
 8853TIP3    H148050   0.170   1.636   4.956  0.6960 -0.0283  1.9685
 8853TIP3    H248051   0.178   1.782   4.997  0.6715  0.5872 -0.1047
 8854TIP3   OH248052   1.275   5.135  14.989 -0.4930  0.4481  0.1091
 8854TIP3    H148053   1.225   5.188  15.051 -1.4551  0.8494 -0.9758
 8854TIP3    H248054   1.209   5.097  14.931  0.2309 -1.4699  0.4690
 8855TIP3   OH248055   2.721   5.595   4.881 -0.1419  0.0556  0.4813
 8855TIP3    H148056   2.669   5.643   4.817  4.0598  2.6047 -1.4871
 8855TIP3    H248057   2.752   5.518   4.835  1.3185  0.8883 -0.0001
 8856TIP3   OH248058   6.520   2.372  13.430 -0.7577  0.4999  0.7501
 8856TIP3    H148059   6.512   2.345  13.339  1.4905  1.3486  0.2334
 8856TIP3    H248060   6.488   2.462  13.433  1.5652  1.4179  0.1667
 8857TIP3   OH248061   4.395   5.550   3.143 -0.0506 -0.2261 -0.0300
 8857TIP3    H148062   4.341   5.524   3.068 -2.0464  0.3649  1.1142
 8857TIP3    H248063   4.458   5.613   3.108 -1.0300  0.1246 -1.1930
 8858TIP3   OH248064   6.553   1.589  15.985 -0.5287 -0.0246  0.1855
 8858TIP3    H148065   6.647   1.607  15.992  0.0066 -2.9122  1.7506
 8858TIP3    H248066   6.539   1.575  15.892  0.9153 -0.9942  0.0805
 8859TIP3   OH248067   1.616   4.585   6.441 -0.5491 -0.3673  0.3363
 8859TIP3    H148068   1.639   4.492   6.435  1.7679  0.1506 -0.0198
 8859TIP3    H248069   1.587   4.608   6.353 -0.8760 -0.6990  0.3570
 8860TIP3   OH248070   3.489   4.124  13.842  0.2941 -0.1630 -0.3973
 8860TIP3    H148071   3.517   4.123  13.934  1.4333 -0.1357 -0.7255
 8860TIP3    H248072   3.508   4.035  13.811  0.8730  0.1222 -0.8725
 8861TIP3   OH248073   0.255   4.446   5.061 -0.2678  0.4332 -0.1286
 8861TIP3    H148074   0.321   4.469   5.127  1.9886 -1.5422 -1.5434
 8861TIP3    H248075   0.171   4.459   5.106  1.1288  0.3019  2.7538
 8862TIP3   OH248076   1.227   2.074   5.884  0.3759 -0.1325  0.4899
 8862TIP3    H148077   1.239   1.988   5.926 -1.4808 -0.7105 -0.0843
 8862TIP3    H248078   1.259   2.136   5.950  0.0509 -1.1651  1.6794
 8863TIP3   OH248079   2.928   2.024   4.933  0.4137 -0.7615  0.0342
 8863TIP3    H148080   2.963   2.113   4.942 -0.4954 -0.3984  0.1419
 8863TIP3    H248081   3.001   1.967   4.956  0.9399 -0.0350  0.2108
 8864TIP3   OH248082   0.315   3.779  16.843 -0.6951  0.5330  0.3619
 8864TIP3    H148083   0.265   3.831  16.905  0.8164 -0.0317  2.1439
 8864TIP3    H248084   0.302   3.823  16.759  0.8506  4.1543  1.7857
 8865TIP3   OH248085   1.349   5.567   0.988  0.0383 -0.0819 -0.3250
 8865TIP3    H148086   1.355   5.480   0.949 -0.0506  0.1447 -0.8560
 8865TIP3    H248087   1.260   5.596   0.969 -0.6141 -0.6877  1.6111
 8866TIP3   OH248088   6.291   0.494   4.382 -0.3468 -0.0868 -0.0527
 8866TIP3    H148089   6.359   0.484   4.449 -2.1765 -0.3570  1.8794
 8866TIP3    H248090   6.214   0.452   4.420 -2.0965  1.7258 -1.3795
 8867TIP3   OH248091   4.609   3.291  16.033  0.1310 -0.4171 -0.4621
 8867TIP3    H148092   4.607   3.318  16.125  2.3793 -0.1897 -0.4384
 8867TIP3    H248093   4.519   3.264  16.014 -0.2023 -1.2704  2.0337
 8868TIP3   OH248094   4.417   6.600   3.047  0.4876  0.3739 -0.3910
 8868TIP3    H148095   4.423   6.690   3.080  0.3514  0.1354  0.2893
 8868TIP3    H248096   4.368   6.553   3.115  0.4571 -0.1891 -0.8007
 8869TIP3   OH248097   1.271   3.393  16.649  0.2500  0.5697  0.0190
 8869TIP3    H148098   1.310   3.469  16.604 -0.7798  1.5282  0.6942
 8869TIP3    H248099   1.239   3.428  16.732  0.0633 -0.6964  0.5027
 8870TIP3   OH248100   0.108   3.871   4.959 -0.6753 -0.4252  0.5978
 8870TIP3    H148101   0.100   3.941   4.894 -0.6158 -0.9848 -0.0308
 8870TIP3    H248102   0.030   3.817   4.946  0.0730 -1.3971 -0.0683
 8871TIP3   OH248103   4.902   1.167  14.557 -0.0533  0.9441  0.0337
 8871TIP3    H148104   4.909   1.228  14.483 -0.0864 -0.4333 -1.1464
 8871TIP3    H248105   4.812   1.134  14.552  0.9104 -1.6798 -1.4132
 8872TIP3   OH248106   5.425   3.778   4.104 -0.7688 -0.0168 -0.2690
 8872TIP3    H148107   5.339   3.736   4.111 -0.1510 -1.2591  0.3062
 8872TIP3    H248108   5.475   3.719   4.047 -0.1519  0.4283 -0.1917
 8873TIP3   OH248109   5.975   2.232  14.091 -0.0217  0.4173 -0.2138
 8873TIP3    H148110   6.051   2.174  14.099 -0.6657 -0.7708 -2.0084
 8873TIP3    H248111   6.011   2.318  14.070  0.8683  0.1693  0.2695
 8874TIP3   OH248112   3.677   2.199  11.494 -0.2538  0.3145 -0.0734
 8874TIP3    H148113   3.595   2.217  11.450 -0.1871  0.7437 -0.0244
 8874TIP3    H248114   3.733   2.274  11.473  0.8514 -0.9120 -1.8210
 8875TIP3   OH248115   4.599   1.785   4.325  0.2415  0.7854  0.5871
 8875TIP3    H148116   4.655   1.711   4.300 -0.3054 -0.5449  3.0388
 8875TIP3    H248117   4.511   1.748   4.332 -0.4396  2.1722 -0.2128
 8876TIP3   OH248118   0.516   2.298   3.997  0.3109  0.0856 -0.0255
 8876TIP3    H148119   0.584   2.345   4.045  0.4199 -0.2126  0.1077
 8876TIP3    H248120   0.490   2.226   4.055 -0.3663  0.4037  0.0802
 8877TIP3   OH248121   4.515   2.676  16.469  0.0220 -0.2978  0.1408
 8877TIP3    H148122   4.523   2.690  16.563 -3.8428  1.8481  0.3584
 8877TIP3    H248123   4.575   2.739  16.430  0.0809  0.3326  1.2003
 8878TIP3   OH248124   3.786   1.662  14.403  0.5465 -0.2932  0.8339
 8878TIP3    H148125   3.804   1.569  14.387 -1.6770 -0.9213  1.5782
 8878TIP3    H248126   3.707   1.662  14.458  0.3556  2.0577  0.6652
 8879TIP3   OH248127   4.036   6.808   3.853  0.4154  0.3773  0.2681
 8879TIP3    H148128   4.074   6.720   3.845 -0.1580  0.2830 -2.9133
 8879TIP3    H248129   4.108   6.862   3.885  1.5666 -0.8225 -0.1714
 8880TIP3   OH248130   5.025   1.384  12.380  0.5927  0.0511  0.2152
 8880TIP3    H148131   5.026   1.290  12.393  2.1116 -0.1268 -0.9572
 8880TIP3    H248132   5.117   1.409  12.370  0.2151  1.6333  0.3047
 8881TIP3   OH248133   5.661   3.108  17.023 -0.3269  0.2301  0.4345
 8881TIP3    H148134   5.699   3.045  16.961  1.2169  1.4647  0.0560
 8881TIP3    H248135   5.737   3.146  17.067 -1.3661 -0.2237  2.7319
 8882TIP3   OH248136   3.394   0.931  16.679 -0.5222  0.2990 -0.8916
 8882TIP3    H148137   3.456   1.001  16.695 -0.5915  0.1101  0.3369
 8882TIP3    H248138   3.309   0.975  16.672 -0.4065  0.4474 -1.4340
 8883TIP3   OH248139   3.624   3.670  13.150 -0.0181 -0.3338  0.5731
 8883TIP3    H148140   3.573   3.681  13.069  0.6970  0.5527  0.2200
 8883TIP3    H248141   3.559   3.666  13.219 -0.6136 -0.1605  0.0349
 8884TIP3   OH248142   6.367   3.953  12.548  0.0821 -0.1586  0.0001
 8884TIP3    H148143   6.357   3.918  12.637 -1.1774  1.5189  0.5609
 8884TIP3    H248144   6.415   4.035  12.559  0.3553 -0.1803 -0.9411
 8885TIP3   OH248145   3.925   6.805  14.107 -0.0959 -0.2111 -0.8220
 8885TIP3    H148146   4.007   6.827  14.063  0.9168  0.3538  1.2127
 8885TIP3    H248147   3.896   6.887  14.147 -0.7589 -0.7653 -0.1242
 8886TIP3   OH248148   6.547   4.564   3.347 -0.5211 -0.0459 -0.1011
 8886TIP3    H148149   6.604   4.521   3.283  1.1694  0.0430  1.2920
 8886TIP3    H248150   6.482   4.497   3.369 -1.6900  0.1733 -2.4540
 8887TIP3   OH248151   6.325   6.442   0.477 -0.3786 -0.1242  0.2222
 8887TIP3    H148152   6.290   6.495   0.549  1.4043  1.2377  0.1610
 8887TIP3    H248153   6.417   6.468   0.470  0.3040 -2.4344 -0.5837
 8888TIP3   OH248154   3.011   0.646  12.067 -0.8520  0.6850  0.1372
 8888TIP3    H148155   3.008   0.726  12.014  1.0155 -0.0373 -1.1463
 8888TIP3    H248156   3.104   0.633  12.086 -1.3466  0.1282  2.4439
 8889TIP3   OH248157   3.604   0.385  14.241  0.0114 -0.2386 -0.1159
 8889TIP3    H148158   3.538   0.322  14.268 -0.5174  0.2788 -0.1913
 8889TIP3    H248159   3.675   0.332  14.207 -1.1579 -0.7650 -1.8469
 8890TIP3   OH248160   4.972   1.043  17.009 -1.3752 -0.5342 -0.0562
 8890TIP3    H148161   5.023   1.101  16.953 -0.4729 -0.6288  0.6491
 8890TIP3    H248162   4.992   0.955  16.976  1.1470 -0.8029  1.9053
 8891TIP3   OH248163   2.482   1.682  16.859 -0.4259 -0.2436  0.0896
 8891TIP3    H148164   2.550   1.722  16.805 -0.8977  1.1705  0.5141
 8891TIP3    H248165   2.522   1.602  16.894  0.8034  0.2696 -0.1313
 8892TIP3   OH248166   5.208   3.947  17.005 -0.8419 -0.0284 -0.0159
 8892TIP3    H148167   5.197   3.903  17.090 -0.9932 -1.4877 -0.7547
 8892TIP3    H248168   5.122   3.984  16.986 -0.4579  1.5264  1.0801
 8893TIP3   OH248169   5.375   5.026  12.767 -0.1117  0.3612  0.6000
 8893TIP3    H148170   5.284   4.998  12.765  0.1656 -0.6153  0.8891
 8893TIP3    H248171   5.372   5.121  12.756 -1.0919  0.2251 -0.4104
 8894TIP3   OH248172   3.702   6.112   2.844  0.0576 -0.3365 -0.9074
 8894TIP3    H148173   3.671   6.163   2.919  0.5123 -0.5032 -0.5972
 8894TIP3    H248174   3.751   6.039   2.884 -0.5420 -0.9933 -1.3412
 8895TIP3   OH248175   5.712   2.565   5.938  0.3145 -0.1241  0.7179
 8895TIP3    H148176   5.713   2.518   6.022 -2.7496 -0.9967  0.3805
 8895TIP3    H248177   5.715   2.657   5.962 -1.3754 -0.3321  1.9096
 8896TIP3   OH248178   5.783   3.159  16.494 -0.5816  0.3199 -0.3062
 8896TIP3    H148179   5.703   3.127  16.451 -0.8550  1.5161 -0.7477
 8896TIP3    H248180   5.770   3.140  16.587 -1.5941  0.8796 -0.3136
 8897TIP3   OH248181   1.637   5.872  13.879 -0.6875  0.2615 -0.6964
 8897TIP3    H148182   1.552   5.883  13.922 -0.5106  1.1051 -0.5490
 8897TIP3    H248183   1.615   5.857  13.787 -1.0339 -0.6391 -0.4767
 8898TIP3   OH248184   0.984   6.557   4.261  0.1373 -0.5142  0.3444
 8898TIP3    H148185   1.047   6.596   4.322 -1.5246  1.5420  0.8677
 8898TIP3    H248186   1.023   6.569   4.175  1.6978 -1.8343  0.8050
 8899TIP3   OH248187   5.470   3.472  12.643 -0.3604 -0.4578  0.4931
 8899TIP3    H148188   5.480   3.419  12.564 -0.5795 -0.6655  0.6032
 8899TIP3    H248189   5.543   3.534  12.639  1.5761 -2.4893  1.7152
 8900TIP3   OH248190   3.375   5.694  10.952  0.4936 -0.9612 -0.1319
 8900TIP3    H148191   3.286   5.683  10.919  0.0528  1.5605  0.0520
 8900TIP3    H248192   3.374   5.778  10.998  2.9488 -0.9170 -0.0154
 8901TIP3   OH248193   4.143   3.499  10.796 -0.5609  0.4378 -0.2753
 8901TIP3    H148194   4.091   3.554  10.855 -0.4200  0.1021  0.1741
 8901TIP3    H248195   4.192   3.560  10.742 -1.1749  0.7591 -0.4833
 8902TIP3   OH248196   4.482   6.000   3.337 -0.2425 -0.1608 -0.6131
 8902TIP3    H148197   4.575   5.980   3.341 -0.1113  0.3588 -0.9102
 8902TIP3    H248198   4.442   5.921   3.299  0.0576 -0.4318 -0.3700
 8903TIP3   OH248199   2.155   6.627   4.317 -0.4725 -0.5516 -0.1993
 8903TIP3    H148200   2.220   6.639   4.247  0.6260 -2.2149  0.4492
 8903TIP3    H248201   2.134   6.715   4.347 -0.4551  0.1504 -2.1545
 8904TIP3   OH248202   0.445   6.135  10.168 -0.2705  0.1950 -0.6877
 8904TIP3    H148203   0.382   6.170  10.231  0.9148 -0.6702  1.0739
 8904TIP3    H248204   0.439   6.193  10.093 -2.5660  0.6083 -0.2687
 8905TIP3   OH248205   4.717   5.685  15.176 -0.3836 -0.2349 -0.5115
 8905TIP3    H148206   4.642   5.657  15.230  0.3086 -1.9759 -0.3722
 8905TIP3    H248207   4.767   5.743  15.232  0.0548 -1.6245  0.5984
 8906TIP3   OH248208   0.389   1.640   2.450  0.2836  0.0148 -0.5402
 8906TIP3    H148209   0.398   1.558   2.401  0.5466  0.4956 -1.3091
 8906TIP3    H248210   0.478   1.666   2.471  0.1775 -1.6811  2.8225
 8907TIP3   OH248211   4.693   2.937  14.260 -0.1311  0.1849 -0.1503
 8907TIP3    H148212   4.728   3.025  14.250  0.7663 -0.2178 -0.5913
 8907TIP3    H248213   4.632   2.944  14.334 -0.9522  1.4226 -0.9189
 8908TIP3   OH248214   3.604   3.630  13.637  0.0763 -0.5191 -0.2187
 8908TIP3    H148215   3.687   3.668  13.669  0.4978 -0.1306 -1.6814
 8908TIP3    H248216   3.624   3.538  13.623  0.4100 -0.3459 -0.9615
 8909TIP3   OH248217   3.473   1.792   0.366  0.1985 -0.3936  0.1940
 8909TIP3    H148218   3.462   1.723   0.431 -1.0709 -0.3633  0.0432
 8909TIP3    H248219   3.384   1.827   0.353  1.0912  3.6043  2.8359
 8910TIP3   OH248220   0.649   6.726  13.323  0.3272 -0.4318  0.7683
 8910TIP3    H148221   0.675   6.666  13.252 -1.2221 -2.1179  1.5331
 8910TIP3    H248222   0.554   6.737  13.311  0.5623  1.9011  0.6898
 8911TIP3   OH248223   4.679   1.393  13.929 -0.2266  0.5832  0.2535
 8911TIP3    H148224   4.700   1.423  14.017 -0.1239  0.3918  0.2963
 8911TIP3    H248225   4.585   1.411  13.919 -0.4069 -0.0677  0.6818
 8912TIP3   OH248226   6.594   4.100   5.524 -0.4691 -0.1544  0.0721
 8912TIP3    H148227   6.675   4.139   5.493 -0.5497 -1.9718 -2.7938
 8912TIP3    H248228   6.525   4.160   5.496 -0.2947  0.0878  0.1590
 8913TIP3   OH248229   0.768   3.802  12.061  0.0835  0.2048  0.5386
 8913TIP3    H148230   0.795   3.716  12.029 -0.6319  0.3112 -0.4143
 8913TIP3    H248231   0.847   3.855  12.055  0.4003 -0.2440  0.6229
 8914TIP3   OH248232   2.767   2.216   4.688 -0.4987 -0.5762  0.8601
 8914TIP3    H148233   2.857   2.249   4.686  0.6622 -3.3960  2.0736
 8914TIP3    H248234   2.756   2.174   4.603 -0.3124 -1.0959  1.0926
 8915TIP3   OH248235   5.594   5.926  13.707  0.2033  0.6246  0.2033
 8915TIP3    H148236   5.529   5.978  13.753 -0.4299 -0.3477  0.4298
 8915TIP3    H248237   5.668   5.920  13.768 -0.6653 -0.7381  1.1916
 8916TIP3   OH248238   5.372   5.534  16.582 -0.4320  0.3394  0.1737
 8916TIP3    H148239   5.403   5.450  16.616  1.6362  0.6690 -0.7419
 8916TIP3    H248240   5.313   5.510  16.510 -0.4548 -0.3226  0.4041
 8917TIP3   OH248241   2.744   0.931   1.890  0.0767 -0.0416 -0.1720
 8917TIP3    H148242   2.820   0.929   1.948 -0.3618 -0.5756  0.3933
 8917TIP3    H248243   2.683   0.868   1.928 -0.7369  0.5329 -0.5022
 8918TIP3   OH248244   6.325   1.074  15.264 -0.1607  0.3576 -0.2729
 8918TIP3    H148245   6.232   1.093  15.267 -0.2542 -0.1828  0.9527
 8918TIP3    H248246   6.332   0.998  15.205 -0.3962  0.8536 -0.9504
 8919TIP3   OH248247   4.784   3.410  12.859 -0.5599 -0.4110  0.6155
 8919TIP3    H148248   4.785   3.466  12.937 -1.2136 -0.7146  0.8521
 8919TIP3    H248249   4.757   3.467  12.788 -0.2683 -0.2047  0.6707
 8920TIP3   OH248250   2.112   3.772  12.373  0.3860  0.5430  0.7508
 8920TIP3    H148251   2.201   3.753  12.403  0.5924 -0.1615 -0.2403
 8920TIP3    H248252   2.056   3.721  12.432  0.5966  1.3322  1.6539
 8921TIP3   OH248253   2.062   5.660  14.883  0.5537 -0.4348 -0.2256
 8921TIP3    H148254   2.019   5.746  14.884 -0.5692 -0.9760 -0.2035
 8921TIP3    H248255   2.112   5.658  14.965 -0.8141 -0.4606  0.6519
 8922TIP3   OH248256   3.391   4.767  16.564  0.1902 -0.4547 -0.0455
 8922TIP3    H148257   3.352   4.697  16.511  1.6450 -1.2296 -0.1589
 8922TIP3    H248258   3.419   4.833  16.501  0.2444 -0.5102 -0.0787
 8923TIP3   OH248259   4.060   3.164  13.303 -0.4115  0.4085  0.2129
 8923TIP3    H148260   4.023   3.110  13.234 -1.7742 -0.0826  1.2801
 8923TIP3    H248261   4.124   3.219  13.259 -0.3945 -0.7129 -1.2278
 8924TIP3   OH248262   5.233   3.683  13.281  0.3482  0.9344 -0.2929
 8924TIP3    H148263   5.186   3.761  13.250 -0.7693  0.5850  0.4845
 8924TIP3    H248264   5.317   3.688  13.236  0.5497  2.9178  0.2036
 8925TIP3   OH248265   5.176   0.315   4.390  0.2955 -0.2987  0.2919
 8925TIP3    H148266   5.097   0.351   4.350  1.8602  2.9621 -0.1819
 8925TIP3    H248267   5.148   0.293   4.480 -1.0746  1.1942  0.2871
 8926TIP3   OH248268   1.029   0.943  13.233 -0.1669 -0.2876 -0.2006
 8926TIP3    H148269   0.934   0.941  13.225 -0.4334 -0.3102  2.1610
 8926TIP3    H248270   1.047   0.889  13.310  1.5980  1.0061  0.3544
 8927TIP3   OH248271   1.444   2.155  15.076  0.1729 -0.7769  0.1462
 8927TIP3    H148272   1.431   2.071  15.033 -0.1958 -0.4110 -0.4716
 8927TIP3    H248273   1.443   2.135  15.170  2.8975 -1.8877  0.0220
 8928TIP3   OH248274   4.417   1.513   5.742  0.0640 -0.2163 -0.1048
 8928TIP3    H148275   4.342   1.459   5.764 -0.0618 -0.3159 -0.7391
 8928TIP3    H248276   4.379   1.590   5.699  0.3031 -0.0990 -0.1089
 8929TIP3   OH248277   6.214   1.737   0.308 -0.3234  0.4901 -0.4134
 8929TIP3    H148278   6.288   1.794   0.332 -0.3802 -0.0683  1.1937
 8929TIP3    H248279   6.249   1.649   0.318 -0.3723  0.1917 -2.4610
 8930TIP3   OH248280   2.727   1.735  10.895  0.9080  0.3188 -0.3587
 8930TIP3    H148281   2.782   1.729  10.817  1.0038  0.9690 -0.3481
 8930TIP3    H248282   2.679   1.817  10.885  2.0694  1.2119  0.9895
 8931TIP3   OH248283   5.476   2.691  12.046 -0.0244  0.4399 -0.4268
 8931TIP3    H148284   5.540   2.713  11.979  1.0134 -0.7602  0.1312
 8931TIP3    H248285   5.506   2.608  12.082 -1.6463  0.0838  0.1867
 8932TIP3   OH248286   5.816   0.826  16.039 -0.5146 -0.3339 -0.2366
 8932TIP3    H148287   5.791   0.907  15.994  0.7040 -0.4291 -1.1193
 8932TIP3    H248288   5.774   0.832  16.125 -0.5954  1.1515 -0.3624
 8933TIP3   OH248289   3.758   5.127   2.477 -0.2771 -0.2276 -0.3747
 8933TIP3    H148290   3.781   5.130   2.570 -0.3297 -0.1415 -0.3645
 8933TIP3    H248291   3.670   5.163   2.472 -0.4542 -0.6612 -0.4016
 8934TIP3   OH248292   3.841   1.617   1.226 -0.1441  1.0855 -0.0572
 8934TIP3    H148293   3.889   1.656   1.153  1.7070  0.9571  1.0361
 8934TIP3    H248294   3.857   1.675   1.300  1.6358 -0.9877  1.2862
 8935TIP3   OH248295   0.971   0.385   5.397  0.0134  0.2051  0.4392
 8935TIP3    H148296   1.063   0.387   5.424 -0.1814 -2.1266  1.4924
 8935TIP3    H248297   0.922   0.382   5.479 -0.9665  0.1039 -0.1318
 8936TIP3   OH248298   2.846   1.345   5.582  0.2385  0.1157  0.2962
 8936TIP3    H148299   2.801   1.427   5.599 -0.1676  0.1773 -0.9822
 8936TIP3    H248300   2.777   1.278   5.584  0.2033  0.0984 -0.7899
 8937TIP3   OH248301   0.592   4.580   0.908 -0.7137  0.1986 -0.3174
 8937TIP3    H148302   0.607   4.536   0.825 -0.7457  0.2396 -0.3446
 8937TIP3    H248303   0.514   4.634   0.893 -1.7645 -1.0997  0.2342
 8938TIP3   OH248304   5.569   5.060  13.574  0.6076 -0.0900  0.3663
 8938TIP3    H148305   5.657   5.077  13.540  1.4291 -2.2735  1.1797
 8938TIP3    H248306   5.530   5.147  13.584  2.4901  0.9202 -0.4667
 8939TIP3   OH248307   4.007   2.074  17.294  0.0589 -0.1859  0.4937
 8939TIP3    H148308   3.998   2.140  17.225 -0.1699 -1.3595 -0.6439
 8939TIP3    H248309   4.066   2.114  17.358  0.4516  0.8612 -0.4847
 8940TIP3   OH248310   6.307   0.075  11.546 -0.3808  0.2725  0.0329
 8940TIP3    H148311   6.364   0.087  11.622  0.1692 -2.2514  0.1004
 8940TIP3    H248312   6.365   0.083  11.471 -0.5748  0.9107 -0.0557
 8941TIP3   OH248313   6.482   5.580  14.004  0.0330 -0.6841  0.0427
 8941TIP3    H148314   6.533   5.661  14.009  0.7218 -1.0940 -0.3204
 8941TIP3    H248315   6.546   5.512  13.984 -0.6066 -1.2549 -0.0937
 8942TIP3   OH248316   3.815   1.437  15.461  0.3135  0.0195 -0.0916
 8942TIP3    H148317   3.905   1.412  15.479  0.8610  1.0817 -1.2352
 8942TIP3    H248318   3.776   1.359  15.421  0.8953 -0.2574 -0.1249
 8943TIP3   OH248319   1.308   6.509  13.046 -0.4842 -0.7629  0.5580
 8943TIP3    H148320   1.324   6.603  13.048  2.1288 -1.0869 -0.4614
 8943TIP3    H248321   1.342   6.477  13.129  1.4360 -1.0783 -0.2875
 8944TIP3   OH248322   5.893   5.060   1.875 -0.1932  0.3716  0.0458
 8944TIP3    H148323   5.809   5.069   1.829 -0.9967  0.4841  1.4538
 8944TIP3    H248324   5.918   5.151   1.895 -1.3993  0.2665  2.3991
 8945TIP3   OH248325   2.315   1.706  14.340 -0.0687 -0.0992 -0.1081
 8945TIP3    H148326   2.334   1.630  14.395 -1.3401 -0.4202 -0.0958
 8945TIP3    H248327   2.231   1.687  14.300  1.0980 -0.1506 -2.7075
 8946TIP3   OH248328   2.306   6.608   0.122  0.1477  0.7877 -0.0873
 8946TIP3    H148329   2.223   6.593   0.078  1.0265  0.4058 -1.6851
 8946TIP3    H248330   2.368   6.623   0.051  0.9377  3.9600  1.0989
 8947TIP3   OH248331   6.425   0.875   2.007 -0.4151  0.0060  0.5986
 8947TIP3    H148332   6.490   0.944   1.995 -0.2941  0.1897  2.1967
 8947TIP3    H248333   6.460   0.801   1.957 -0.0863  0.7716 -0.3477
 8948TIP3   OH248334   1.100   3.627   2.512  0.2115  0.1960 -0.1536
 8948TIP3    H148335   1.118   3.533   2.512  2.7108  0.5904  0.7451
 8948TIP3    H248336   1.107   3.653   2.420 -0.1069 -0.4165 -0.3548
 8949TIP3   OH248337   0.717   6.036   3.203  0.0235 -1.1236  0.2682
 8949TIP3    H148338   0.663   6.055   3.127 -1.5379 -2.2840  1.0188
 8949TIP3    H248339   0.781   5.972   3.172  2.1733  1.4340 -1.0387
 8950TIP3   OH248340   5.911   6.401  14.266 -0.0565  0.5887 -0.2179
 8950TIP3    H148341   5.924   6.361  14.352 -0.0964 -0.4776 -0.6894
 8950TIP3    H248342   5.881   6.490  14.285 -0.9141  0.0946  0.8778
 8951TIP3   OH248343   3.108   1.848  16.488 -0.8588 -0.3228  0.0833
 8951TIP3    H148344   3.145   1.884  16.569 -1.3507  1.1308 -0.3037
 8951TIP3    H248345   3.165   1.774  16.467  0.1414  0.1521  0.9941
 8952TIP3   OH248346   3.918   2.310   6.002  0.7071  0.1554 -0.1148
 8952TIP3    H148347   3.875   2.224   5.995  1.2323 -0.2360  1.1802
 8952TIP3    H248348   3.940   2.318   6.095 -0.8299  2.4489  0.1128
 8953TIP3   OH248349   2.967   4.419  12.662  0.1427 -0.1859  0.6821
 8953TIP3    H148350   2.915   4.357  12.611  0.2981  1.2085 -1.2833
 8953TIP3    H248351   2.910   4.496  12.672  0.6547  0.1190  1.3777
 8954TIP3   OH248352   1.358   0.264   2.241  0.4194  0.1784  0.3016
 8954TIP3    H148353   1.297   0.207   2.288 -0.4113 -0.3372 -1.3147
 8954TIP3    H248354   1.350   0.237   2.149  1.4720  1.5789 -0.2395
 8955TIP3   OH248355   0.865   4.165  11.981 -0.1104 -0.3114 -0.4186
 8955TIP3    H148356   0.895   4.219  11.907  0.3955 -0.7413 -0.5356
 8955TIP3    H248357   0.802   4.105  11.942  1.0748 -1.3813 -0.7810
 8956TIP3   OH248358   6.569   2.182   5.100 -0.1658 -0.2085 -0.3185
 8956TIP3    H148359   6.507   2.247   5.132  0.3747 -1.0051  2.6754
 8956TIP3    H248360   6.655   2.224   5.109  0.1014 -0.9241  0.6741
 8957TIP3   OH248361   0.209   5.705  13.826 -0.3106 -0.1240 -0.7036
 8957TIP3    H148362   0.193   5.791  13.788 -0.2966  0.3466  0.3038
 8957TIP3    H248363   0.262   5.659  13.762  2.9077  1.9126  0.2355
 8958TIP3   OH248364   0.535   0.772  12.954  0.1123  0.1815 -0.4455
 8958TIP3    H148365   0.498   0.853  12.919  0.4745  0.7035  0.3291
 8958TIP3    H248366   0.468   0.738  13.014  0.4533  0.5729  0.1664
 8959TIP3   OH248367   3.955   3.040   5.670  0.2611 -0.1180 -0.2809
 8959TIP3    H148368   4.006   2.972   5.714  1.3690  0.3297 -0.8500
 8959TIP3    H248369   4.019   3.090   5.620 -0.7265  0.5300 -0.9292
 8960TIP3   OH248370   1.880   5.660  10.940  0.3366  0.1696 -0.2287
 8960TIP3    H148371   1.870   5.567  10.920  0.3829  0.4953 -1.9945
 8960TIP3    H248372   1.947   5.690  10.878 -0.0334  1.4701 -0.0257
 8961TIP3   OH248373   0.380   6.003   3.489 -0.0451 -0.4682 -0.6677
 8961TIP3    H148374   0.327   6.073   3.527 -0.2581 -0.8227 -0.3037
 8961TIP3    H248375   0.365   5.928   3.547 -0.5362 -1.0756 -1.5711
 8962TIP3   OH248376   1.342   2.912   1.350 -0.2212  0.3780 -0.6200
 8962TIP3    H148377   1.395   2.870   1.418  0.4290  0.4638 -1.0545
 8962TIP3    H248378   1.375   2.874   1.268  0.1192  1.4426 -0.9999
 8963TIP3   OH248379   2.037   2.472  12.155  0.1496 -0.1828  0.0338
 8963TIP3    H148380   2.084   2.437  12.080 -1.9336  1.2098 -2.0564
 8963TIP3    H248381   2.046   2.567  12.147 -2.2213  0.1028 -0.0100
 8964TIP3   OH248382   5.429   4.886   2.531 -0.4711  0.3914 -0.4036
 8964TIP3    H148383   5.510   4.834   2.522 -0.0626  0.9089  0.2302
 8964TIP3    H248384   5.460   4.975   2.547 -1.1550  0.3484  1.3281
 8965TIP3   OH248385   0.556   5.872  15.308 -0.1020  0.0944 -0.5682
 8965TIP3    H148386   0.461   5.867  15.315  0.0250 -1.9654  0.4015
 8965TIP3    H248387   0.576   5.839  15.220 -0.2015 -2.1326  0.1710
 8966TIP3   OH248388   3.504   0.940   3.998 -0.0513 -0.3152 -0.0333
 8966TIP3    H148389   3.512   0.977   4.086 -0.9429  1.4717 -0.6448
 8966TIP3    H248390   3.465   0.854   4.012 -0.8966  0.2373  1.2877
 8967TIP3   OH248391   0.258   2.802   2.502 -0.0455  0.2566 -0.0991
 8967TIP3    H148392   0.283   2.878   2.450 -1.5549  1.8263  1.3338
 8967TIP3    H248393   0.339   2.774   2.544  0.7830  0.2329 -1.6483
 8968TIP3   OH248394   0.042   0.118  14.464 -0.1951 -0.3486 -0.6369
 8968TIP3    H148395   0.046   0.137  14.370  0.9630 -0.1710 -0.5721
 8968TIP3    H248396   0.010   0.028  14.469 -2.2360  0.3061 -1.0929
 8969TIP3   OH248397   4.686   3.394   4.669 -0.6250  0.3196 -0.1185
 8969TIP3    H148398   4.633   3.441   4.604 -0.4913  1.1591  0.3629
 8969TIP3    H248399   4.697   3.457   4.741  0.6515  0.0248 -0.0252
 8970TIP3   OH248400   1.593   3.625  14.514  0.1684 -0.0488 -0.6358
 8970TIP3    H148401   1.526   3.629  14.446 -1.5722  1.0053  1.0461
 8970TIP3    H248402   1.594   3.533  14.542  0.4434 -0.3525 -1.5960
 8971TIP3   OH248403   0.170   1.728   0.379 -0.1053 -0.0472  0.5695
 8971TIP3    H148404   0.168   1.646   0.330 -0.2464 -0.6773  1.6010
 8971TIP3    H248405   0.190   1.702   0.469 -1.0607  0.9529  1.0947
 8972TIP3   OH248406   4.608   1.422   5.978  0.2585  0.7258 -0.0377
 8972TIP3    H148407   4.603   1.479   5.901 -1.8099  0.2482 -0.2918
 8972TIP3    H248408   4.586   1.479   6.051 -1.2395  0.4041 -0.2247
 8973TIP3   OH248409   3.406   2.794  17.245  0.2409 -0.5092 -0.1340
 8973TIP3    H148410   3.326   2.811  17.195 -0.8327 -1.6196  1.1056
 8973TIP3    H248411   3.467   2.861  17.216 -1.4769  1.0383 -0.3648
 8974TIP3   OH248412   3.417   3.061  16.563  0.9077 -0.6495  0.2776
 8974TIP3    H148413   3.399   3.150  16.530  2.3560  0.4345  2.2470
 8974TIP3    H248414   3.333   3.015  16.553  0.8837 -0.1053 -3.6568
 8975TIP3   OH248415   2.497   1.272  13.784  0.4619  0.3290  0.2149
 8975TIP3    H148416   2.510   1.354  13.832  0.5405 -0.1945  1.0926
 8975TIP3    H248417   2.432   1.295  13.717  0.0913  0.9867  0.7800
 8976TIP3   OH248418   3.673   3.127   5.335  0.1972 -0.2002 -0.1402
 8976TIP3    H148419   3.735   3.194   5.364  1.0254 -0.7189 -0.6659
 8976TIP3    H248420   3.648   3.080   5.415 -1.0202  1.2200  0.3580
 8977TIP3   OH248421   5.867   6.654   2.451  0.4960  0.1364 -0.3101
 8977TIP3    H148422   5.853   6.707   2.373  1.6619 -0.7973 -1.1787
 8977TIP3    H248423   5.921   6.710   2.508  0.4763  0.4470 -0.5915
 8978TIP3   OH248424   4.466   0.345  14.090  0.4299  0.0023 -0.3331
 8978TIP3    H148425   4.462   0.360  13.995  0.1450  0.7872 -0.2026
 8978TIP3    H248426   4.376   0.331  14.116  0.3482  1.1546  0.0306
 8979TIP3   OH248427   4.925   1.946   3.670  0.0526 -0.1377  0.1214
 8979TIP3    H148428   4.913   1.985   3.757 -0.1395  1.5655 -0.6259
 8979TIP3    H248429   4.838   1.948   3.630  0.3500  0.1757 -0.5274
 8980TIP3   OH248430   4.482   6.645  13.262 -0.0139 -0.0987  0.1456
 8980TIP3    H148431   4.552   6.632  13.198 -0.2506 -0.0350 -0.1258
 8980TIP3    H248432   4.518   6.710  13.323 -0.0803  0.4296 -0.3672
 8981TIP3   OH248433   4.566   3.360  16.289  0.1682  0.1686 -0.2388
 8981TIP3    H148434   4.527   3.445  16.265  1.4179  0.7319 -0.3840
 8981TIP3    H248435   4.516   3.331  16.364 -0.3548  0.9977 -0.2491
 8982TIP3   OH248436   4.606   1.337   5.648  0.3351  0.1643  0.1241
 8982TIP3    H148437   4.550   1.402   5.689  2.0633  0.7534  1.6844
 8982TIP3    H248438   4.617   1.368   5.558  0.1128  1.3494  0.4902
 8983TIP3   OH248439   1.139   0.976   1.016  0.4380  0.3497 -0.2828
 8983TIP3    H148440   1.169   1.065   0.999  1.4934 -0.0819 -0.7785
 8983TIP3    H248441   1.215   0.932   1.053  0.4567 -0.7777 -1.5772
 8984TIP3   OH248442   5.780   0.511   5.654  0.1386  0.0495  0.7842
 8984TIP3    H148443   5.822   0.578   5.601  0.6823 -0.5722  0.4091
 8984TIP3    H248444   5.737   0.559   5.724  0.7240  0.7689  0.6618
 8985TIP3   OH248445   5.306   1.491  12.225  0.1715  0.0400  0.4726
 8985TIP3    H148446   5.398   1.465  12.234  0.3122  0.4945  0.3627
 8985TIP3    H248447   5.295   1.510  12.132 -0.3131 -1.0177  0.2875
 8986TIP3   OH248448   2.645   3.612   4.912  0.0335 -0.1003 -0.4263
 8986TIP3    H148449   2.669   3.678   4.977 -1.5908  0.5889 -0.4753
 8986TIP3    H248450   2.640   3.661   4.829  1.4896 -0.8504 -0.9917
 8987TIP3   OH248451   2.633   2.300  13.001 -0.5073  0.4503  0.0607
 8987TIP3    H148452   2.714   2.341  12.971 -0.8614  2.4991  1.6985
 8987TIP3    H248453   2.651   2.206  12.995  1.8346  0.8290 -0.0307
 8988TIP3   OH248454   2.372   1.535  13.863 -0.3417  0.1209 -0.2993
 8988TIP3    H148455   2.311   1.479  13.910 -1.1594 -0.2321 -1.7401
 8988TIP3    H248456   2.376   1.615  13.915  0.5040 -1.0596  1.5425
 8989TIP3   OH248457   3.447   5.148  17.314 -0.4360 -0.1546  0.1838
 8989TIP3    H148458   3.433   5.233  17.273  1.5638  1.0490  1.8561
 8989TIP3    H248459   3.377   5.140  17.378  0.6090  1.3301  1.6026
 8990TIP3   OH248460   5.088   4.504  13.489 -0.8153  0.1055  0.0866
 8990TIP3    H148461   5.035   4.508  13.569 -0.1719  0.4453  0.5044
 8990TIP3    H248462   5.034   4.546  13.422 -0.4831  1.8368  0.8591
 8991TIP3   OH248463   3.609   0.265  13.925 -0.0553 -0.4033  0.0598
 8991TIP3    H148464   3.641   0.175  13.929  0.7158 -0.1615 -0.3373
 8991TIP3    H248465   3.526   0.260  13.878 -0.4134 -1.0015  0.7360
 8992TIP3   OH248466   6.080   4.069  12.914 -0.1567  0.1096 -0.1626
 8992TIP3    H148467   6.010   4.003  12.910 -0.6186  0.5624  0.3228
 8992TIP3    H248468   6.161   4.018  12.919 -0.4664 -0.4205 -0.4419
 8993TIP3   OH248469   5.311   5.635  13.197  0.0678 -0.1822 -0.1932
 8993TIP3    H148470   5.225   5.604  13.226  0.3532  1.0436  2.1929
 8993TIP3    H248471   5.365   5.632  13.276  1.7575  0.6742 -1.2705
 8994TIP3   OH248472   2.746   4.466   0.993 -0.4029  0.0144 -0.2103
 8994TIP3    H148473   2.774   4.552   1.023 -1.7594  1.0950 -1.8218
 8994TIP3    H248474   2.675   4.484   0.931  0.0498 -2.2021 -1.5042
 8995TIP3   OH248475   1.249   0.545   2.959  0.0259 -0.3219 -0.5017
 8995TIP3    H148476   1.182   0.497   2.911 -1.5373  1.5522 -0.3369
 8995TIP3    H248477   1.201   0.617   3.001  1.9321  0.2710  0.7993
 8996TIP3   OH248478   0.360   2.196  15.708 -0.1624 -0.1704 -0.1934
 8996TIP3    H148479   0.421   2.129  15.677 -0.0176 -0.0868 -0.0949
 8996TIP3    H248480   0.293   2.147  15.756  0.8587 -0.1283  1.3735
 8997TIP3   OH248481   4.615   0.075   5.943 -0.1654 -0.1210 -0.1476
 8997TIP3    H148482   4.553   0.033   5.883 -0.5230  0.8507 -0.4884
 8997TIP3    H248483   4.571   0.075   6.028  0.8362 -2.6004  0.4476
 8998TIP3   OH248484   1.106   6.053   0.614  0.8684  0.3061  0.5575
 8998TIP3    H148485   1.191   6.048   0.657  0.5735  1.2162  1.2770
 8998TIP3    H248486   1.100   6.144   0.584  0.2468  0.1909  0.3190
 8999TIP3   OH248487   1.756   2.863   1.772 -0.1566 -0.0325 -0.3160
 8999TIP3    H148488   1.684   2.803   1.794 -0.5131  0.4477 -0.1596
 8999TIP3    H248489   1.736   2.893   1.684  0.9768 -1.5223 -1.1121
 9000TIP3   OH248490   0.352   0.005  13.319  0.3933  0.3915  0.4064
 9000TIP3    H148491   0.281   0.032  13.261  1.1595  0.9361 -0.3029
 9000TIP3    H248492   0.320  -0.076  13.360  0.5187 -1.0304 -2.1254
 9001TIP3   OH248493   0.780   1.797  11.307  0.7770  0.0641  0.1689
 9001TIP3    H148494   0.713   1.751  11.256 -0.1573  0.0892  1.3375
 9001TIP3    H248495   0.856   1.800  11.249 -0.3979  0.5276 -1.4147
 9002TIP3   OH248496   1.733   5.987  10.797  0.6301  0.1366 -0.2260
 9002TIP3    H148497   1.690   5.932  10.733  1.3060 -0.3421 -0.2843
 9002TIP3    H248498   1.700   6.076  10.780 -1.4185 -0.3965  0.6692
 9003TIP3   OH248499   1.946   4.050  14.653  0.4654  0.2506 -0.7165
 9003TIP3    H148500   2.014   4.054  14.585  0.2816  1.1412 -0.8616
 9003TIP3    H248501   1.895   3.972  14.631  1.5009 -0.4880 -0.5421
 9004TIP3   OH248502   3.677   2.024   0.354 -0.6778 -0.0791 -0.2570
 9004TIP3    H148503   3.706   2.115   0.354 -1.5920  0.2252 -1.0703
 9004TIP3    H248504   3.648   2.008   0.443 -0.6171  0.4673 -0.1354
 9005TIP3   OH248505   1.740   3.823   2.419  0.4075  0.7746  0.0034
 9005TIP3    H148506   1.834   3.822   2.399  0.5490 -0.4627  0.6239
 9005TIP3    H248507   1.713   3.913   2.402  1.5041  0.9323 -1.0964
 9006TIP3   OH248508   5.927   6.481  13.739 -0.3752  0.2616  0.2307
 9006TIP3    H148509   5.892   6.396  13.764 -0.3096 -0.9773 -3.3364
 9006TIP3    H248510   6.020   6.465  13.721  0.5253  1.9490  2.6743
 9007TIP3   OH248511   0.932   4.526   4.230 -0.2785 -0.5953 -0.3151
 9007TIP3    H148512   0.855   4.545   4.176  1.6448  0.1109 -3.0487
 9007TIP3    H248513   1.001   4.506   4.167  2.2742  0.6007  1.8779
 9008TIP3   OH248514   1.087   2.904  11.745  0.1218  0.2367  0.7551
 9008TIP3    H148515   1.024   2.832  11.746  0.9391 -0.5043  2.1179
 9008TIP3    H248516   1.135   2.893  11.663  0.5281 -1.0460  1.1531
 9009TIP3   OH248517   0.020   0.151  13.678  0.1756  0.1383 -0.2620
 9009TIP3    H148518  -0.059   0.202  13.661  0.3727  0.0064 -1.7457
 9009TIP3    H248519   0.090   0.201  13.635  0.5501 -0.8129 -0.7789
 9010TIP3   OH248520   2.024   1.943   3.032  0.4521 -0.1276  0.5279
 9010TIP3    H148521   1.990   1.870   3.083 -0.6253  0.8583  1.2858
 9010TIP3    H248522   1.970   1.945   2.952  2.3377 -1.8599 -0.8811
 9011TIP3   OH248523   4.907   6.436   3.986 -0.2901 -0.3258 -0.1400
 9011TIP3    H148524   4.842   6.452   3.917 -0.2055 -1.3107 -0.4517
 9011TIP3    H248525   4.881   6.352   4.025 -0.9868  0.6884  1.7710
 9012TIP3   OH248526   2.293   6.758   5.044 -0.5220 -0.1121  0.0025
 9012TIP3    H148527   2.328   6.837   5.084  0.3891 -1.3200  1.6971
 9012TIP3    H248528   2.202   6.755   5.074 -0.3485 -0.0799  0.5471
 9013TIP3   OH248529   4.116   0.813  16.663 -0.4816  0.1569  0.0400
 9013TIP3    H148530   4.035   0.764  16.650 -0.4568 -0.0513  0.6447
 9013TIP3    H248531   4.185   0.748  16.649 -0.4023  0.4011 -0.7706
 9014TIP3   OH248532   2.700   3.172   2.563 -0.0162  0.1146 -0.3550
 9014TIP3    H148533   2.792   3.156   2.542  0.9258  1.1554  2.5001
 9014TIP3    H248534   2.678   3.250   2.512  0.8897  0.2312 -0.5896
 9015TIP3   OH248535   4.787   0.132   0.040 -0.4046 -0.3625 -0.0093
 9015TIP3    H148536   4.774   0.053  -0.012  0.5736  0.0172 -0.8760
 9015TIP3    H248537   4.699   0.166   0.055 -0.8404 -1.6798  0.4991
 9016TIP3   OH248538   3.236   4.974  13.019  0.0372 -0.2469  0.1879
 9016TIP3    H148539   3.159   4.924  12.992  1.0045  0.2359 -4.0770
 9016TIP3    H248540   3.309   4.913  13.011  0.7699  0.8040 -1.5148
 9017TIP3   OH248541   3.253   1.945  16.056 -1.5327 -0.7131 -0.3443
 9017TIP3    H148542   3.336   1.963  16.101 -2.2939 -1.9644  1.6587
 9017TIP3    H248543   3.278   1.895  15.979 -0.4766 -2.2447  0.9312
 9018TIP3   OH248544   4.806   5.617   2.321  0.8429 -0.1118 -0.1386
 9018TIP3    H148545   4.835   5.707   2.310 -0.9957  0.7174  1.1184
 9018TIP3    H248546   4.806   5.603   2.416  1.9077 -1.7644 -0.3333
 9019TIP3   OH248547   6.589   5.639  16.144  0.7744  0.0330 -0.3800
 9019TIP3    H148548   6.656   5.640  16.212  0.7791 -0.4877 -0.3722
 9019TIP3    H248549   6.510   5.671  16.188  0.7334 -0.4717 -0.0816
 9020TIP3   OH248550   0.207   6.006   1.755  0.3964  0.4711 -0.0661
 9020TIP3    H148551   0.136   5.974   1.700  0.3143 -0.1791  0.4014
 9020TIP3    H248552   0.268   6.048   1.694 -0.2842  0.8549 -0.4908
 9021TIP3   OH248553   4.066   6.167   1.523 -0.3417  0.1418 -0.0389
 9021TIP3    H148554   4.088   6.095   1.464 -0.7198  0.0706 -0.0962
 9021TIP3    H248555   3.986   6.137   1.568  0.5404 -0.2744  1.3047
 9022TIP3   OH248556   1.824   4.995   5.505  0.3567  0.2032 -0.3987
 9022TIP3    H148557   1.886   4.947   5.560  0.7778 -0.9295 -1.7861
 9022TIP3    H248558   1.821   4.944   5.423 -1.4362  0.9373 -0.8349
 9023TIP3   OH248559   4.996   5.790   1.848  0.2875  0.5668  0.0486
 9023TIP3    H148560   4.952   5.845   1.783  1.1538  2.1619  0.7697
 9023TIP3    H248561   4.939   5.792   1.924  0.2991  0.4172  0.0625
 9024TIP3   OH248562   4.591   4.879   3.898 -0.5682 -0.0857 -0.6617
 9024TIP3    H148563   4.563   4.929   3.821  1.2662  1.9135 -0.1243
 9024TIP3    H248564   4.511   4.838   3.931 -2.1403  2.3403 -1.2724
 9025TIP3   OH248565   0.361   0.030   5.356 -0.6263  0.5996  0.6408
 9025TIP3    H148566   0.375   0.030   5.451  1.3577 -2.5160  0.4762
 9025TIP3    H248567   0.308  -0.048   5.339 -0.6488  0.9168 -0.8692
 9026TIP3   OH248568   0.095   1.207   6.411 -0.3527  0.7972 -0.0950
 9026TIP3    H148569   0.053   1.199   6.497  0.2403 -0.4369  0.1042
 9026TIP3    H248570   0.045   1.147   6.355 -0.0933  0.8246 -0.3548
 9027TIP3   OH248571   2.496   5.856  12.969 -0.0171  0.4705 -0.2258
 9027TIP3    H148572   2.535   5.778  13.008 -0.2956 -0.0890 -1.0356
 9027TIP3    H248573   2.563   5.923  12.978  1.3973 -0.5833 -2.0283
 9028TIP3   OH248574   3.390   1.237  12.467 -0.2278  0.1941 -0.0369
 9028TIP3    H148575   3.381   1.315  12.413 -0.5756 -1.3676 -2.3993
 9028TIP3    H248576   3.357   1.263  12.553 -0.9862  2.4319 -0.9380
 9029TIP3   OH248577   4.112   1.295  13.935 -0.4094  0.1045 -0.0250
 9029TIP3    H148578   4.102   1.310  13.841 -0.3988  0.9811  0.1060
 9029TIP3    H248579   4.181   1.228  13.942 -0.8081 -0.3777 -0.6500
 9030TIP3   OH248580   2.327   1.025  12.514  0.1790  0.1095 -0.0776
 9030TIP3    H148581   2.395   1.060  12.456  0.0916  0.5157  0.0555
 9030TIP3    H248582   2.353   0.935  12.532  1.2026  0.5518  0.7450
 9031TIP3   OH248583   4.322   0.766   0.504 -0.1092  0.0238  0.5244
 9031TIP3    H148584   4.247   0.720   0.541  1.5972 -2.5458  1.0043
 9031TIP3    H248585   4.311   0.757   0.409 -0.4162 -0.3548  0.5951
 9032TIP3   OH248586   4.603   4.276  16.600 -0.0144 -0.0711 -0.4927
 9032TIP3    H148587   4.614   4.213  16.529 -0.5035 -0.2710 -0.3978
 9032TIP3    H248588   4.640   4.358  16.566 -0.1939 -0.1797 -0.9583
 9033TIP3   OH248589   5.348   3.924  16.126  0.4335  0.4981  0.1926
 9033TIP3    H148590   5.429   3.888  16.090  1.5704  0.6415  2.4013
 9033TIP3    H248591   5.303   3.848  16.163  0.3687  0.6378  0.4018
 9034TIP3   OH248592   0.979   2.387  10.904  0.1305  0.3407 -0.3037
 9034TIP3    H148593   1.040   2.432  10.963 -0.7320  0.4268  0.5357
 9034TIP3    H248594   0.892   2.413  10.934 -0.3425  0.9694 -2.0533
 9035TIP3   OH248595   1.023   0.667  12.145 -0.1536 -0.5782 -0.2974
 9035TIP3    H148596   0.942   0.619  12.128  0.1189 -0.7752 -1.1061
 9035TIP3    H248597   1.016   0.746  12.090 -1.1998  1.0536  2.0046
 9036TIP3   OH248598   4.156   0.060   4.375  0.2138  0.7260 -0.2530
 9036TIP3    H148599   4.144   0.008   4.454  2.7008 -1.9160 -1.4477
 9036TIP3    H248600   4.097   0.022   4.311  0.5285  0.7300 -0.5520
 9037TIP3   OH248601   6.615   5.006  16.173 -0.3094  0.6076  0.0751
 9037TIP3    H148602   6.571   4.932  16.131 -0.6067  0.1907  1.0919
 9037TIP3    H248603   6.706   5.000  16.142 -0.1337 -0.6674  0.7413
 9038TIP3   OH248604   4.838   3.858  14.646  0.1780 -0.1731  0.0374
 9038TIP3    H148605   4.764   3.906  14.608 -0.3133  1.7154  3.0096
 9038TIP3    H248606   4.797   3.786  14.694  0.5382 -0.8737 -0.7018
 9039TIP3   OH248607   1.359   5.126   5.315 -0.1270  0.0205 -0.1785
 9039TIP3    H148608   1.399   5.212   5.304  1.8126 -0.6047  1.4204
 9039TIP3    H248609   1.407   5.068   5.256 -0.6347 -0.1934 -0.3889
 9040TIP3   OH248610   1.826   6.498  12.402 -0.2422  0.3213  0.2423
 9040TIP3    H148611   1.741   6.535  12.429  0.1633  1.4452  0.0375
 9040TIP3    H248612   1.822   6.497  12.306 -0.4836 -0.7592  0.2581
 9041TIP3   OH248613   0.518   4.532  13.731 -0.2331  0.4620 -0.0896
 9041TIP3    H148614   0.581   4.522  13.802  0.3789 -1.0313 -0.8060
 9041TIP3    H248615   0.447   4.471  13.753 -0.4211  0.5809 -0.3606
 9042TIP3   OH248616   5.545   6.801  16.839  0.3283  0.1535  0.6635
 9042TIP3    H148617   5.631   6.827  16.806  0.6947 -2.0908 -0.3921
 9042TIP3    H248618   5.488   6.876  16.821  1.4533  0.6103 -1.2969
 9043TIP3   OH248619   1.742   2.552   1.707 -0.5562 -0.1852  0.1345
 9043TIP3    H148620   1.712   2.543   1.617  1.1519  2.0206 -0.7526
 9043TIP3    H248621   1.837   2.540   1.702 -0.3617  0.5401  1.5237
 9044TIP3   OH248622   0.106   6.598  14.129 -0.1681 -0.3771 -0.5070
 9044TIP3    H148623   0.151   6.599  14.044  1.1324 -1.3891  0.1456
 9044TIP3    H248624   0.176   6.601  14.194 -1.0074 -2.1118  0.5559
 9045TIP3   OH248625   3.947   1.310  10.790 -0.2814  0.3687 -0.7249
 9045TIP3    H148626   3.916   1.401  10.783 -0.7769  0.1680 -1.2848
 9045TIP3    H248627   3.995   1.307  10.872 -0.9072  0.9604 -0.3209
 9046TIP3   OH248628   2.491   2.672   3.651 -0.3411 -0.0728 -0.3053
 9046TIP3    H148629   2.445   2.756   3.656  1.9391  1.2149  3.6317
 9046TIP3    H248630   2.424   2.606   3.667 -1.3484  1.6135  3.7121
 9047TIP3   OH248631   3.511   2.914   2.674 -0.3104 -0.5806 -0.3086
 9047TIP3    H148632   3.497   2.855   2.600 -0.3422  0.3564 -1.0706
 9047TIP3    H248633   3.433   2.970   2.676  0.3870  0.4378 -0.5692
 9048TIP3   OH248634   6.733   2.278   1.820  0.0815 -0.2306 -0.2504
 9048TIP3    H148635   6.659   2.334   1.796  0.9143  1.1125  0.2280
 9048TIP3    H248636   6.696   2.216   1.883 -0.3930  1.2265  0.9583
 9049TIP3   OH248637   4.046   1.694  14.534 -0.6440 -0.1576 -0.3395
 9049TIP3    H148638   4.049   1.614  14.482 -1.4607  0.0796 -0.7702
 9049TIP3    H248639   3.972   1.743  14.499  0.3230  1.1659 -0.6361
 9050TIP3   OH248640   3.771   1.045   5.665 -0.5767  0.0123  0.2617
 9050TIP3    H148641   3.844   1.095   5.629  0.4304 -1.2305  0.5142
 9050TIP3    H248642   3.693   1.084   5.625  0.3398  0.2067 -1.4302
 9051TIP3   OH248643   0.181   4.360   5.595  0.1661  0.0589  0.8402
 9051TIP3    H148644   0.271   4.327   5.590 -0.1796 -0.8564  0.3051
 9051TIP3    H248645   0.141   4.312   5.668 -0.1755 -0.3179  0.4189
 9052TIP3   OH248646   0.068   1.613  14.813  0.2301 -0.2484 -0.4775
 9052TIP3    H148647   0.008   1.580  14.746 -1.2704 -1.7770  1.4866
 9052TIP3    H248648   0.019   1.683  14.857  1.3313  0.9797 -1.1253
 9053TIP3   OH248649   2.191   6.651   5.376  0.0646 -0.3839 -0.2848
 9053TIP3    H148650   2.224   6.674   5.462 -0.2274 -1.4988  0.1381
 9053TIP3    H248651   2.264   6.608   5.332  0.0324 -0.3384 -0.3848
 9054TIP3   OH248652   0.691   3.387   1.106  0.2429  0.2772  0.0912
 9054TIP3    H148653   0.630   3.433   1.049 -0.4374  0.3534  0.8663
 9054TIP3    H248654   0.751   3.342   1.045 -0.4663  0.3417 -0.6814
 9055TIP3   OH248655   5.594   4.032  15.201 -0.1806 -0.0057 -0.2911
 9055TIP3    H148656   5.671   4.080  15.172  1.2763 -2.2041 -0.3202
 9055TIP3    H248657   5.547   4.094  15.257  1.4627  1.4799 -0.4597
 9056TIP3   OH248658   2.178   5.957   2.917  0.4854  0.3009 -0.4568
 9056TIP3    H148659   2.267   5.988   2.935  0.6611  1.3006 -2.7195
 9056TIP3    H248660   2.190   5.886   2.854 -0.2243 -1.1751  1.0158
 9057TIP3   OH248661   3.460   1.264  15.105  0.3427 -0.4471 -0.4117
 9057TIP3    H148662   3.383   1.306  15.066 -0.3602  0.3958  1.7149
 9057TIP3    H248663   3.444   1.170  15.093  0.6441 -0.2603 -2.8970
 9058TIP3   OH248664   5.691   4.508  13.780  0.4237  0.1431  0.0349
 9058TIP3    H148665   5.710   4.416  13.759  1.4786  0.6627 -1.4558
 9058TIP3    H248666   5.737   4.558  13.713 -1.7054  1.7216 -0.3452
 9059TIP3   OH248667   3.077   0.595  17.186 -0.1258  0.2149 -0.2538
 9059TIP3    H148668   3.056   0.669  17.128  1.0961  0.0488 -0.9472
 9059TIP3    H248669   3.018   0.525  17.158 -0.1654  0.4230 -0.6990
 9060TIP3   OH248670   0.705   4.771  13.938 -0.1094 -0.4097 -0.0070
 9060TIP3    H148671   0.698   4.792  14.031 -1.2260 -0.1205 -0.1381
 9060TIP3    H248672   0.799   4.776  13.919 -0.0497  1.9238  0.5846
 9061TIP3   OH248673   3.695   1.813  17.149 -0.2495  0.3805 -0.2049
 9061TIP3    H148674   3.665   1.723  17.135 -1.0073  0.6889 -0.6111
 9061TIP3    H248675   3.710   1.848  17.062  2.4285 -0.0941 -0.0301
 9062TIP3   OH248676   1.482   3.698   0.195 -0.1363  0.1170  0.1782
 9062TIP3    H148677   1.430   3.728   0.120  0.5167 -0.4904 -0.5435
 9062TIP3    H248678   1.572   3.724   0.173  0.1244 -0.4551  0.5417
 9063TIP3   OH248679   4.146   0.507   1.245 -0.0001  0.4287 -0.4818
 9063TIP3    H148680   4.064   0.513   1.195 -0.0754  0.0484 -0.4085
 9063TIP3    H248681   4.119   0.473   1.330  0.4701 -1.8474 -1.1537
 9064TIP3   OH248682   6.799   3.997  13.597 -0.4622  0.0288 -0.1302
 9064TIP3    H148683   6.764   3.921  13.551 -1.8188  1.3594 -1.4107
 9064TIP3    H248684   6.880   4.019  13.549 -1.0126  0.4340 -0.8959
 9065TIP3   OH248685   1.390   0.058  11.720 -0.1843 -0.5347 -0.6141
 9065TIP3    H148686   1.301   0.081  11.692 -0.8192 -2.0663  0.0116
 9065TIP3    H248687   1.423   0.138  11.761 -1.4706 -0.0789 -0.4022
 9066TIP3   OH248688   2.123   0.046  11.304  0.2149 -0.0428  0.1867
 9066TIP3    H148689   2.193   0.014  11.248 -0.3866 -0.7277 -0.1993
 9066TIP3    H248690   2.108   0.136  11.275 -0.6614 -0.6543 -1.3636
 9067TIP3   OH248691   2.868   3.401   4.261 -0.2296 -0.5004  0.0414
 9067TIP3    H148692   2.825   3.368   4.182 -0.5473  1.6925 -0.7720
 9067TIP3    H248693   2.808   3.467   4.296  0.4067 -0.6627  1.5194
 9068TIP3   OH248694   6.195   3.203  15.085  0.4074  0.1781  0.2372
 9068TIP3    H148695   6.156   3.247  15.161 -0.5076  0.3488 -0.3296
 9068TIP3    H248696   6.237   3.126  15.122 -2.7702 -1.5455  0.5888
 9069TIP3   OH248697   5.800   1.090   4.484  0.2268 -0.7251  0.3394
 9069TIP3    H148698   5.731   1.024   4.499 -3.1719  2.2420 -0.7431
 9069TIP3    H248699   5.798   1.145   4.562  1.1824 -0.3946  0.1429
 9070TIP3   OH248700   4.371   4.923   5.011  0.2777 -0.6313  0.8104
 9070TIP3    H148701   4.464   4.941   5.020  0.5242 -2.0309  1.3272
 9070TIP3    H248702   4.328   4.987   5.068  0.8489  0.4606  0.0513
 9071TIP3   OH248703   2.915   3.191   4.823 -0.4658  0.5733  0.1494
 9071TIP3    H148704   2.999   3.171   4.864 -0.3494 -1.1332 -0.7972
 9071TIP3    H248705   2.935   3.259   4.759 -0.6775  3.3690  2.8293
 9072TIP3   OH248706   6.079   2.981  12.195  0.2421 -0.1532 -0.4912
 9072TIP3    H148707   6.077   3.066  12.150 -1.4932  0.0155 -0.1698
 9072TIP3    H248708   5.987   2.954  12.199  0.5561 -1.0935  1.1982
 9073TIP3   OH248709   0.517   6.038   6.411  0.3651 -0.1941  1.0666
 9073TIP3    H148710   0.548   6.101   6.476  1.6126  0.5986 -0.2157
 9073TIP3    H248711   0.423   6.054   6.403  0.5111  0.9062  1.4170
 9074TIP3   OH248712   5.213   2.294  11.520 -0.0361 -0.1887 -0.3435
 9074TIP3    H148713   5.163   2.374  11.535  0.1352  0.4650 -2.8544
 9074TIP3    H248714   5.203   2.244  11.601 -1.9653  1.3911  0.4725
 9075TIP3   OH248715   1.946   1.209  15.868 -0.2499  0.4184 -0.1031
 9075TIP3    H148716   2.030   1.211  15.914  0.0400 -1.4925 -0.4765
 9075TIP3    H248717   1.898   1.137  15.909 -1.1998  0.6487 -0.7786
 9076TIP3   OH248718   2.220   6.419  16.639 -0.5202  0.2315 -0.1706
 9076TIP3    H148719   2.263   6.497  16.603  0.3357 -0.0394  0.2418
 9076TIP3    H248720   2.258   6.346  16.590  0.5084 -0.1235  1.1097
 9077TIP3   OH248721   0.372   4.170   4.181  0.6824  0.5095 -0.4290
 9077TIP3    H148722   0.400   4.260   4.198  0.3827  0.3304  1.1582
 9077TIP3    H248723   0.339   4.172   4.091  1.5877  1.7488 -0.7623
 9078TIP3   OH248724   0.723   1.955  14.210 -0.0058  0.3131  0.1780
 9078TIP3    H148725   0.668   1.993  14.141  0.3979  1.2861  0.3744
 9078TIP3    H248726   0.782   2.026  14.235  0.0919 -0.1426  1.2838
 9079TIP3   OH248727   1.796   2.389   1.222  0.0407  0.1323  0.0691
 9079TIP3    H148728   1.742   2.353   1.151 -0.6707  0.1990  0.5681
 9079TIP3    H248729   1.733   2.412   1.290  0.3807  2.8057 -0.4078
 9080TIP3   OH248730   2.913   3.701  16.637  0.3393 -0.3489 -0.3946
 9080TIP3    H148731   2.846   3.677  16.573  2.8233 -1.2809 -2.8886
 9080TIP3    H248732   2.909   3.796  16.643 -0.9607 -0.3709 -0.7487
 9081TIP3   OH248733   5.029   1.780  16.547  0.3705  0.0752 -0.3489
 9081TIP3    H148734   5.066   1.821  16.469 -1.0395 -0.2085 -1.1949
 9081TIP3    H248735   5.092   1.799  16.616  1.6301  0.3731 -1.5412
 9082TIP3   OH248736   6.708   0.889  11.186  0.2096 -0.1921 -0.2911
 9082TIP3    H148737   6.653   0.967  11.177 -0.0512 -0.2467  0.7348
 9082TIP3    H248738   6.705   0.848  11.100 -0.4886  0.3811 -0.5502
 9083TIP3   OH248739   4.308   4.221  10.901  0.4291  0.4491 -0.0873
 9083TIP3    H148740   4.230   4.165  10.892 -0.1262  1.3790 -1.3609
 9083TIP3    H248741   4.282   4.305  10.863  2.2464  0.5887 -1.1637
 9084TIP3   OH248742   1.148   1.939  12.128 -0.7015 -0.1031  0.2252
 9084TIP3    H148743   1.159   1.873  12.197  0.2683 -1.7126 -1.3873
 9084TIP3    H248744   1.135   1.888  12.048 -0.0529  1.6703 -1.0712
 9085TIP3   OH248745   6.069   1.729   5.772 -0.2800  0.1377 -0.0665
 9085TIP3    H148746   6.133   1.734   5.843 -0.2852 -0.1549 -0.0382
 9085TIP3    H248747   6.000   1.672   5.807  0.4022 -1.2019 -0.8255
 9086TIP3   OH248748   5.655   3.908  16.854 -0.2328 -0.5263  0.1036
 9086TIP3    H148749   5.667   3.956  16.772 -1.1547 -0.7346 -0.1649
 9086TIP3    H248750   5.732   3.932  16.907 -0.3660  0.7899 -0.2452
 9087TIP3   OH248751   1.168   2.385  16.784 -0.4001  0.3698  0.1438
 9087TIP3    H148752   1.229   2.387  16.710 -0.2368 -2.2375  0.1294
 9087TIP3    H248753   1.133   2.296  16.784  0.3338 -0.0717  3.7936
 9088TIP3   OH248754   3.104   5.850  16.896  0.1966 -0.3736  0.0546
 9088TIP3    H148755   3.063   5.931  16.925  0.2243 -0.7853  1.3230
 9088TIP3    H248756   3.056   5.781  16.943  1.3550 -0.9618  0.4187
 9089TIP3   OH248757   0.343   4.101   1.207  1.0618  0.8563  0.3428
 9089TIP3    H148758   0.310   4.135   1.290 -1.0290  0.8442 -0.4060
 9089TIP3    H248759   0.389   4.175   1.167  1.3423  1.1109  1.1371
 9090TIP3   OH248760   1.593   5.202   3.299 -0.4622  0.0247 -0.4034
 9090TIP3    H148761   1.684   5.171   3.297  0.2143  1.9291 -0.7526
 9090TIP3    H248762   1.551   5.161   3.223  0.6560  0.6713 -1.3982
 9091TIP3   OH248763   4.430   0.064  10.991 -0.0419 -0.3545 -0.5777
 9091TIP3    H148764   4.412   0.156  11.012 -0.4731 -0.2938 -1.1809
 9091TIP3    H248765   4.510   0.067  10.939 -1.2420 -0.0737 -2.5108
 9092TIP3   OH248766   3.596   3.086   4.813 -0.0134  0.1277  0.6772
 9092TIP3    H148767   3.607   3.070   4.906  0.2121  0.0186  0.6338
 9092TIP3    H248768   3.628   3.006   4.771 -0.1342  0.1677  0.5086
 9093TIP3   OH248769   0.449   4.970   2.504  0.2315  0.2888 -0.5252
 9093TIP3    H148770   0.474   4.897   2.561  3.7941  0.6156 -1.4145
 9093TIP3    H248771   0.485   5.047   2.547  0.9027  0.8332 -2.0124
 9094TIP3   OH248772   6.537   3.634   1.825 -0.1682  0.4810  0.1108
 9094TIP3    H148773   6.597   3.578   1.875  0.2238 -0.5057 -1.3860
 9094TIP3    H248774   6.449   3.606   1.854  0.0181  1.8844  2.2563
 9095TIP3   OH248775   4.474   3.259   1.009 -0.2818  0.5032  0.3615
 9095TIP3    H148776   4.401   3.313   0.980 -0.5009 -0.2393 -0.5377
 9095TIP3    H248777   4.466   3.178   0.958  0.6725  0.0651  0.8667
 9096TIP3   OH248778   4.052   5.542  14.190 -0.2690  0.4563  0.0691
 9096TIP3    H148779   4.096   5.485  14.253  0.4037  1.6822  0.7352
 9096TIP3    H248780   4.049   5.491  14.109 -1.7248 -1.4109  1.2307
 9097TIP3   OH248781   5.956   4.048   3.242 -0.0190  0.1081 -0.6277
 9097TIP3    H148782   6.026   3.984   3.254 -0.5145 -0.1680  1.2008
 9097TIP3    H248783   5.876   3.999   3.265 -0.4961  1.1268 -0.0541
 9098TIP3   OH248784   2.219   1.391  14.832  0.1094  0.0829  0.2202
 9098TIP3    H148785   2.175   1.330  14.774  0.7125  2.0338 -2.5045
 9098TIP3    H248786   2.153   1.414  14.897 -1.4580 -0.4041 -1.1328
 9099TIP3   OH248787   5.412   5.913  15.148  0.3092 -0.3372  0.1477
 9099TIP3    H148788   5.468   5.991  15.146 -2.0446  1.4428  0.0238
 9099TIP3    H248789   5.327   5.943  15.117 -0.9392 -2.7804  0.9294
 9100TIP3   OH248790   0.583   2.630   5.568  0.2331  0.3904  0.5091
 9100TIP3    H148791   0.548   2.541   5.562  0.7071  0.2901 -2.7861
 9100TIP3    H248792   0.508   2.686   5.548  0.4699  0.5399  0.0076
 9101TIP3   OH248793   3.701   5.667   5.757  0.7906  0.1904  0.0981
 9101TIP3    H148794   3.773   5.622   5.801  1.1597  1.3117  0.6700
 9101TIP3    H248795   3.743   5.718   5.688  0.4193 -0.0098 -0.2819
 9102TIP3   OH248796   0.216   1.880   5.189 -0.1142 -0.1279 -0.4419
 9102TIP3    H148797   0.289   1.898   5.248  1.0310 -0.0564 -1.8479
 9102TIP3    H248798   0.139   1.878   5.247  1.0378 -0.7611  1.1527
 9103TIP3   OH248799   2.020   1.623  15.907  0.2356 -0.1367 -0.6844
 9103TIP3    H148800   1.939   1.675  15.906 -0.1650 -0.7501 -1.0808
 9103TIP3    H248801   2.017   1.576  15.991  1.0740  1.1896  0.1124
 9104TIP3   OH248802   6.373   4.416   4.258  0.1630  0.1284  0.1641
 9104TIP3    H148803   6.467   4.424   4.269  0.1142  1.6745 -0.3180
 9104TIP3    H248804   6.336   4.458   4.336 -0.1471 -1.3909  0.8672
 9105TIP3   OH248805   5.743   5.489  13.088 -1.0260 -0.6958 -0.7742
 9105TIP3    H148806   5.736   5.581  13.115  0.5619 -0.5700 -0.7362
 9105TIP3    H248807   5.835   5.476  13.068 -0.8890 -2.7106  0.7789
 9106TIP3   OH248808   0.227   1.579  10.897  0.3037  0.1211  0.1613
 9106TIP3    H148809   0.209   1.644  10.830 -0.1213  0.1096  0.2611
 9106TIP3    H248810   0.318   1.554  10.883 -0.2709 -1.2300 -1.5808
 9107TIP3   OH248811   3.826   0.741   0.587  0.0953 -0.1498 -0.0239
 9107TIP3    H148812   3.782   0.662   0.553  1.0298  0.1884 -2.2180
 9107TIP3    H248813   3.912   0.739   0.545  1.2392  0.5481  2.1783
 9108TIP3   OH248814   4.537   4.926  17.193  0.0223  0.5878  0.5221
 9108TIP3    H148815   4.615   4.944  17.245  0.2001 -2.9267  1.7457
 9108TIP3    H248816   4.469   4.980  17.233  1.1061  1.2357  1.5638
 9109TIP3   OH248817   5.687   2.089  10.849  0.2723 -0.0759 -0.1321
 9109TIP3    H148818   5.620   2.023  10.830 -0.3655  0.5082  0.0433
 9109TIP3    H248819   5.652   2.136  10.925 -0.1666  1.6683 -1.3735
 9110TIP3   OH248820   0.563   1.061   6.553  0.3474  0.2505  0.7085
 9110TIP3    H148821   0.469   1.045   6.545  0.5917 -1.6554  1.2174
 9110TIP3    H248822   0.604   0.988   6.507  1.6045  1.0328  0.5262
 9111TIP3   OH248823   0.874   6.728   2.538  0.1301  0.0469  0.0491
 9111TIP3    H148824   0.882   6.778   2.619 -2.5046  0.9495 -0.1305
 9111TIP3    H248825   0.789   6.685   2.545  0.1422 -0.4021 -1.9392
 9112TIP3   OH248826   6.459   5.412   0.921  0.2987 -0.2455  0.7159
 9112TIP3    H148827   6.466   5.438   1.013 -0.4622 -1.4996  1.1461
 9112TIP3    H248828   6.445   5.317   0.923 -0.3487 -0.2073 -0.6698
 9113TIP3   OH248829   2.617   4.051   0.423 -0.3839 -0.4422  0.2879
 9113TIP3    H148830   2.605   3.975   0.366 -0.5867 -0.5876  0.5244
 9113TIP3    H248831   2.538   4.103   0.411  1.2505  1.6674 -2.7342
 9114TIP3   OH248832   6.206   0.893   1.626 -0.1403 -0.1626  0.3494
 9114TIP3    H148833   6.115   0.866   1.643 -0.3893  0.9039  0.7872
 9114TIP3    H248834   6.258   0.816   1.649 -0.8955 -0.5995  0.6499
 9115TIP3   OH248835   6.221   1.208   1.950  0.1959  0.0136 -0.1544
 9115TIP3    H148836   6.237   1.281   1.891  0.5279  1.1908  1.3295
 9115TIP3    H248837   6.135   1.174   1.925 -0.1413  1.1648 -0.6118
 9116TIP3   OH248838   4.445   5.363  15.265 -0.3530 -0.1045 -0.1817
 9116TIP3    H148839   4.466   5.456  15.259  2.4761 -0.5621  1.0863
 9116TIP3    H248840   4.496   5.322  15.195  1.3503 -1.0246  1.4976
 9117TIP3   OH248841   3.136   4.437  16.834  0.0778  0.0124  0.0079
 9117TIP3    H148842   3.121   4.345  16.813  2.2260  0.1769 -2.7384
 9117TIP3    H248843   3.169   4.436  16.924 -0.0651 -1.8513  0.0695
 9118TIP3   OH248844   4.504   1.845   1.382 -0.5352  0.1286  0.0961
 9118TIP3    H148845   4.499   1.761   1.428  0.4675  0.4851  0.8845
 9118TIP3    H248846   4.449   1.833   1.305  0.4439 -1.6359 -0.3839
 9119TIP3   OH248847   0.445   6.189  17.081  0.4804 -0.3229 -0.3197
 9119TIP3    H148848   0.381   6.212  17.013 -0.5633  1.0985  1.0570
 9119TIP3    H248849   0.392   6.149  17.150  1.2877 -0.3300  0.2994
 9120TIP3   OH248850   4.536   3.180  13.229  0.1034 -0.6213  0.1562
 9120TIP3    H148851   4.612   3.238  13.220 -0.8373  0.8256  0.9968
 9120TIP3    H248852   4.505   3.166  13.140  1.5802 -1.6037 -0.2420
 9121TIP3   OH248853   1.936   5.238  13.411  0.1732 -0.2549  0.6284
 9121TIP3    H148854   2.002   5.237  13.341  0.5696  1.4478  0.9459
 9121TIP3    H248855   1.958   5.314  13.464 -1.8088  0.1200  0.9920
 9122TIP3   OH248856   4.362   0.348  11.843  0.1060  0.4276  0.3774
 9122TIP3    H148857   4.336   0.264  11.805  0.5322 -0.4416  1.9373
 9122TIP3    H248858   4.354   0.335  11.937 -0.7602  2.4566  0.6331
 9123TIP3   OH248859   1.014   0.339   2.447 -0.5746 -0.3615 -0.6451
 9123TIP3    H148860   1.049   0.425   2.474  1.3256 -1.1486 -0.4641
 9123TIP3    H248861   1.038   0.280   2.519 -2.0863 -1.0346 -0.6472
 9124TIP3   OH248862   0.151   5.411   1.799 -0.0763 -0.1651 -0.7975
 9124TIP3    H148863   0.132   5.423   1.892  0.3031 -0.0849 -0.7256
 9124TIP3    H248864   0.075   5.446   1.754  0.6404  1.8100 -0.5731
 9125TIP3   OH248865   0.097   3.508  13.798 -0.3283 -0.0985  0.6339
 9125TIP3    H148866   0.187   3.493  13.827 -0.0754  0.3815  0.1024
 9125TIP3    H248867   0.055   3.551  13.872  0.1389  0.5274  0.5445
 9126TIP3   OH248868   4.899   5.508  12.385  0.4959 -0.9957 -0.0020
 9126TIP3    H148869   4.810   5.527  12.417  0.7128  0.0700 -0.0139
 9126TIP3    H248870   4.946   5.478  12.463  0.1031 -1.6973 -0.0204
 9127TIP3   OH248871   4.871   3.643   3.197 -0.4343  0.3135  0.6738
 9127TIP3    H148872   4.833   3.617   3.113  0.1740  1.0588  0.1583
 9127TIP3    H248873   4.812   3.711   3.230 -0.5362  0.1949  0.7391
 9128TIP3   OH248874   1.481   6.056   0.536 -0.4989  0.3615  0.0199
 9128TIP3    H148875   1.514   5.968   0.516  1.8079  1.0606  0.4318
 9128TIP3    H248876   1.411   6.041   0.600 -1.5772 -1.2724 -1.4394
 9129TIP3   OH248877   2.267   1.771   1.890  0.2499  0.5411  0.2535
 9129TIP3    H148878   2.213   1.788   1.813 -0.2079 -0.8854  0.2249
 9129TIP3    H248879   2.327   1.701   1.863 -1.5984 -1.8341  1.8260
 9130TIP3   OH248880   6.795   5.186   0.645  0.0402 -0.6305 -0.3291
 9130TIP3    H148881   6.821   5.278   0.659 -0.5446 -0.7450  1.8847
 9130TIP3    H248882   6.700   5.189   0.635 -0.0149 -1.0163  0.0509
 9131TIP3   OH248883   2.214   2.274  11.329  0.1986 -0.1070 -0.2349
 9131TIP3    H148884   2.205   2.262  11.234 -4.2976 -0.7978  0.0695
 9131TIP3    H248885   2.186   2.364  11.345 -0.0541 -0.3098  0.5147
 9132TIP3   OH248886   0.395   4.710  11.582  0.6770  0.4180 -0.3812
 9132TIP3    H148887   0.450   4.699  11.505  1.5331  2.5014 -0.1454
 9132TIP3    H248888   0.320   4.761  11.552  0.1512 -0.2234 -0.1759
 9133TIP3   OH248889   4.500   1.350   1.085 -0.3187  0.0737 -0.4070
 9133TIP3    H148890   4.416   1.324   1.122 -0.2878  0.5179 -0.0138
 9133TIP3    H248891   4.545   1.268   1.068  0.0088 -0.1534  1.3490
 9134TIP3   OH248892   6.123   0.757  11.331  0.7999  0.2739 -0.1499
 9134TIP3    H148893   6.102   0.669  11.362 -0.9077  0.2052 -1.3247
 9134TIP3    H248894   6.175   0.796  11.401  0.6594 -1.2878  0.8690
 9135TIP3   OH248895   1.944   4.190   2.130  0.5228  0.1078 -0.1624
 9135TIP3    H148896   1.977   4.158   2.046 -0.1034 -0.8180 -0.0648
 9135TIP3    H248897   1.858   4.227   2.109 -0.3751 -1.6157  0.3115
 9136TIP3   OH248898   6.736   2.240   6.136  0.8691 -0.1176  0.3139
 9136TIP3    H148899   6.761   2.175   6.202 -0.8693 -0.3874  0.7498
 9136TIP3    H248900   6.791   2.220   6.060  1.8621 -0.7256  1.1700
 9137TIP3   OH248901   5.416   6.752  12.742 -0.4230 -0.5126 -0.3339
 9137TIP3    H148902   5.342   6.773  12.686 -1.9450 -1.0613  1.3529
 9137TIP3    H248903   5.405   6.659  12.763  2.0607 -1.2367 -1.8216
 9138TIP3   OH248904   1.487   5.089  12.906 -0.0198  0.1879 -0.2310
 9138TIP3    H148905   1.428   5.116  12.836 -1.2214  0.2116  0.7530
 9138TIP3    H248906   1.454   5.003  12.933  2.2640 -1.2524 -1.6686
 9139TIP3   OH248907   3.497   6.532  13.468 -0.0194 -0.2161  0.3353
 9139TIP3    H148908   3.543   6.492  13.542 -1.6747 -1.0198  0.9663
 9139TIP3    H248909   3.436   6.594  13.508  0.3140  0.6741 -0.4805
 9140TIP3   OH248910   0.473   3.985  16.095 -0.2617 -0.2605  0.0866
 9140TIP3    H148911   0.442   3.959  16.009 -0.4805  2.6182 -0.8047
 9140TIP3    H248912   0.398   4.030  16.135  0.0340 -0.9955  1.5575
 9141TIP3   OH248913   6.332   6.795  10.631 -0.2715  0.0191 -0.6390
 9141TIP3    H148914   6.242   6.792  10.663 -0.2772 -0.3523 -0.6809
 9141TIP3    H248915   6.323   6.784  10.536 -0.0050 -4.1003 -0.3846
 9142TIP3   OH248916   5.623   5.665   0.753 -0.3100  0.0161  0.5790
 9142TIP3    H148917   5.681   5.721   0.805 -0.6081 -0.0728  1.0117
 9142TIP3    H248918   5.680   5.596   0.720  0.2741  1.0850 -0.7657
 9143TIP3   OH248919   0.121   3.359  13.383 -0.1338 -0.5878 -0.0149
 9143TIP3    H148920   0.211   3.363  13.415  0.0085 -0.6000 -0.4202
 9143TIP3    H248921   0.090   3.272  13.410 -0.3233 -0.2511  0.9125
 9144TIP3   OH248922   2.988   3.654  16.332 -0.0365  0.2098 -0.4427
 9144TIP3    H148923   3.001   3.740  16.372  0.6177 -0.2307  0.3045
 9144TIP3    H248924   2.915   3.615  16.380  0.9184 -0.4260  0.5397
 9145TIP3   OH248925   0.162   5.041  17.250  0.8583  0.3017  1.1814
 9145TIP3    H148926   0.110   5.092  17.188  0.7503 -0.8675  0.2571
 9145TIP3    H248927   0.160   5.091  17.331  0.5613  1.6205  0.3885
 9146TIP3   OH248928   4.645   3.547   4.238  0.3396 -0.4406  0.0908
 9146TIP3    H148929   4.719   3.510   4.287  0.8021 -0.4123 -0.5568
 9146TIP3    H248930   4.568   3.529   4.292  0.5114 -2.5967 -0.3011
 9147TIP3   OH248931   5.259   0.177   6.314 -0.1773 -0.2716 -0.2147
 9147TIP3    H148932   5.329   0.124   6.352  0.0582  0.6456  0.6823
 9147TIP3    H248933   5.184   0.163   6.372 -0.7219 -1.1485 -1.0965
 9148TIP3   OH248934   6.075   1.604   1.529  0.0645  0.0778  0.0174
 9148TIP3    H148935   6.136   1.561   1.468 -0.3739  0.8374 -0.9772
 9148TIP3    H248936   6.115   1.590   1.615 -0.1964 -2.5457 -0.2059
 9149TIP3   OH248937   1.856   6.056   4.986  0.0848  0.7497  0.1554
 9149TIP3    H148938   1.888   6.084   4.900  0.6043  1.3228  0.5313
 9149TIP3    H248939   1.873   6.131   5.044 -1.3199  0.8206  0.5172
 9150TIP3   OH248940   4.635   1.901   0.747  0.6638 -0.1156  0.3618
 9150TIP3    H148941   4.566   1.863   0.802  0.0610 -0.0881 -0.3575
 9150TIP3    H248942   4.706   1.922   0.808  0.5304 -1.2742  0.9558
 9151TIP3   OH248943   0.689   1.460  11.818  0.4799  1.3422  0.1447
 9151TIP3    H148944   0.701   1.376  11.862 -0.5211  0.0555 -1.9008
 9151TIP3    H248945   0.632   1.510  11.877 -0.9514 -0.3738  0.2887
 9152TIP3   OH248946   5.623   1.262   3.937  0.2448 -0.0933 -0.0368
 9152TIP3    H148947   5.656   1.277   4.025  2.6459  0.7313 -1.0008
 9152TIP3    H248948   5.661   1.333   3.884 -1.6512 -0.1824 -1.6285
 9153TIP3   OH248949   4.078   2.767  14.115 -0.0241  0.1719  0.2403
 9153TIP3    H148950   4.171   2.784  14.101  0.4734 -1.2205  1.6012
 9153TIP3    H248951   4.070   2.672  14.115 -1.3260  0.2497  0.9163
 9154TIP3   OH248952   3.708   6.667   5.471 -0.4102 -0.1978 -0.3728
 9154TIP3    H148953   3.679   6.582   5.505 -2.3417  0.6102  0.1298
 9154TIP3    H248954   3.785   6.689   5.523 -2.1298  0.0996  2.2239
 9155TIP3   OH248955   2.416   5.483  16.036 -0.6445  0.3952  0.1539
 9155TIP3    H148956   2.509   5.481  16.056 -0.1920  1.1750 -1.6351
 9155TIP3    H248957   2.403   5.408  15.978 -0.8386  1.0112 -0.6195
 9156TIP3   OH248958   6.022   3.988   4.920  0.0760  0.3107 -0.3928
 9156TIP3    H148959   6.078   3.913   4.901  0.4452  0.6604 -0.7077
 9156TIP3    H248960   5.933   3.955   4.909  0.2087 -0.3188  0.3610
 9157TIP3   OH248961   4.599   0.612   4.256 -0.0697  0.2911 -0.0052
 9157TIP3    H148962   4.593   0.622   4.161 -1.6800 -1.7792 -0.1936
 9157TIP3    H248963   4.678   0.660   4.281  0.2067  1.1474 -2.3313
 9158TIP3   OH248964   5.522   2.925   1.382  0.1420 -0.1368  0.5196
 9158TIP3    H148965   5.558   3.014   1.386 -2.2528  1.0137 -0.8178
 9158TIP3    H248966   5.535   2.898   1.291  0.4927 -1.0199  0.8241
 9159TIP3   OH248967   2.226   5.782   5.184 -0.0730 -0.2160 -0.0141
 9159TIP3    H148968   2.300   5.778   5.123  0.2082  1.3357  0.1820
 9159TIP3    H248969   2.263   5.756   5.268  0.0400 -0.3465 -0.1042
 9160TIP3   OH248970   2.184   5.396   0.608 -0.3253 -0.0709  0.2416
 9160TIP3    H148971   2.106   5.445   0.633  0.7660  1.1402  1.4163
 9160TIP3    H248972   2.229   5.453   0.545 -0.3442 -0.7394 -0.3964
 9161TIP3   OH248973   1.788   3.932   4.254 -1.0544 -0.2715 -0.1308
 9161TIP3    H148974   1.806   3.839   4.241  1.9966 -0.1985  2.3838
 9161TIP3    H248975   1.780   3.942   4.348 -0.8524  2.0700 -0.3065
 9162TIP3   OH248976   6.510   3.040  15.373  0.7970  0.5536  0.6431
 9162TIP3    H148977   6.415   3.045  15.380  0.5560 -0.4006 -1.3490
 9162TIP3    H248978   6.542   3.068  15.459 -1.2670  0.7436  1.3968
 9163TIP3   OH248979   2.760   4.140  13.579  0.1222  0.1049 -0.1614
 9163TIP3    H148980   2.797   4.227  13.566  0.8436 -0.0993  0.4438
 9163TIP3    H248981   2.693   4.152  13.647  1.0792 -0.0044  0.8394
 9164TIP3   OH248982   2.431   0.379   1.724  0.0761 -0.2756  0.2007
 9164TIP3    H148983   2.356   0.434   1.748 -0.7486 -1.0886 -0.4025
 9164TIP3    H248984   2.505   0.415   1.772 -0.8003  0.2873  1.1507
 9165TIP3   OH248985   3.984   2.905  13.480 -0.1238 -0.6283 -0.2878
 9165TIP3    H148986   3.997   2.971  13.412 -1.8620 -0.6069 -0.6639
 9165TIP3    H248987   4.039   2.832  13.454  0.4698  0.0019 -0.8310
 9166TIP3   OH248988   4.922   1.169  16.488  0.0645 -0.1661  0.5451
 9166TIP3    H148989   4.902   1.214  16.570  1.5725 -1.7214  1.8568
 9166TIP3    H248990   4.843   1.119  16.467 -0.6920  1.0371  0.4673
 9167TIP3   OH248991   0.266   2.229  16.252 -0.2409 -0.0739 -0.1375
 9167TIP3    H148992   0.308   2.191  16.329 -1.9327 -1.5103  0.1358
 9167TIP3    H248993   0.317   2.197  16.178  0.4211 -0.0161  0.2858
 9168TIP3   OH248994   4.649   6.319   5.867 -0.7277  0.3984  0.4850
 9168TIP3    H148995   4.701   6.244   5.895 -0.4479 -0.1066 -1.2534
 9168TIP3    H248996   4.705   6.395   5.885  0.1306 -0.0395 -0.2455
 9169TIP3   OH248997   5.236   0.000   5.763  0.3496  0.0592  0.0746
 9169TIP3    H148998   5.229   0.038   5.851  1.1997 -0.7165  0.4931
 9169TIP3    H248999   5.315  -0.053   5.766 -0.6947 -1.6122 -0.5464
 9170TIP3   OH249000   4.625   4.562   2.907  0.0726  0.2006  0.2478
 9170TIP3    H149001   4.712   4.532   2.932 -0.0229  0.1611  0.5382
 9170TIP3    H249002   4.566   4.515   2.966 -0.1782 -0.1360 -0.2656
 9171TIP3   OH249003   2.385   6.380   5.615 -1.0376  0.0605 -0.1784
 9171TIP3    H149004   2.422   6.390   5.528 -1.6413  2.5149 -0.2303
 9171TIP3    H249005   2.443   6.318   5.659  1.5590  1.6353 -1.1188
 9172TIP3   OH249006   4.876   1.095   2.014 -0.4406  0.3821 -0.0706
 9172TIP3    H149007   4.883   1.183   2.051 -0.1524  0.4301 -0.2455
 9172TIP3    H249008   4.791   1.094   1.970 -0.1172  0.8147 -0.7180
 9173TIP3   OH249009   0.170   4.600   2.215  0.2686 -0.0911  0.4435
 9173TIP3    H149010   0.149   4.692   2.198 -2.3649 -0.8818 -1.2350
 9173TIP3    H249011   0.130   4.581   2.300  0.9647  0.3060  0.8748
 9174TIP3   OH249012   4.957   2.565  11.968 -0.0500  0.4039  0.1972
 9174TIP3    H149013   5.009   2.503  11.917  0.6456  1.2712 -0.1804
 9174TIP3    H249014   4.867   2.550  11.940 -0.1372 -1.5630  1.3255
 9175TIP3   OH249015   4.077   2.031  15.029  0.1440  0.1895  0.2821
 9175TIP3    H149016   4.045   2.101  15.085  1.2114  2.2266 -1.5093
 9175TIP3    H249017   4.146   1.988  15.081 -1.9346 -1.0087  2.2068
 9176TIP3   OH249018   1.572   3.602  16.079 -0.0016  0.7595 -0.1256
 9176TIP3    H149019   1.617   3.668  16.027  0.8849  0.8213  0.6915
 9176TIP3    H249020   1.628   3.525  16.076 -0.5667  0.3518 -0.3031
 9177TIP3   OH249021   0.188   4.884  11.505  0.0446  0.4155 -0.0927
 9177TIP3    H149022   0.116   4.935  11.541 -1.1636 -0.4980 -1.1428
 9177TIP3    H249023   0.146   4.812  11.458  1.5517  1.0174 -2.5585
 9178TIP3   OH249024   6.398   5.483  15.643  0.0422  0.8924  0.2254
 9178TIP3    H149025   6.318   5.498  15.692 -0.0015  0.3825  0.3160
 9178TIP3    H249026   6.370   5.431  15.567  0.0917  1.7404 -0.3947
 9179TIP3   OH249027   0.778   1.463   0.675 -0.5841 -0.3799  0.4946
 9179TIP3    H149028   0.745   1.388   0.724 -1.8423 -0.2309 -0.0847
 9179TIP3    H249029   0.751   1.447   0.584 -1.0609  0.8491  0.3928
 9180TIP3   OH249030   1.234   2.668   6.358 -0.1109 -0.0203 -0.0723
 9180TIP3    H149031   1.286   2.595   6.325  0.7105  0.4266  0.2178
 9180TIP3    H249032   1.269   2.745   6.313 -1.1191  0.1789 -0.5500
 9181TIP3   OH249033   1.448   1.735   3.269  0.1119  0.1815  1.0453
 9181TIP3    H149034   1.469   1.682   3.192 -0.5218 -1.2302  1.8037
 9181TIP3    H249035   1.461   1.826   3.241  0.7731 -0.3518 -0.4359
 9182TIP3   OH249036   5.651   2.157   5.813  0.7244  0.6109 -0.0812
 9182TIP3    H149037   5.652   2.064   5.836 -1.3818  0.3181 -0.9561
 9182TIP3    H249038   5.625   2.202   5.893 -1.5465  0.0773 -0.4549
 9183TIP3   OH249039   3.329   3.134  11.886  0.3106 -0.5810 -0.3381
 9183TIP3    H149040   3.332   3.054  11.835 -0.0071 -0.6249 -0.2886
 9183TIP3    H249041   3.406   3.183  11.859  1.0358 -1.3216  0.3186
 9184TIP3   OH249042   5.409   6.807  15.418  0.0234  0.1639  0.6294
 9184TIP3    H149043   5.400   6.843  15.506 -0.3944 -2.0123  1.5663
 9184TIP3    H249044   5.320   6.782  15.393  0.4304 -1.4568  0.6660
 9185TIP3   OH249045   0.590   2.043  11.770  0.6228  0.6026 -0.7563
 9185TIP3    H149046   0.538   2.048  11.850  1.6478  0.3617 -0.0559
 9185TIP3    H249047   0.593   1.949  11.749  1.2099  0.5603 -0.4950
 9186TIP3   OH249048   0.613   2.512   1.026  0.1408 -0.1759 -0.3928
 9186TIP3    H149049   0.584   2.538   1.114 -1.3872 -1.2216 -0.5317
 9186TIP3    H249050   0.688   2.568   1.007 -1.0515  1.8693  0.5562
 9187TIP3   OH249051   4.561   2.109   0.925  0.1714  0.1788  0.8209
 9187TIP3    H149052   4.563   2.062   0.842 -0.4957  1.3627  0.1066
 9187TIP3    H249053   4.601   2.194   0.907  0.7235  0.1681  1.9063
 9188TIP3   OH249054   3.295   4.321   3.014 -0.3870  0.6750 -0.3554
 9188TIP3    H149055   3.231   4.283   3.073 -0.0853  0.1365 -0.3725
 9188TIP3    H249056   3.337   4.246   2.971 -0.0402  1.0307 -0.6546
 9189TIP3   OH249057   1.288   6.739  14.705 -0.1249 -0.4711  0.2518
 9189TIP3    H149058   1.232   6.678  14.752 -0.6518 -0.3990 -0.2606
 9189TIP3    H249059   1.323   6.797  14.772 -2.0406  0.5852  0.4362
 9190TIP3   OH249060   3.428   2.844  11.332 -0.0498 -0.0220  0.0329
 9190TIP3    H149061   3.510   2.888  11.351  0.4420 -0.9336  0.0625
 9190TIP3    H249062   3.417   2.781  11.403 -0.4722 -0.3168 -0.2839
 9191TIP3   OH249063   5.915   2.925   4.810 -0.2696 -0.1089  0.2312
 9191TIP3    H149064   6.001   2.955   4.780  0.6084 -1.6741  1.0505
 9191TIP3    H249065   5.859   3.002   4.805  1.3984  1.1624  0.4798
 9192TIP3   OH249066   5.422   3.006  13.670 -0.0112 -0.5065 -0.1604
 9192TIP3    H149067   5.433   3.033  13.579 -1.2921 -1.1441 -0.5127
 9192TIP3    H249068   5.343   3.051  13.700  1.1528  0.8160  1.0922
 9193TIP3   OH249069   3.614   3.732  16.789 -0.3786 -0.0197 -0.4515
 9193TIP3    H149070   3.704   3.763  16.778 -0.5041  0.2145 -0.8297
 9193TIP3    H249071   3.573   3.796  16.846 -0.1028 -0.5189  0.3184
 9194TIP3   OH249072   3.879   0.382   0.152  0.2850 -0.1885  0.8783
 9194TIP3    H149073   3.921   0.459   0.189  2.8545 -0.5711 -1.0020
 9194TIP3    H249074   3.801   0.368   0.207  1.1066  2.2151  2.8035
 9195TIP3   OH249075   1.049   0.344   5.715  0.3420  0.3829 -0.1823
 9195TIP3    H149076   1.109   0.385   5.652 -2.1983  0.8491 -2.5035
 9195TIP3    H249077   1.048   0.404   5.790  2.6920  0.3352 -0.0254
 9196TIP3   OH249078   3.943   6.662  11.528 -0.3377 -0.4155 -0.1368
 9196TIP3    H149079   3.860   6.650  11.576 -0.2510 -1.2271 -0.1666
 9196TIP3    H249080   3.926   6.622  11.443 -0.9192  2.1410 -1.3241
 9197TIP3   OH249081   4.562   0.703  11.214  0.4543  0.5265 -0.9383
 9197TIP3    H149082   4.589   0.631  11.271  1.5894  1.9320  0.3987
 9197TIP3    H249083   4.618   0.695  11.137 -0.5302 -0.9103 -1.5583
 9198TIP3   OH249084   6.353   6.290  17.289 -0.9852 -0.3055  0.2099
 9198TIP3    H149085   6.293   6.360  17.264 -1.0611  0.0756  1.4093
 9198TIP3    H249086   6.383   6.314  17.376  0.4907 -0.7812 -0.1345
 9199TIP3   OH249087   3.092   6.021  14.193 -0.1867  0.1300  0.0911
 9199TIP3    H149088   3.089   5.931  14.225  0.7436  0.4046  1.0296
 9199TIP3    H249089   3.086   6.075  14.271  1.0646  0.8454 -0.2697
 9200TIP3   OH249090   3.938   3.918   2.342  0.1735  0.0783  0.3155
 9200TIP3    H149091   3.882   3.847   2.372  0.3159 -0.1719  0.0014
 9200TIP3    H249092   3.942   3.979   2.415 -0.7595  0.2507  0.2295
 9201TIP3   OH249093   6.685   0.511   1.415  0.1962 -0.0029  0.2017
 9201TIP3    H149094   6.607   0.459   1.432 -0.6223  1.1002 -0.0803
 9201TIP3    H249095   6.674   0.544   1.326  1.3302 -0.4013 -0.1121
 9202TIP3   OH249096   5.151   5.322  10.902  0.2154 -0.2108 -0.2786
 9202TIP3    H149097   5.172   5.341  10.993  1.2359 -0.8640 -0.3655
 9202TIP3    H249098   5.111   5.235  10.904  1.0615 -0.6172 -0.5392
 9203TIP3   OH249099   3.696   3.924   1.181  0.2941  0.1994 -0.0745
 9203TIP3    H149100   3.707   3.929   1.086  1.8410  1.9243  0.1449
 9203TIP3    H249101   3.760   3.986   1.216 -2.4145  2.0772  1.9907
 9204TIP3   OH249102   4.802   1.230   0.437  0.0375  0.6302 -0.3695
 9204TIP3    H149103   4.757   1.168   0.380  0.7520 -0.8196  0.5973
 9204TIP3    H249104   4.877   1.260   0.386 -0.8414  1.4823 -1.2045
 9205TIP3   OH249105   5.677   5.842  10.150 -0.5105 -0.3922 -0.1863
 9205TIP3    H149106   5.607   5.887  10.197 -0.0910  0.7908 -0.6745
 9205TIP3    H249107   5.632   5.787  10.085 -0.9813  1.0265 -1.0925
 9206TIP3   OH249108   1.421   4.592  14.743 -0.5387 -0.1753 -0.3743
 9206TIP3    H149109   1.494   4.543  14.706  1.0273  1.1667  0.7765
 9206TIP3    H249110   1.344   4.539  14.724  0.8148 -2.0070 -1.0080
 9207TIP3   OH249111   4.725   3.417  12.585  0.0780  0.1556 -1.0703
 9207TIP3    H149112   4.792   3.369  12.536 -0.4133 -0.5965 -1.0198
 9207TIP3    H249113   4.659   3.439  12.519  1.3074  2.7826 -1.5907
 9208TIP3   OH249114   2.105   4.797   0.902 -0.3950 -0.1417  0.0263
 9208TIP3    H149115   2.080   4.856   0.830  0.5022 -0.9183 -0.9516
 9208TIP3    H249116   2.134   4.856   0.972  2.1810  0.6311 -1.5501
 9209TIP3   OH249117   4.808   3.021  16.190  0.4642  0.5128 -0.1383
 9209TIP3    H149118   4.780   3.045  16.102  0.3721 -2.2630 -0.9680
 9209TIP3    H249119   4.903   3.008  16.182  0.7483  1.9165  0.6400
 9210TIP3   OH249120   1.178   4.582   0.756  0.0448 -0.0064  0.5998
 9210TIP3    H149121   1.178   4.597   0.662  1.8504  0.3315  0.6015
 9210TIP3    H249122   1.086   4.575   0.780 -0.4433 -0.2444 -1.2017
 9211TIP3   OH249123   6.075   5.199   6.459 -0.0890  0.0693 -0.3930
 9211TIP3    H149124   6.052   5.131   6.396  0.9116 -1.0313  0.3823
 9211TIP3    H249125   5.993   5.217   6.505 -0.5593  0.0251 -1.1967
 9212TIP3   OH249126   1.838   5.620  11.970 -0.0824  0.0349  0.2315
 9212TIP3    H149127   1.879   5.542  11.932  0.8069  0.3812  0.4550
 9212TIP3    H249128   1.745   5.610  11.951  0.3280  0.3031 -2.2452
 9213TIP3   OH249129   5.275   5.991   4.181 -0.3897  0.0272  0.5010
 9213TIP3    H149130   5.316   6.017   4.264  1.5077 -0.9692 -0.0758
 9213TIP3    H249131   5.231   5.909   4.202  0.1280 -0.2489  0.5225
 9214TIP3   OH249132   4.626   5.916  13.174 -0.0232  0.0115 -0.8126
 9214TIP3    H149133   4.585   5.898  13.089  0.7727 -0.3940 -1.1247
 9214TIP3    H249134   4.684   5.990  13.157 -3.7432  3.6748  0.5984
 9215TIP3   OH249135   2.280   6.736   0.989  0.2549 -0.1972  0.0768
 9215TIP3    H149136   2.375   6.738   0.981  0.6738  2.5637  3.5629
 9215TIP3    H249137   2.263   6.677   1.062 -0.6149 -0.0199  0.0302
 9216TIP3   OH249138   0.601   6.157   2.611  0.6039  0.0290  0.3331
 9216TIP3    H149139   0.518   6.119   2.583  0.9674  0.2509 -1.1311
 9216TIP3    H249140   0.660   6.082   2.619  0.7159  0.0378 -0.3417
 9217TIP3   OH249141   0.260   1.985   3.957  0.6433 -0.0963 -0.3028
 9217TIP3    H149142   0.228   1.959   4.043  2.4465 -0.4048  0.3152
 9217TIP3    H249143   0.263   2.081   3.960  3.9517 -0.0900  1.3602
 9218TIP3   OH249144   0.515   2.785  15.556 -0.7313  0.0041 -0.0507
 9218TIP3    H149145   0.434   2.836  15.566 -1.4539 -0.8051 -1.3320
 9218TIP3    H249146   0.491   2.697  15.584 -0.3794 -0.3033 -0.6868
 9219TIP3   OH249147   1.772   1.092   4.095 -0.4181 -0.2312 -1.0907
 9219TIP3    H149148   1.751   1.082   4.188 -0.7629 -2.3479 -1.3468
 9219TIP3    H249149   1.761   1.186   4.078 -0.9339  0.1075  0.8537
 9220TIP3   OH249150   1.939   6.613   1.193 -0.3220 -0.1893 -0.1167
 9220TIP3    H149151   1.998   6.675   1.236  1.8562 -2.0083 -0.2959
 9220TIP3    H249152   1.854   6.658   1.190  0.8932  2.3229  0.6791
 9221TIP3   OH249153   3.241   4.491   5.276  0.4969  0.3664 -0.6765
 9221TIP3    H149154   3.188   4.547   5.220 -0.2881  0.5846  0.2588
 9221TIP3    H249155   3.239   4.534   5.361 -1.2833 -1.7379  0.4626
 9222TIP3   OH249156   6.036   0.253  12.631  0.0308 -0.2212 -0.0668
 9222TIP3    H149157   6.094   0.190  12.672 -0.2883 -0.4274  0.0712
 9222TIP3    H249158   6.075   0.269  12.545 -0.2083 -1.0715 -0.3472
 9223TIP3   OH249159   1.409   3.932  15.440 -0.1656 -0.2537 -0.0384
 9223TIP3    H149160   1.337   3.887  15.396  0.3400 -1.1257  0.0116
 9223TIP3    H249161   1.388   4.025  15.432 -1.5249 -0.5082  0.3573
 9224TIP3   OH249162   5.540   3.325   6.091 -0.5637 -0.1931  0.3385
 9224TIP3    H149163   5.449   3.295   6.086 -0.3032 -1.1419  1.0144
 9224TIP3    H249164   5.536   3.417   6.067 -1.7650 -0.1062  0.7865
 9225TIP3   OH249165   6.784   5.387   0.369 -0.4341  0.5175  0.0098
 9225TIP3    H149166   6.781   5.293   0.384 -1.9148  0.6142  0.5017
 9225TIP3    H249167   6.826   5.422   0.448 -0.0172  0.2991 -0.1091
 9226TIP3   OH249168   5.905   3.577   6.077 -0.1042 -0.6842  0.1709
 9226TIP3    H149169   5.975   3.585   6.012 -1.8926  0.5644 -1.7318
 9226TIP3    H249170   5.836   3.634   6.044 -1.8163 -1.4499  2.2520
 9227TIP3   OH249171   1.755   0.402  15.538 -0.0158  0.1238  0.6263
 9227TIP3    H149172   1.792   0.347  15.469 -0.6102  0.2613  0.1921
 9227TIP3    H249173   1.680   0.445  15.497 -1.0909 -0.6721  1.6746
 9228TIP3   OH249174   0.954   6.091   1.472 -0.4538  0.3421  0.0944
 9228TIP3    H149175   0.999   6.009   1.493  2.2602  0.9586 -2.6405
 9228TIP3    H249176   0.863   6.075   1.496  0.5237 -2.2661  2.6906
 9229TIP3   OH249177   4.531   3.621  10.791 -0.2328 -0.2515  0.1774
 9229TIP3    H149178   4.601   3.566  10.756  1.2336  0.6486  1.5506
 9229TIP3    H249179   4.480   3.647  10.714  1.2292 -0.5625 -0.9405
 9230TIP3   OH249180   5.370   6.786   4.817  0.4905 -0.9426 -0.2051
 9230TIP3    H149181   5.364   6.880   4.797  0.4686 -1.3318 -2.2332
 9230TIP3    H249182   5.417   6.782   4.900  0.2845  0.8663  0.0416
 9231TIP3   OH249183   0.115   5.552  17.235  0.6240  0.7327  0.1336
 9231TIP3    H149184   0.045   5.589  17.288 -2.0681 -2.5174 -0.7902
 9231TIP3    H249185   0.181   5.524  17.298  0.4138  2.4287  1.1678
 9232TIP3   OH249186   6.215   3.129   0.196  0.5209  0.3152  0.0330
 9232TIP3    H149187   6.206   3.038   0.226 -0.5501  0.0152 -1.0982
 9232TIP3    H249188   6.306   3.135   0.166  0.6411 -0.3424  0.2418
 9233TIP3   OH249189   1.700   6.493   5.613 -0.1281  0.6704  1.0599
 9233TIP3    H149190   1.783   6.531   5.641  0.0309  0.8736  0.3227
 9233TIP3    H249191   1.639   6.567   5.612 -0.2565  0.5680  1.3646
 9234TIP3   OH249192   5.811   1.412   1.561  0.0796 -0.1277  0.2548
 9234TIP3    H149193   5.791   1.461   1.481  1.2623  1.5612  0.9357
 9234TIP3    H249194   5.904   1.429   1.577  0.3787 -2.0943  0.9090
 9235TIP3   OH249195   1.480   5.191   1.502 -0.2776  0.0117  0.9948
 9235TIP3    H149196   1.481   5.115   1.560  2.9033  0.0708  1.1954
 9235TIP3    H249197   1.494   5.266   1.559 -1.6220  0.5906  0.6001
 9236TIP3   OH249198   6.602   4.865  12.973 -0.3576 -0.1172  0.3695
 9236TIP3    H149199   6.662   4.790  12.976 -2.2145 -1.6576  1.6536
 9236TIP3    H249200   6.519   4.828  12.943 -0.9287  1.7769 -0.5612
 9237TIP3   OH249201   0.225   3.257  16.861 -0.1085 -0.4902  0.5980
 9237TIP3    H149202   0.190   3.234  16.775 -0.6936 -0.4863  0.8277
 9237TIP3    H249203   0.221   3.353  16.864  0.5634 -0.4510  0.3652
 9238TIP3   OH249204   5.275   4.276   2.467 -0.0419  0.1162  0.0918
 9238TIP3    H149205   5.249   4.218   2.539  1.3094  0.8687  1.2298
 9238TIP3    H249206   5.350   4.233   2.427  1.4183  1.3292  1.3874
 9239TIP3   OH249207   1.270   0.906   2.802 -0.1235  0.5777 -0.1774
 9239TIP3    H149208   1.326   0.840   2.842 -1.1552 -0.8085 -0.9533
 9239TIP3    H249209   1.330   0.958   2.748  0.7963  0.6916  0.9078
 9240TIP3   OH249210   1.099   5.877  13.967  0.1171  0.1433 -0.2895
 9240TIP3    H149211   1.091   5.965  13.930 -2.2435 -0.1846 -0.7465
 9240TIP3    H249212   1.023   5.869  14.025  1.6577 -0.7413  1.7201
 9241TIP3   OH249213   6.784   6.416  13.600 -0.2474  0.1147  0.1772
 9241TIP3    H149214   6.803   6.475  13.672 -1.1141  0.4241  0.1646
 9241TIP3    H249215   6.784   6.329  13.639 -1.2168  0.3235  0.6659
 9242TIP3   OH249216   1.133   6.393  13.260  0.4813 -0.4798  0.1531
 9242TIP3    H149217   1.134   6.341  13.340 -0.9533 -1.2601 -0.3065
 9242TIP3    H249218   1.106   6.331  13.192 -2.8316  1.1401 -0.1774
 9243TIP3   OH249219   3.233   5.009   4.312  0.2066 -0.1280  0.3105
 9243TIP3    H149220   3.152   5.008   4.364  0.5446 -1.0670  0.8488
 9243TIP3    H249221   3.266   4.919   4.318  0.4265 -0.1806 -1.2937
 9244TIP3   OH249222   3.876   5.895   4.302 -0.1833 -0.2256 -0.1948
 9244TIP3    H149223   3.929   5.882   4.223 -0.2322  0.0535 -0.2731
 9244TIP3    H249224   3.916   5.836   4.366  0.0988 -0.1674 -0.3131
 9245TIP3   OH249225   2.289   5.867  16.394  0.2526 -0.3029  0.1995
 9245TIP3    H149226   2.266   5.785  16.351  0.9085 -0.9583  1.0625
 9245TIP3    H249227   2.384   5.875  16.381  0.4500 -0.4623  1.3994
 9246TIP3   OH249228   4.455   4.566  14.608  0.7698 -0.3878 -0.0514
 9246TIP3    H149229   4.441   4.471  14.613  0.2037 -0.3576 -0.8633
 9246TIP3    H249230   4.476   4.582  14.516 -0.1606  0.4020 -0.1430
 9247TIP3   OH249231   6.438   1.638   6.942 -0.1127  0.0349  0.1245
 9247TIP3    H149232   6.498   1.652   6.868  0.0934 -1.3542  0.0101
 9247TIP3    H249233   6.357   1.608   6.901 -0.7418  1.3686  0.3251
 9248TIP3   OH249234   6.113   6.363   4.029 -0.6060 -0.0936  0.6152
 9248TIP3    H149235   6.081   6.410   3.952 -1.3926 -0.6396  0.5918
 9248TIP3    H249236   6.098   6.271   4.008  0.5340 -0.3431  0.8262
 9249TIP3   OH249237   3.376   1.338   5.941 -0.0380  0.5379 -0.1403
 9249TIP3    H149238   3.341   1.366   5.857 -1.7096  0.8744  0.6386
 9249TIP3    H249239   3.462   1.302   5.920 -0.3500  0.7759 -1.9612
 9250TIP3   OH249240   2.459   6.305  11.306 -0.3645 -0.3403  0.0225
 9250TIP3    H149241   2.416   6.386  11.279 -1.2238 -1.0876 -0.9555
 9250TIP3    H249242   2.400   6.269  11.373 -0.1676 -0.3213  0.2039
 9251TIP3   OH249243   2.964   4.917  12.915  0.5062  0.4055 -0.1909
 9251TIP3    H149244   2.975   4.923  12.820 -0.6711 -0.1313 -0.3741
 9251TIP3    H249245   2.871   4.898  12.928  0.8644 -0.7179  1.0223
 9252TIP3   OH249246   2.125   1.126   1.175  0.5032  0.1695 -0.4196
 9252TIP3    H149247   2.199   1.151   1.231  0.5297 -3.2767  1.3767
 9252TIP3    H249248   2.048   1.156   1.223  0.6099  1.5791 -1.0754
 9253TIP3   OH249249   1.310   5.591   3.764 -0.0052 -0.0845  0.6370
 9253TIP3    H149250   1.356   5.611   3.683  0.2102 -2.0222  0.2382
 9253TIP3    H249251   1.371   5.618   3.833  1.4607 -1.9283  0.1187
 9254TIP3   OH249252   4.606   6.573  16.734 -0.3045 -0.2189  0.0808
 9254TIP3    H149253   4.580   6.553  16.644 -3.5060 -1.9789  1.2408
 9254TIP3    H249254   4.561   6.655  16.755  1.1063  0.6498 -0.0767
 9255TIP3   OH249255   1.490   1.477  11.899 -0.2311 -0.3693  0.0877
 9255TIP3    H149256   1.419   1.513  11.952 -1.0387 -3.0430  1.0382
 9255TIP3    H249257   1.448   1.407  11.848  1.5737 -1.6516  0.2459
 9256TIP3   OH249258   2.973   5.805   3.017  0.6105  0.0414  0.2672
 9256TIP3    H149259   2.920   5.821   3.095  0.2249 -1.5281  0.3433
 9256TIP3    H249260   2.998   5.893   2.987 -0.9627  0.7556  0.9547
 9257TIP3   OH249261   3.122   2.218  13.314 -0.4276 -0.2341  0.3710
 9257TIP3    H149262   3.055   2.154  13.291  0.5622 -0.8793 -0.8697
 9257TIP3    H249263   3.164   2.239  13.231 -1.4132  2.8994  0.5558
 9258TIP3   OH249264   1.257   3.763  12.129 -0.1768  0.1645  0.1173
 9258TIP3    H149265   1.265   3.760  12.225  1.8951  0.1214 -0.0166
 9258TIP3    H249266   1.261   3.671  12.102  0.1877  0.2398 -0.0797
 9259TIP3   OH249267   4.345   2.710   3.756 -0.2459  0.8982 -0.0124
 9259TIP3    H149268   4.433   2.731   3.724  0.0623 -2.3826 -1.7452
 9259TIP3    H249269   4.294   2.695   3.677 -2.0768  1.5374  0.9965
 9260TIP3   OH249270   1.260   4.334  12.822  0.2904 -0.0005  0.0236
 9260TIP3    H149271   1.338   4.364  12.778 -1.3190  2.0726 -1.6056
 9260TIP3    H249272   1.264   4.375  12.909  0.2682  1.4327 -0.6232
 9261TIP3   OH249273   4.746   3.544  11.901  0.1294  0.4665  0.1784
 9261TIP3    H149274   4.703   3.572  11.982  0.7183 -0.1300  0.7041
 9261TIP3    H249275   4.710   3.602  11.834 -0.3136  1.0153  0.8765
 9262TIP3   OH249276   6.557   2.430   2.563 -0.0208 -0.7928 -0.0066
 9262TIP3    H149277   6.540   2.522   2.544  1.8312 -0.4502 -0.1865
 9262TIP3    H249278   6.653   2.424   2.569 -0.1635 -2.0318  3.2380
 9263TIP3   OH249279   5.988   6.197  17.079 -0.0313 -0.2008 -0.1504
 9263TIP3    H149280   5.939   6.170  17.156  1.0888  0.2791  0.7707
 9263TIP3    H249281   6.043   6.122  17.057  1.2320  0.3759  0.8739
 9264TIP3   OH249282   2.165   3.699  14.609 -0.0557  0.0996  0.3441
 9264TIP3    H149283   2.194   3.611  14.632 -2.6202 -0.8312  0.3956
 9264TIP3    H249284   2.103   3.723  14.678 -0.7026  1.2059 -0.5749
 9265TIP3   OH249285   3.089   0.458   1.688  0.5079 -0.0073  0.2247
 9265TIP3    H149286   3.028   0.494   1.623  1.5944  0.5145 -0.5335
 9265TIP3    H249287   3.113   0.372   1.654  0.5365 -0.0262  0.2923
 9266TIP3   OH249288   3.664   0.806  11.786  0.8071  0.5393 -0.4954
 9266TIP3    H149289   3.688   0.713  11.777  1.1210  0.4135  1.2879
 9266TIP3    H249290   3.582   0.814  11.738 -0.7074 -1.3558  1.5332
 9267TIP3   OH249291   5.448   4.334  16.053  0.0341 -0.2936 -0.2061
 9267TIP3    H149292   5.508   4.384  15.997 -0.9469 -0.6560 -1.6207
 9267TIP3    H249293   5.403   4.401  16.105 -1.1543  0.3375 -1.9698
 9268TIP3   OH249294   0.020   1.109   2.089 -0.2170 -0.0195  0.2677
 9268TIP3    H149295   0.102   1.078   2.050 -0.0841 -0.0895  0.6006
 9268TIP3    H249296  -0.043   1.106   2.017 -0.2644 -1.2700  0.3424
 9269TIP3   OH249297   2.104   5.946   5.585  0.1007  0.0657  0.0978
 9269TIP3    H149298   2.042   6.011   5.619 -0.9420 -1.0331  0.3720
 9269TIP3    H249299   2.106   5.963   5.491  0.1125  0.7191  0.2111
 9270TIP3   OH249300   0.398   5.805  11.395  0.4855  0.5939 -0.2686
 9270TIP3    H149301   0.444   5.884  11.367  0.9625  0.8934  1.2489
 9270TIP3    H249302   0.467   5.747  11.426 -0.0532  0.9005  1.6932
 9271TIP3   OH249303   5.806   1.270  13.917 -0.0223  0.3974  0.6002
 9271TIP3    H149304   5.712   1.272  13.899 -0.0629 -0.9811  0.5816
 9271TIP3    H249305   5.813   1.236  14.006  0.4642  0.7520  0.7051
 9272TIP3   OH249306   4.762   3.717   3.837 -0.4112  0.1644 -0.1638
 9272TIP3    H149307   4.752   3.628   3.873 -0.6194  0.3165  0.1640
 9272TIP3    H249308   4.731   3.774   3.908  0.0399  0.5134 -0.2447
 9273TIP3   OH249309   0.774   6.265  14.950 -0.3450  0.0560 -0.0411
 9273TIP3    H149310   0.742   6.183  14.988 -0.8258 -0.1871 -0.9310
 9273TIP3    H249311   0.853   6.285  14.999 -0.5924 -0.5814  0.6451
 9274TIP3   OH249312   3.271   5.277  14.342  0.3130 -0.0889  0.1951
 9274TIP3    H149313   3.325   5.349  14.376  0.3509 -0.6645  1.4117
 9274TIP3    H249314   3.181   5.307  14.352  0.3655  0.8399 -1.7601
 9275TIP3   OH249315   5.613   2.315   1.169  0.3041  0.8795 -0.0822
 9275TIP3    H149316   5.690   2.264   1.146  0.8375  1.0907  1.1351
 9275TIP3    H249317   5.605   2.304   1.264 -1.3303  0.6403 -0.2279
 9276TIP3   OH249318   1.763   2.221   5.493  0.1824 -0.4318 -0.2475
 9276TIP3    H149319   1.830   2.159   5.463  0.3765  0.5343 -1.8928
 9276TIP3    H249320   1.745   2.194   5.583  1.6407 -1.6904 -0.2891
 9277TIP3   OH249321   2.694   2.137   6.309 -0.0543 -0.0031 -0.2104
 9277TIP3    H149322   2.712   2.065   6.369 -1.1277 -0.2056 -0.1131
 9277TIP3    H249323   2.620   2.183   6.348  1.1837  1.7179  0.2117
 9278TIP3   OH249324   6.159   6.681   5.535 -0.1615  0.1043 -0.5788
 9278TIP3    H149325   6.180   6.660   5.444  2.5418 -0.6157  0.1275
 9278TIP3    H249326   6.136   6.597   5.575  3.3210 -0.5574  0.4262
 9279TIP3   OH249327   2.337   4.116  12.396 -0.0847  0.3172 -0.1795
 9279TIP3    H149328   2.283   4.105  12.474  1.5299 -3.3344  0.6224
 9279TIP3    H249329   2.402   4.182  12.421  0.4194 -0.7927  1.6458
 9280TIP3   OH249330   2.847   4.891   2.050  0.5840  0.1052 -0.1994
 9280TIP3    H149331   2.798   4.972   2.037 -2.4424 -1.3271  1.1833
 9280TIP3    H249332   2.820   4.860   2.137  0.4293 -3.1117 -1.2399
 9281TIP3   OH249333   0.065   4.079   4.752 -0.3313  0.5586 -0.0332
 9281TIP3    H149334   0.108   4.063   4.668  1.3472  0.6171  0.7588
 9281TIP3    H249335   0.122   4.143   4.796 -1.6150  1.1706  0.8227
 9282TIP3   OH249336   4.473   1.874   6.165  0.0930  0.3581 -0.4541
 9282TIP3    H149337   4.448   1.829   6.245  4.0158 -1.7433 -0.1293
 9282TIP3    H249338   4.415   1.838   6.098 -1.1805 -0.2022  0.8938
 9283TIP3   OH249339   2.939   5.499  14.858  0.4514  0.5438 -0.0097
 9283TIP3    H149340   2.918   5.544  14.940 -1.2036  0.7429 -0.5118
 9283TIP3    H249341   2.951   5.407  14.884  0.2391  0.6561  0.4962
 9284TIP3   OH249342   0.877   2.280   3.517 -0.5367 -0.0633  0.2917
 9284TIP3    H149343   0.951   2.330   3.553  0.1435  0.0397 -1.2011
 9284TIP3    H249344   0.825   2.345   3.470 -2.9582  0.3647  3.2462
 9285TIP3   OH249345   1.752   2.838   5.353 -0.2791 -0.3870 -0.4324
 9285TIP3    H149346   1.790   2.867   5.436 -0.2586  1.3752 -1.0033
 9285TIP3    H249347   1.681   2.779   5.378 -0.6903  0.6158  0.8833
 9286TIP3   OH249348   0.604   3.251  15.774 -0.2283 -0.4849 -0.6016
 9286TIP3    H149349   0.642   3.254  15.686 -0.9312  1.0924 -0.8827
 9286TIP3    H249350   0.632   3.333  15.815  0.1905 -1.2502  0.7134
 9287TIP3   OH249351   3.565   0.475   5.436 -0.2327 -0.5553 -0.4612
 9287TIP3    H149352   3.604   0.513   5.515 -2.9103 -0.0055  0.7152
 9287TIP3    H249353   3.585   0.382   5.442  1.1199 -0.2678 -0.1003
 9288TIP3   OH249354   5.935   4.716  14.482  0.5140  0.5338  0.6631
 9288TIP3    H149355   5.852   4.718  14.436  0.9621  0.3344 -0.1789
 9288TIP3    H249356   5.991   4.659  14.429  1.9175  2.4787 -0.0848
 9289TIP3   OH249357   6.047   4.882  13.801 -0.6836  0.1928 -0.6418
 9289TIP3    H149358   5.965   4.891  13.752 -0.2626 -1.0712 -1.6308
 9289TIP3    H249359   6.081   4.797  13.774 -0.1922 -0.3416  1.5190
 9290TIP3   OH249360   1.813   2.710   6.595 -0.3364  0.4497 -0.1077
 9290TIP3    H149361   1.884   2.688   6.535 -1.4427  1.4076 -1.8431
 9290TIP3    H249362   1.821   2.804   6.609 -0.4959  0.3482  0.7307
 9291TIP3   OH249363   4.666   5.489   0.158 -0.2116  0.8374  0.0129
 9291TIP3    H149364   4.581   5.453   0.184 -0.2003  0.8423  0.0557
 9291TIP3    H249365   4.650   5.583   0.149 -0.4400  0.7279 -0.8632
 9292TIP3   OH249366   2.662   4.084   2.836  0.0141 -0.1023  0.5593
 9292TIP3    H149367   2.697   3.998   2.810  0.7205 -0.7767  3.3623
 9292TIP3    H249368   2.569   4.068   2.852 -0.1445  0.0105 -0.1960
 9293TIP3   OH249369   0.127   4.704  13.986 -0.3959  0.2383 -0.0548
 9293TIP3    H149370   0.124   4.705  13.891 -2.8538  0.4082 -0.0305
 9293TIP3    H249371   0.156   4.792  14.010 -0.6973  0.4931 -0.6240
 9294TIP3   OH249372   1.550   2.832  14.832 -0.5243  0.4387 -0.3042
 9294TIP3    H149373   1.592   2.800  14.753  0.6173  1.7705 -0.2651
 9294TIP3    H249374   1.614   2.890  14.873 -1.2320  0.1031  1.3987
 9295TIP3   OH249375   4.445   4.039  13.557  0.0054 -0.0512  0.0024
 9295TIP3    H149376   4.362   4.023  13.511  0.1654 -0.8823 -0.0047
 9295TIP3    H249377   4.489   3.954  13.558  1.4133  0.6182 -1.0641
 9296TIP3   OH249378   4.986   2.400  17.320 -0.4868  0.0117  0.0368
 9296TIP3    H149379   4.995   2.456  17.243  0.4791  0.2936  0.3447
 9296TIP3    H249380   4.961   2.315  17.284 -0.0326  0.1374 -0.5996
 9297TIP3   OH249381   1.333   1.044   3.579 -0.4007  0.1642 -0.0787
 9297TIP3    H149382   1.400   1.098   3.537  0.6369 -2.0099 -1.4095
 9297TIP3    H249383   1.356   0.954   3.555 -2.3963 -0.8615  1.4991
 9298TIP3   OH249384   0.698   1.213  14.068  0.1189 -0.7485  0.5717
 9298TIP3    H149385   0.709   1.294  14.018 -0.2130 -0.0819  1.5354
 9298TIP3    H249386   0.655   1.153  14.008 -2.1413  0.6967  0.6467
 9299TIP3   OH249387   4.624   3.977  13.205  0.8642 -0.1206 -0.1390
 9299TIP3    H149388   4.574   4.044  13.158  0.4711  0.0972  0.5737
 9299TIP3    H249389   4.573   3.897  13.194  2.0565 -0.6843 -2.2233
 9300TIP3   OH249390   3.056   3.396   5.054 -0.1894  0.0174  0.3040
 9300TIP3    H149391   3.000   3.403   4.976  0.9348  0.4610 -0.4854
 9300TIP3    H249392   3.143   3.380   5.020  0.1740 -0.7448  1.5288
 9301TIP3   OH249393   4.657   4.917  14.990  0.1345 -0.4569 -0.2229
 9301TIP3    H149394   4.617   4.896  14.905  2.0839 -0.2465 -1.2434
 9301TIP3    H249395   4.740   4.870  14.990  0.2692 -0.2725  1.4949
 9302TIP3   OH249396   0.805   5.609  10.410  0.1053  0.1246  0.6144
 9302TIP3    H149397   0.714   5.637  10.404  0.1340  0.5769  1.9318
 9302TIP3    H249398   0.840   5.622  10.322 -0.7913  1.0775  0.3772
 9303TIP3   OH249399   2.912   6.629   3.852  0.0586 -0.1791  0.1427
 9303TIP3    H149400   2.867   6.554   3.812  0.7221 -0.3193 -0.3549
 9303TIP3    H249401   2.891   6.703   3.793  0.2375 -0.1836  0.0741
 9304TIP3   OH249402   1.473   4.586   6.674  0.3464  0.1202  0.1767
 9304TIP3    H149403   1.536   4.584   6.602  1.2630  0.1819  0.9592
 9304TIP3    H249404   1.497   4.664   6.724  0.3997 -0.5087  1.1464
 9305TIP3   OH249405   2.674   5.112   5.828  0.1440  0.5125  0.0014
 9305TIP3    H149406   2.683   5.124   5.734  0.7402 -0.1077 -0.0310
 9305TIP3    H249407   2.580   5.104   5.843  0.1159 -0.9191 -0.7466
 9306TIP3   OH249408   0.792   5.818  12.843 -0.1108 -0.2083 -0.2205
 9306TIP3    H149409   0.763   5.909  12.835 -1.5835 -0.3558  2.3124
 9306TIP3    H249410   0.747   5.786  12.922  0.2754 -3.1792 -1.1095
 9307TIP3   OH249411   6.181   4.777   0.295  0.2087 -0.2792  0.1437
 9307TIP3    H149412   6.239   4.778   0.371 -0.0875 -1.6748  0.4138
 9307TIP3    H249413   6.132   4.696   0.304 -0.7420  0.1687 -0.8702
 9308TIP3   OH249414   1.189   1.558  12.758  0.1635  0.6582 -0.1878
 9308TIP3    H149415   1.148   1.628  12.706 -1.9465 -0.1409  0.2798
 9308TIP3    H249416   1.226   1.604  12.834  3.0200  1.7953 -2.1172
 9309TIP3   OH249417   6.586   5.909  14.960  0.3773 -0.2356  0.2084
 9309TIP3    H149418   6.531   5.882  15.033 -0.0793 -0.0633 -0.0649
 9309TIP3    H249419   6.552   5.995  14.935  0.7822 -0.1186  0.0449
 9310TIP3   OH249420   2.448   1.413  12.441  0.5186 -0.4354  0.5693
 9310TIP3    H149421   2.398   1.469  12.499 -1.5293 -0.6800 -0.8568
 9310TIP3    H249422   2.432   1.448  12.353 -2.9998 -4.4571 -0.7801
 9311TIP3   OH249423   2.956   6.166  16.420  0.1845 -0.3168  0.0866
 9311TIP3    H149424   2.949   6.071  16.432  0.1594 -0.2668  0.4743
 9311TIP3    H249425   3.031   6.177  16.362  0.9825 -0.5130  1.0475
 9312TIP3   OH249426   3.655   2.968   1.637  0.3123 -0.3184  0.1227
 9312TIP3    H149427   3.719   2.916   1.589  0.2410 -0.7761  0.5227
 9312TIP3    H249428   3.697   3.054   1.646  1.0170 -0.7095  0.6792
 9313TIP3   OH249429   4.506   2.019  13.474 -0.1155 -0.0219 -0.0714
 9313TIP3    H149430   4.586   1.994  13.429  0.4767  1.7002 -0.0341
 9313TIP3    H249431   4.525   2.104  13.513 -0.8093 -1.1285  2.9405
 9314TIP3   OH249432   4.325   3.982  11.569 -0.3435 -0.4734 -0.4424
 9314TIP3    H149433   4.229   3.977  11.570 -0.3869  0.1757  1.1910
 9314TIP3    H249434   4.353   3.907  11.621 -0.0297  0.0565  0.1713
 9315TIP3   OH249435   1.111   5.982  16.955  0.3462 -0.1754  0.1284
 9315TIP3    H149436   1.053   6.021  17.020  0.5273 -0.1225  0.2611
 9315TIP3    H249437   1.053   5.952  16.885  0.1975  0.2416  0.0721
 9316TIP3   OH249438   2.676   1.816   3.990  0.1782  0.3616 -0.4707
 9316TIP3    H149439   2.626   1.829   3.909  0.3866  0.0280 -0.6537
 9316TIP3    H249440   2.731   1.740   3.973  3.3849  2.7221 -1.5454
 9317TIP3   OH249441   3.474   5.607  13.964 -0.0163 -0.0072 -0.4216
 9317TIP3    H149442   3.543   5.552  13.929  0.3656 -1.3123  2.1144
 9317TIP3    H249443   3.457   5.572  14.051 -1.9476  2.0156  0.1327
 9318TIP3   OH249444   4.544   0.441   4.481 -0.0503 -0.5312 -0.4898
 9318TIP3    H149445   4.561   0.491   4.401  2.3695 -0.5009 -0.0343
 9318TIP3    H249446   4.550   0.505   4.552 -1.6679 -0.6534 -0.2001
 9319TIP3   OH249447   0.289   1.064  13.992 -0.3843 -0.1022 -0.5701
 9319TIP3    H149448   0.196   1.085  13.994 -0.5049 -0.6224  0.4817
 9319TIP3    H249449   0.330   1.139  13.950 -1.0328  1.1762  0.9799
 9320TIP3   OH249450   1.904   1.468   2.128 -0.0115 -0.4093 -0.2055
 9320TIP3    H149451   1.938   1.406   2.064  0.5700 -0.3200  0.0110
 9320TIP3    H249452   1.848   1.526   2.078 -0.2307 -0.8545 -0.4817
 9321TIP3   OH249453   1.002   4.718  17.030 -0.2822 -0.8959  0.1904
 9321TIP3    H149454   1.033   4.725  16.940  1.4972  2.8758  0.9088
 9321TIP3    H249455   0.911   4.745  17.026 -0.2185 -0.7597 -0.4506
 9322TIP3   OH249456   0.141   3.669  15.185  0.2724  0.1695 -0.8016
 9322TIP3    H149457   0.071   3.643  15.245 -1.3747 -1.6440 -3.2965
 9322TIP3    H249458   0.221   3.636  15.225 -0.7253 -0.7342  0.5389
 9323TIP3   OH249459   5.819   5.924   3.457 -0.1458 -0.6118 -0.4146
 9323TIP3    H149460   5.851   5.852   3.403 -0.5511 -1.0886 -0.0314
 9323TIP3    H249461   5.883   5.930   3.528  0.0633 -0.3834 -0.6243
 9324TIP3   OH249462   3.883   4.630  13.453 -0.0547  0.2260  0.6612
 9324TIP3    H149463   3.790   4.630  13.433 -0.1533  1.0408  1.0877
 9324TIP3    H249464   3.918   4.553  13.407 -0.5446  1.0879 -1.2600
 9325TIP3   OH249465   3.359   3.813  12.919  0.0529  0.7950  0.6023
 9325TIP3    H149466   3.349   3.740  12.981  2.3981  0.4444  0.6533
 9325TIP3    H249467   3.375   3.770  12.835 -0.3964  1.2619  0.2783
 9326TIP3   OH249468   4.269   2.759   1.438  0.0160 -0.6082  0.5627
 9326TIP3    H149469   4.248   2.772   1.530 -0.6713 -0.5548  0.3981
 9326TIP3    H249470   4.240   2.669   1.419 -1.4464 -0.0322 -0.0409
 9327TIP3   OH249471   3.997   1.690  13.169 -0.5662  0.1377  0.3456
 9327TIP3    H149472   4.051   1.768  13.169 -0.5663  0.1821  2.0754
 9327TIP3    H249473   4.059   1.617  13.163 -0.4650  0.2379  0.1909
 9328TIP3   OH249474   2.320   2.719   1.580 -0.2315  0.0882 -0.4732
 9328TIP3    H149475   2.245   2.748   1.529 -0.2161 -0.1823 -0.6481
 9328TIP3    H249476   2.330   2.626   1.560  0.6989  0.3157 -1.1443
 9329TIP3   OH249477   4.537   3.840   6.071 -0.2415  0.2172 -0.1573
 9329TIP3    H149478   4.502   3.843   6.160  0.2167  0.3419  0.0184
 9329TIP3    H249479   4.628   3.812   6.082 -0.6008 -1.2653 -0.7069
 9330TIP3   OH249480   4.421   4.255   0.894  0.5500  0.1308 -0.0740
 9330TIP3    H149481   4.326   4.250   0.885  0.6089  0.1264 -0.7316
 9330TIP3    H249482   4.454   4.181   0.843  0.8773 -0.2700  0.7105
 9331TIP3   OH249483   2.203   5.081  13.787  0.4422 -0.0845 -0.3728
 9331TIP3    H149484   2.298   5.075  13.795  0.3944  1.4355  3.5919
 9331TIP3    H249485   2.175   4.994  13.758  2.9418 -0.8806 -0.6285
 9332TIP3   OH249486   1.205   2.662   1.238  0.0499 -0.0668  0.0638
 9332TIP3    H149487   1.188   2.722   1.166  3.0035 -0.1724 -0.8709
 9332TIP3    H249488   1.214   2.718   1.315  0.7583  0.5127 -0.4237
 9333TIP3   OH249489   1.781   4.683   1.021  0.6009 -0.3103  0.4893
 9333TIP3    H149490   1.764   4.774   0.996  1.3050 -0.2623  0.1527
 9333TIP3    H249491   1.772   4.633   0.940  1.8088 -0.3074  0.3365
 9334TIP3   OH249492   5.714   1.448  17.181 -0.2159  0.4862 -0.0193
 9334TIP3    H149493   5.730   1.537  17.151 -2.2884  1.3871  1.2753
 9334TIP3    H249494   5.638   1.419  17.130 -0.5650  0.1163  0.6850
 9335TIP3   OH249495   3.542   3.673   2.944  0.0518 -0.0997 -0.3970
 9335TIP3    H149496   3.509   3.590   2.978  0.1475 -0.0262 -0.1256
 9335TIP3    H249497   3.636   3.662   2.939  0.0427 -0.0921 -0.5881
 9336TIP3   OH249498   1.643   5.027   6.013 -0.6517 -0.0357 -0.2172
 9336TIP3    H149499   1.574   4.973   6.051 -1.4215  0.1291 -1.3244
 9336TIP3    H249500   1.596   5.102   5.976  0.3846  1.4524  1.3348
 9337TIP3   OH249501   0.536   0.239  12.172 -0.2180 -0.0252  0.4904
 9337TIP3    H149502   0.467   0.175  12.187 -0.2607 -0.2436 -0.5839
 9337TIP3    H249503   0.489   0.322  12.160 -0.3078 -0.1949 -0.3607
 9338TIP3   OH249504   5.027   2.674   1.205 -0.5090 -0.2915  0.0675
 9338TIP3    H149505   5.053   2.723   1.127  2.0685  0.8440  1.5143
 9338TIP3    H249506   5.019   2.583   1.175 -1.6873  0.4037 -1.8983
 9339TIP3   OH249507   0.451   6.058  10.898  0.3364 -0.3048  0.0139
 9339TIP3    H149508   0.377   6.103  10.857  0.8662 -0.5782 -1.2969
 9339TIP3    H249509   0.464   5.980  10.844  3.5099  1.2588 -1.7546
 9340TIP3   OH249510   0.910   0.030   3.930 -0.1381 -0.6317 -0.2544
 9340TIP3    H149511   0.968  -0.046   3.926  0.8766  0.1270 -0.4126
 9340TIP3    H249512   0.831  -0.002   3.974  0.6957 -1.5102  0.6374
 9341TIP3   OH249513   2.664   2.023   3.091  0.0205 -0.7573  0.1693
 9341TIP3    H149514   2.676   1.997   2.999 -2.1657 -1.3681 -0.0172
 9341TIP3    H249515   2.743   2.070   3.113 -0.2707  1.3959 -2.7421
 9342TIP3   OH249516   2.237   3.839  11.878 -1.1436 -0.6972 -0.2504
 9342TIP3    H149517   2.257   3.774  11.811 -0.1663  0.6262 -1.3185
 9342TIP3    H249518   2.145   3.826  11.899 -0.9779 -2.3690 -0.4617
 9343TIP3   OH249519   5.292   6.256  10.807  0.5380  0.1397  0.2894
 9343TIP3    H149520   5.208   6.245  10.850  1.1918  3.1693  2.7014
 9343TIP3    H249521   5.273   6.309  10.730  0.1707  0.4632  0.5982
 9344TIP3   OH249522   4.831   4.741   3.895 -0.7590  0.7108 -0.2465
 9344TIP3    H149523   4.859   4.693   3.973  0.6827  1.8293 -0.0153
 9344TIP3    H249524   4.741   4.769   3.915  0.1415  2.4164  1.8054
 9345TIP3   OH249525   5.215   5.446  11.149 -1.0012 -0.3859 -0.3693
 9345TIP3    H149526   5.223   5.482  11.237 -0.5854  1.1938 -1.0096
 9345TIP3    H249527   5.293   5.477  11.103 -1.3640 -0.9139 -1.3765
 9346TIP3   OH249528   3.022   4.884  13.246 -0.1483  0.3867 -0.2368
 9346TIP3    H149529   3.095   4.826  13.227 -1.4168 -0.8657 -1.5870
 9346TIP3    H249530   3.044   4.967  13.203  0.9454  0.3900  0.3108
 9347TIP3   OH249531   1.878   1.325   1.885  0.2610  0.1495  0.1977
 9347TIP3    H149532   1.796   1.368   1.859 -0.3745 -0.2894  1.4310
 9347TIP3    H249533   1.900   1.270   1.809 -1.3645 -0.8309  0.3924
 9348TIP3   OH249534   6.300   0.606   1.340 -0.5834 -0.0333  0.4567
 9348TIP3    H149535   6.227   0.585   1.399 -1.4519  0.1483 -0.5137
 9348TIP3    H249536   6.353   0.669   1.389 -1.0355 -0.2237  1.2119
 9349TIP3   OH249537   1.092   2.128   3.992 -0.0031  0.0018 -0.2168
 9349TIP3    H149538   1.115   2.148   4.083  1.0645  1.5054 -0.7699
 9349TIP3    H249539   0.997   2.119   3.993 -0.2435  1.9559  0.7542
 9350TIP3   OH249540   0.779   2.627   2.395  0.0921  1.0969  0.0430
 9350TIP3    H149541   0.872   2.634   2.412  0.3133  0.1534 -0.6744
 9350TIP3    H249542   0.766   2.536   2.370 -0.6885  1.6291 -1.6758
 9351TIP3   OH249543   1.282   0.304   1.513  0.2113  0.3793 -0.4082
 9351TIP3    H149544   1.251   0.373   1.454 -1.2981  0.5030  0.5005
 9351TIP3    H249545   1.215   0.297   1.580  2.1107  0.5898  1.6281
 9352TIP3   OH249546   3.891   2.874  16.088 -0.5059 -0.3146 -0.3151
 9352TIP3    H149547   3.941   2.900  16.165  1.4775 -0.7262 -1.3918
 9352TIP3    H249548   3.824   2.941  16.079 -1.7644 -0.9976  2.5473
 9353TIP3   OH249549   1.073   1.821  12.686 -0.2837 -0.2695 -0.5414
 9353TIP3    H149550   1.085   1.869  12.604  0.0668 -0.4206 -0.5783
 9353TIP3    H249551   1.138   1.858  12.746 -0.0465 -0.6638 -0.5552
 9354TIP3   OH249552   3.081   4.261   3.772 -0.0161  0.3243 -0.8147
 9354TIP3    H149553   3.096   4.354   3.791  2.1275  0.2861 -1.9610
 9354TIP3    H249554   3.065   4.259   3.677 -2.2130 -0.2980 -0.4774
 9355TIP3   OH249555   5.098   6.822  15.435  0.4713 -0.3582 -0.1258
 9355TIP3    H149556   5.077   6.865  15.518  2.3761  1.6009 -0.5633
 9355TIP3    H249557   5.050   6.739  15.438 -0.6122  0.2670  2.3036
 9356TIP3   OH249558   3.320   5.955  11.061  0.5939 -0.1082  0.6941
 9356TIP3    H149559   3.342   5.988  11.148  1.6885 -0.1622  0.4535
 9356TIP3    H249560   3.370   6.011  11.001  2.2087 -1.8898  0.2622
 9357TIP3   OH249561   2.817   2.353  14.232  0.0019  0.0749  0.1688
 9357TIP3    H149562   2.876   2.427  14.224  0.6775 -0.3685  0.8537
 9357TIP3    H249563   2.732   2.391  14.254  0.7769  0.5673  2.5769
 9358TIP3   OH249564   6.304   2.632   3.080  0.0034  0.5640  0.0160
 9358TIP3    H149565   6.283   2.719   3.046 -1.0428 -0.3092 -1.6972
 9358TIP3    H249566   6.219   2.596   3.106  0.0865 -0.7837 -1.4441
 9359TIP3   OH249567   5.831   4.118   0.583  0.1627 -1.0504 -0.2232
 9359TIP3    H149568   5.775   4.089   0.655 -0.3730 -0.2982 -0.3293
 9359TIP3    H249569   5.835   4.043   0.524 -0.5199 -1.1992 -0.0860
 9360TIP3   OH249570   0.955   0.845   3.322 -0.1259 -0.0446 -0.1052
 9360TIP3    H149571   0.939   0.891   3.405 -1.5328  0.8916 -0.8632
 9360TIP3    H249572   0.876   0.859   3.271  0.3201 -1.4541 -1.2508
 9361TIP3   OH249573   1.435   5.904  16.698  0.3283  0.2334 -0.6383
 9361TIP3    H149574   1.469   5.994  16.697 -1.6421  1.0912  1.6761
 9361TIP3    H249575   1.475   5.864  16.775  0.4217 -0.5999 -1.1062
 9362TIP3   OH249576   4.912   2.763  16.916 -0.0826 -0.1252 -0.1164
 9362TIP3    H149577   4.956   2.774  16.831 -0.2583  1.4676 -0.0212
 9362TIP3    H249578   4.945   2.834  16.970  0.4137 -1.4082  1.3551
 9363TIP3   OH249579   0.833   3.643   3.018 -0.4270  0.7341 -0.1858
 9363TIP3    H149580   0.875   3.721   2.983  0.7251 -0.3920 -1.3991
 9363TIP3    H249581   0.819   3.663   3.111 -0.7414  2.5941 -0.5955
 9364TIP3   OH249582   1.278   5.634  15.935 -0.1861 -0.0028  0.5039
 9364TIP3    H149583   1.259   5.649  15.842 -3.0093  0.9323  1.1559
 9364TIP3    H249584   1.234   5.552  15.956 -0.2680  0.2100  1.1966
 9365TIP3   OH249585   5.598   5.897   2.392 -0.5851  0.7162  0.3376
 9365TIP3    H149586   5.690   5.887   2.368 -0.7740 -2.4212  0.4689
 9365TIP3    H249587   5.562   5.955   2.325  1.4442  2.0566  0.3024
 9366TIP3   OH249588   2.046   6.593   2.066  0.2228  0.1047 -0.3765
 9366TIP3    H149589   2.003   6.529   2.008  0.3301 -1.1643  0.8716
 9366TIP3    H249590   2.139   6.577   2.053  0.2520  0.1107 -0.1673
 9367TIP3   OH249591   3.044   3.155  11.842 -0.0974  0.1293 -0.1635
 9367TIP3    H149592   3.130   3.125  11.872  0.3744 -0.1699 -1.7215
 9367TIP3    H249593   3.047   3.250  11.854  1.1768  0.3571 -1.8099
 9368TIP3   OH249594   3.502   1.462   7.020 -0.4575  0.0657  0.3979
 9368TIP3    H149595   3.457   1.514   6.955 -0.8389  0.0726  0.6651
 9368TIP3    H249596   3.445   1.464   7.097 -0.8201 -1.3087  0.1882
 9369TIP3   OH249597   3.091   2.339   2.843  0.3235 -0.2489 -0.0366
 9369TIP3    H149598   3.080   2.272   2.911  1.0642 -0.6531 -0.3015
 9369TIP3    H249599   3.017   2.327   2.784 -0.3343  0.1123  0.6976
 9370TIP3   OH249600   3.897   3.805  11.291  0.6549  0.4152  0.8604
 9370TIP3    H149601   3.911   3.844  11.205 -1.3195  1.5077  0.9710
 9370TIP3    H249602   3.954   3.728  11.292  1.5273  0.9767 -0.9903
 9371TIP3   OH249603   2.135   2.939  11.415  0.0919  0.2754 -0.1626
 9371TIP3    H149604   2.092   2.905  11.337  0.0195  2.2106 -1.0125
 9371TIP3    H249605   2.184   3.016  11.385  4.1466 -1.6634  0.7289
 9372TIP3   OH249606   3.435   3.110  11.137  0.2442 -0.2477  0.1806
 9372TIP3    H149607   3.452   3.204  11.130  0.5718 -0.1908  1.5429
 9372TIP3    H249608   3.522   3.070  11.132  0.0778 -0.5214 -0.7602
 9373TIP3   OH249609   3.998   3.669  10.983 -0.7326  0.2070 -0.4860
 9373TIP3    H149610   3.940   3.605  11.026  1.1125  0.4851  2.7621
 9373TIP3    H249611   3.954   3.753  10.995 -1.3819  0.0029 -1.3760
 9374TIP3   OH249612   1.107   5.324  15.910  0.2766 -0.5004  0.3464
 9374TIP3    H149613   1.072   5.304  15.997  0.8429  1.1615  0.9941
 9374TIP3    H249614   1.186   5.271  15.903  0.7556  0.0676  1.2610
 9375TIP3   OH249615   0.663   0.218  14.075 -0.4311  0.1536 -0.7184
 9375TIP3    H149616   0.698   0.165  14.146  0.5149  1.7587  0.0771
 9375TIP3    H249617   0.638   0.155  14.008 -0.5130 -1.3581  0.6587
 9376TIP3   OH249618   3.827   0.818   3.594 -0.3217 -0.3692 -0.0655
 9376TIP3    H149619   3.788   0.842   3.678 -0.1447  2.0428 -0.5892
 9376TIP3    H249620   3.754   0.819   3.533 -0.4903 -2.3440  0.0308
 9377TIP3   OH249621   2.933   4.758   2.503 -0.2283 -0.0666  0.0839
 9377TIP3    H149622   2.909   4.741   2.412  0.5113 -2.1495  0.2234
 9377TIP3    H249623   2.854   4.736   2.553  0.6829 -3.6884  0.2575
 9378TIP3   OH249624   2.434   4.901  16.422  0.5714 -0.2766  0.5941
 9378TIP3    H149625   2.489   4.979  16.434  0.1540  0.4164 -1.5862
 9378TIP3    H249626   2.384   4.895  16.503  1.3431  1.1277  1.2198
 9379TIP3   OH249627   3.181   1.534  14.020 -0.1467 -0.3741  0.0522
 9379TIP3    H149628   3.128   1.504  13.946  0.9507 -1.7323 -0.2201
 9379TIP3    H249629   3.191   1.457  14.076 -0.8725  0.6033  1.6059
 9380TIP3   OH249630   6.079   4.481   1.090  0.3693 -0.6094 -0.0777
 9380TIP3    H149631   6.153   4.485   1.029  0.1635  0.1164 -0.2829
 9380TIP3    H249632   6.064   4.572   1.116  1.1660 -1.0068  1.9377
 9381TIP3   OH249633   3.693   4.892   5.378 -0.6620  0.3517 -0.0432
 9381TIP3    H149634   3.666   4.830   5.311  0.0492 -0.4855  0.4213
 9381TIP3    H249635   3.681   4.845   5.460 -2.2500  1.6258  0.5049
 9382TIP3   OH249636   4.987   6.776   5.528 -0.1848 -0.1750 -0.8892
 9382TIP3    H149637   5.035   6.726   5.594 -1.4040 -0.7519 -0.3915
 9382TIP3    H249638   4.898   6.739   5.531 -0.0775 -0.8222 -3.4671
 9383TIP3   OH249639   4.797   6.014  13.873 -0.4907 -0.4672 -0.1966
 9383TIP3    H149640   4.880   6.053  13.847 -0.3046 -1.4445 -1.1752
 9383TIP3    H249641   4.799   6.014  13.969 -0.8349  2.5161 -0.1177
 9384TIP3   OH249642   4.824   3.483   3.993 -0.1459 -0.5161  0.3460
 9384TIP3    H149643   4.868   3.437   3.922 -0.6495 -1.1426  0.4337
 9384TIP3    H249644   4.745   3.431   4.010 -1.8578  1.5050 -0.9708
 9385TIP3   OH249645   0.759   2.959   0.154  0.1115 -0.2334 -0.0758
 9385TIP3    H149646   0.773   2.972   0.248  0.0883  1.0600 -0.2313
 9385TIP3    H249647   0.668   2.986   0.139  0.3223  0.2132 -0.5795
 9386TIP3   OH249648   2.382   6.203  13.072 -0.7323  0.2197  1.2008
 9386TIP3    H149649   2.377   6.270  13.140  1.0594  1.9224 -0.1996
 9386TIP3    H249650   2.343   6.245  12.995 -0.0683 -0.5325  0.4411
 9387TIP3   OH249651   2.317   1.474   4.403  0.0536 -0.0524 -0.0077
 9387TIP3    H149652   2.331   1.380   4.391  2.7409  0.3374 -0.5492
 9387TIP3    H249653   2.222   1.483   4.415 -0.6586 -2.5544 -2.5981
 9388TIP3   OH249654   1.275   6.298  11.422 -0.0625  0.2753 -0.1412
 9388TIP3    H149655   1.225   6.229  11.466  1.5561 -0.2485  0.9987
 9388TIP3    H249656   1.326   6.252  11.356 -1.5183  0.8962 -1.7611
 9389TIP3   OH249657   3.200   3.636  15.658  0.2575  1.0835 -0.3830
 9389TIP3    H149658   3.235   3.586  15.733 -2.4742 -0.6996 -0.1685
 9389TIP3    H249659   3.214   3.579  15.583 -0.7383  1.0333 -0.5379
 9390TIP3   OH249660   4.576   1.826   3.740  0.1069  0.2279  0.2073
 9390TIP3    H149661   4.575   1.759   3.671 -1.2701 -0.7307  1.0992
 9390TIP3    H249662   4.586   1.776   3.821 -0.1599  1.1787  0.8411
 9391TIP3   OH249663   3.411   4.955   6.052  0.4177 -0.0687 -0.1919
 9391TIP3    H149664   3.462   4.993   6.124  2.7036 -0.0353 -1.7483
 9391TIP3    H249665   3.451   4.869   6.037 -1.1022 -0.7779 -0.3943
 9392TIP3   OH249666   3.294   3.445   3.677 -0.5661  0.2266  0.1409
 9392TIP3    H149667   3.218   3.448   3.619 -1.2108  0.8610  0.9897
 9392TIP3    H249668   3.309   3.536   3.702 -1.2447 -0.1587  2.1191
 9393TIP3   OH249669   6.091   1.509   5.007  0.0201  0.1464 -0.7134
 9393TIP3    H149670   6.138   1.486   5.086  1.1146 -1.0528 -1.6750
 9393TIP3    H249671   6.094   1.605   5.004 -1.2641  0.3162  1.3741
 9394TIP3   OH249672   5.064   5.517  15.921  0.0773 -0.5969  0.1238
 9394TIP3    H149673   5.048   5.581  15.990  2.0009 -1.7154  1.7261
 9394TIP3    H249674   5.108   5.566  15.851 -1.6132  0.4803 -0.2388
 9395TIP3   OH249675   3.849   6.290   4.214  0.2204 -0.3975 -0.3635
 9395TIP3    H149676   3.764   6.330   4.198  0.6583  0.7356  0.0971
 9395TIP3    H249677   3.866   6.239   4.135 -0.7854 -0.4666 -0.5495
 9396TIP3   OH249678   2.344   1.015   3.398  0.2212  0.2827 -0.0301
 9396TIP3    H149679   2.375   1.105   3.384  1.7209 -0.2329 -0.2529
 9396TIP3    H249680   2.379   0.991   3.484  0.4208 -0.3119 -0.2737
 9397TIP3   OH249681   0.587   6.124  12.157  0.9159 -0.4275  0.6713
 9397TIP3    H149682   0.492   6.118  12.154  0.7034  1.9339  0.9392
 9397TIP3    H249683   0.615   6.111  12.066 -0.0314  2.4998 -0.1691
 9398TIP3   OH249684   2.746   4.415  10.605 -0.0547 -0.4490  0.0308
 9398TIP3    H149685   2.708   4.332  10.636  0.1254 -0.7911 -0.6428
 9398TIP3    H249686   2.687   4.482  10.639 -1.1699 -0.9579 -0.8020
 9399TIP3   OH249687   1.690   6.585   3.297  0.4800 -0.0127  0.6452
 9399TIP3    H149688   1.777   6.567   3.261  0.4615  0.0706  0.5597
 9399TIP3    H249689   1.646   6.637   3.230 -1.1168 -3.4284 -1.2203
 9400TIP3   OH249690   1.754   3.279   0.868  0.1245 -0.6572  0.5811
 9400TIP3    H149691   1.810   3.317   0.935 -1.6045  0.6615  1.3511
 9400TIP3    H249692   1.807   3.283   0.788  0.6278  1.9785  0.9539
 9401TIP3   OH249693   0.659   6.691   1.450 -0.3635  0.2397 -0.4358
 9401TIP3    H149694   0.624   6.604   1.435 -0.6632  0.6005 -2.0195
 9401TIP3    H249695   0.587   6.739   1.491 -0.0646 -0.3428  0.8115
 9402TIP3   OH249696   2.074   1.773  12.563  0.2522  0.1943  0.5217
 9402TIP3    H149697   2.074   1.679  12.580  0.2561  0.1081  0.0409
 9402TIP3    H249698   2.135   1.785  12.491 -1.6044  0.2583 -1.1043
 9403TIP3   OH249699   0.741   5.642  15.622 -0.1435  0.1037  0.2485
 9403TIP3    H149700   0.684   5.589  15.567 -0.4284 -1.3492  1.8589
 9403TIP3    H249701   0.772   5.712  15.564 -2.6259  0.2993 -0.9892
 9404TIP3   OH249702   0.252   2.213  14.204 -0.2932 -0.2977 -1.0714
 9404TIP3    H149703   0.229   2.203  14.111  2.5595 -0.5146 -1.8644
 9404TIP3    H249704   0.317   2.144  14.220  0.3333  0.6387  0.6865
 9405TIP3   OH249705   3.900   1.998   5.682  0.1576  0.0785  0.2276
 9405TIP3    H149706   3.857   1.983   5.767  1.6103  0.3526  1.0432
 9405TIP3    H249707   3.950   2.079   5.696  0.3631  0.1543 -0.9247
 9406TIP3   OH249708   5.288   6.667   6.045 -0.3907  0.4065  0.1517
 9406TIP3    H149709   5.199   6.690   6.072 -1.0254 -0.8050 -0.8101
 9406TIP3    H249710   5.340   6.673   6.126 -1.1349  2.0374  0.5383
 9407TIP3   OH249711   2.369   3.446   5.582  0.6519  0.3634  0.2017
 9407TIP3    H149712   2.318   3.513   5.628  2.7538  1.1522  1.5167
 9407TIP3    H249713   2.348   3.459   5.490 -1.3261  0.7665  0.6620
 9408TIP3   OH249714   1.843   6.526  17.078  0.5659  0.3360 -0.3465
 9408TIP3    H149715   1.845   6.564  16.990  0.1107  0.1450 -0.4374
 9408TIP3    H249716   1.752   6.534  17.106  0.9718  1.6800  0.6764
 9409TIP3   OH249717   0.092   1.059  10.952  0.2382  0.8606  0.0453
 9409TIP3    H149718   0.107   1.096  11.039 -1.4742  1.3972  0.1532
 9409TIP3    H249719   0.063   1.133  10.899 -1.4951  0.0682 -0.2087
 9410TIP3   OH249720   1.558   0.824  15.224  0.4110  0.0889 -0.2433
 9410TIP3    H149721   1.554   0.794  15.134  0.8826 -1.7717  0.3188
 9410TIP3    H249722   1.531   0.916  15.220  1.7458  0.4656 -2.4576
 9411TIP3   OH249723   4.554   5.009  13.772  0.1941  0.0039  0.0479
 9411TIP3    H149724   4.583   4.982  13.859 -0.2330  2.2352  0.9705
 9411TIP3    H249725   4.535   5.103  13.782 -2.6814 -0.2595 -1.6692
 9412TIP3   OH249726   2.327   3.558  12.139  0.1197 -0.3320  0.3401
 9412TIP3    H149727   2.358   3.478  12.095  0.4375  0.2476 -0.5227
 9412TIP3    H249728   2.253   3.587  12.085 -0.0389 -0.0788  0.6922
 9413TIP3   OH249729   4.154   3.328   5.868 -0.0373 -0.4054  0.0202
 9413TIP3    H149730   4.112   3.329   5.954 -0.0003 -2.4836  0.1312
 9413TIP3    H249731   4.185   3.417   5.855 -1.3265  0.3073  1.5118
 9414TIP3   OH249732   1.749   1.433   4.937  0.3324 -0.6124 -0.4730
 9414TIP3    H149733   1.821   1.407   4.994 -0.6691 -0.1984  1.0328
 9414TIP3    H249734   1.713   1.350   4.905 -0.2947 -0.9670  1.0617
 9415TIP3   OH249735   6.251   4.345  13.116  0.3876  0.3219  0.1428
 9415TIP3    H149736   6.278   4.255  13.133 -0.5399  0.0656  0.3413
 9415TIP3    H249737   6.328   4.387  13.078  0.9480 -0.4491  0.4101
 9416TIP3   OH249738   2.239   4.313   0.734 -0.0547  0.0140 -0.1411
 9416TIP3    H149739   2.238   4.272   0.820 -0.6046 -0.2117 -0.2523
 9416TIP3    H249740   2.281   4.398   0.748  1.4097 -0.7156  0.0200
 9417TIP3   OH249741   0.530   5.990   4.561  0.1030 -0.2113  0.3189
 9417TIP3    H149742   0.625   6.001   4.556  0.1505 -0.6907  0.0634
 9417TIP3    H249743   0.500   5.997   4.470 -0.6146  3.9871  0.6877
 9418TIP3   OH249744   1.730   3.984   5.016 -0.2069  0.1880 -0.0275
 9418TIP3    H149745   1.823   4.000   5.000  0.1774 -1.7924 -0.1091
 9418TIP3    H249746   1.687   4.068   5.002  1.3804  0.7925 -1.5590
 9419TIP3   OH249747   2.226   4.242  16.021 -0.1214 -0.0956  0.4766
 9419TIP3    H149748   2.159   4.204  16.078  1.3024 -1.4665  1.3058
 9419TIP3    H249749   2.191   4.230  15.932 -0.8464 -1.0643  0.8705
 9420TIP3   OH249750   3.798   2.647  12.113 -0.4916 -0.0590  0.5808
 9420TIP3    H149751   3.817   2.695  12.194  0.2296  1.5554 -0.5011
 9420TIP3    H249752   3.771   2.560  12.143  2.1166 -0.3463  2.5051
 9421TIP3   OH249753   1.295   6.503   3.231 -0.9562 -0.7086 -0.1714
 9421TIP3    H149754   1.317   6.445   3.158 -0.4038 -0.7185  0.0043
 9421TIP3    H249755   1.221   6.554   3.199  1.0928  1.4060 -1.8717
 9422TIP3   OH249756   5.433   5.189  15.218  0.0770  0.0439 -0.1128
 9422TIP3    H149757   5.390   5.156  15.139 -1.0871  1.1264  0.0182
 9422TIP3    H249758   5.526   5.173  15.204 -0.2296 -1.0737 -1.0660
 9423TIP3   OH249759   3.845   3.627   1.764  0.2267  0.3513 -0.1383
 9423TIP3    H149760   3.874   3.655   1.851  2.6498 -1.3938 -0.2508
 9423TIP3    H249761   3.924   3.630   1.711 -0.6619 -0.9332 -1.6227
 9424TIP3   OH249762   1.858   2.866   5.097  0.6594  0.0211 -0.4969
 9424TIP3    H149763   1.808   2.866   5.178 -0.5852  0.2378 -1.2413
 9424TIP3    H249764   1.938   2.915   5.118 -0.1107  0.9529  0.3279
 9425TIP3   OH249765   0.541   2.496   0.114 -0.3930 -0.1498 -0.4688
 9425TIP3    H149766   0.588   2.435   0.170 -3.8363 -0.9521  1.8991
 9425TIP3    H249767   0.553   2.581   0.155 -1.3097 -0.4311  0.4250
 9426TIP3   OH249768   6.196   0.169  15.417  0.4226 -0.2475  0.2381
 9426TIP3    H149769   6.215   0.255  15.456  0.8185 -0.4913  0.5899
 9426TIP3    H249770   6.220   0.106  15.486 -0.0767 -0.6300  0.0653
 9427TIP3   OH249771   5.335   1.039   5.383 -0.0578  0.1937  0.0706
 9427TIP3    H149772   5.264   1.057   5.444 -0.3850  0.1479 -0.2854
 9427TIP3    H249773   5.381   0.964   5.421 -3.0368 -3.0196 -1.8975
 9428TIP3   OH249774   3.906   2.705  11.678  0.1049  0.3175 -0.3950
 9428TIP3    H149775   3.824   2.753  11.680 -0.4314 -0.5890  0.5888
 9428TIP3    H249776   3.905   2.658  11.595  0.1060  1.0758 -0.8387
 9429TIP3   OH249777   0.396   5.328   3.883 -0.0652 -0.4222 -0.2611
 9429TIP3    H149778   0.376   5.244   3.841  0.0942 -0.2536 -0.6760
 9429TIP3    H249779   0.325   5.386   3.854  0.9296  0.1437 -1.6281
 9430TIP3   OH249780   0.207   2.217  17.324  0.4052  0.3177  0.3803
 9430TIP3    H149781   0.218   2.301  17.279 -1.0603 -0.5769 -1.7816
 9430TIP3    H249782   0.125   2.226  17.372 -0.2409 -0.1717 -0.6129
 9431TIP3   OH249783   5.872   3.216   3.151 -0.6153  0.7550 -0.4593
 9431TIP3    H149784   5.892   3.285   3.089 -2.2382  0.3409 -1.5001
 9431TIP3    H249785   5.821   3.259   3.220  0.8308  1.1299  0.4219
 9432TIP3   OH249786   3.996   4.984   0.660  0.0680 -0.1758 -0.5315
 9432TIP3    H149787   4.046   5.062   0.638  0.9807 -1.3575 -3.0668
 9432TIP3    H249788   4.015   4.968   0.752  1.0014  1.7541 -0.3519
 9433TIP3   OH249789   5.544   0.503   4.382 -0.0013  0.3160  0.0046
 9433TIP3    H149790   5.567   0.589   4.348 -0.0044  0.1532 -0.4176
 9433TIP3    H249791   5.488   0.521   4.457  0.7033  0.6973  0.4495
 9434TIP3   OH249792   0.755   1.919  13.415  0.6102 -1.0211  0.0700
 9434TIP3    H149793   0.809   1.898  13.339  2.0795 -2.1032  1.3383
 9434TIP3    H249794   0.754   1.838  13.466 -0.3835 -0.3470  1.1717
 9435TIP3   OH249795   2.133   3.749   3.783  0.2604  0.1846  0.4272
 9435TIP3    H149796   2.078   3.793   3.718  1.4402 -0.1155 -0.8072
 9435TIP3    H249797   2.176   3.820   3.830  0.3196  0.3807  0.0753
 9436TIP3   OH249798   2.899   2.728   4.621  0.0058 -0.3041 -0.2429
 9436TIP3    H149799   2.878   2.815   4.655  2.0009 -0.0806  0.5293
 9436TIP3    H249800   2.854   2.667   4.680  1.3086  0.1502  1.2844
 9437TIP3   OH249801   2.534   5.617  14.559 -0.2666 -0.3041 -0.5348
 9437TIP3    H149802   2.500   5.636  14.472  0.1807 -0.8108 -0.8273
 9437TIP3    H249803   2.456   5.610  14.614 -0.5035  1.0591 -0.6698
 9438TIP3   OH249804   6.297   5.448   4.269 -0.1454 -0.2922  0.7083
 9438TIP3    H149805   6.267   5.398   4.193 -0.7126  1.8925 -0.5908
 9438TIP3    H249806   6.251   5.409   4.343 -2.1864 -0.4124 -0.5409
 9439TIP3   OH249807   6.500   3.637   5.494  0.4604 -0.0145 -0.4723
 9439TIP3    H149808   6.575   3.629   5.434 -0.1756  0.3245 -1.3395
 9439TIP3    H249809   6.537   3.621   5.581  1.3135 -1.0275 -0.9975
 9440TIP3   OH249810   0.567   6.409  15.084  0.0391 -0.2044 -0.0966
 9440TIP3    H149811   0.528   6.331  15.125  0.5313  0.7040  2.2594
 9440TIP3    H249812   0.643   6.375  15.037  0.5545 -1.1142  1.3193
 9441TIP3   OH249813   1.930   1.436  11.547  0.7118  0.2081  0.4799
 9441TIP3    H149814   1.886   1.424  11.463  0.9096 -1.4168  0.5716
 9441TIP3    H249815   2.020   1.410  11.531  0.6702 -0.4767  1.2547
 9442TIP3   OH249816   4.657   1.731   4.610  0.3357 -0.0021  0.4059
 9442TIP3    H149817   4.657   1.762   4.520  2.3398  1.0784  0.7241
 9442TIP3    H249818   4.579   1.771   4.649  0.9775  1.8620 -0.1182
 9443TIP3   OH249819   3.124   5.952  12.212 -0.1486  0.3114  0.4019
 9443TIP3    H149820   3.095   6.041  12.190 -2.8023 -0.2360  1.3262
 9443TIP3    H249821   3.163   5.962  12.299  1.8984  0.9215 -0.5191
 9444TIP3   OH249822   4.837   5.956   5.836  0.3028 -0.1063  0.6199
 9444TIP3    H149823   4.792   5.972   5.753  0.6756 -0.8554  0.2642
 9444TIP3    H249824   4.898   6.029   5.845 -0.1600  0.2936  0.5305
 9445TIP3   OH249825   0.817   6.511   6.499 -0.3400  0.1982  0.5851
 9445TIP3    H149826   0.723   6.526   6.492 -0.5573 -1.2829 -0.3396
 9445TIP3    H249827   0.846   6.565   6.572 -2.0369  0.1486  1.3249
 9446TIP3   OH249828   0.673   0.518  12.446 -0.2360  0.5558  0.0309
 9446TIP3    H149829   0.766   0.522  12.425  0.2771  0.7550  2.1562
 9446TIP3    H249830   0.654   0.424  12.454 -0.0847  0.5321  0.1137
 9447TIP3   OH249831   6.595   3.251   3.172  0.0518  0.4313 -0.9546
 9447TIP3    H149832   6.654   3.176   3.177  0.3999  0.6893 -1.2380
 9447TIP3    H249833   6.527   3.224   3.109  0.4320  0.5329 -1.4103
 9448TIP3   OH249834   1.022   6.729   1.713  0.1295  0.5148 -0.1443
 9448TIP3    H149835   0.940   6.679   1.717  0.3125  0.0574 -1.5012
 9448TIP3    H249836   1.020   6.771   1.627  2.5920 -1.8477 -1.5089
 9449TIP3   OH249837   5.294   4.095  12.965 -0.0761 -0.1599 -0.4394
 9449TIP3    H149838   5.363   4.051  12.916 -1.1116 -1.5180 -0.7431
 9449TIP3    H249839   5.284   4.179  12.921 -1.0569 -1.3689 -2.7467
 9450TIP3   OH249840   6.437   0.211  14.405 -0.0483 -0.6738 -0.6427
 9450TIP3    H149841   6.471   0.200  14.494 -1.2040 -1.2933 -0.2558
 9450TIP3    H249842   6.515   0.217  14.350  0.7511 -3.2665  0.0528
 9451TIP3   OH249843   2.897   6.214   5.690  0.2230 -0.0647 -0.1878
 9451TIP3    H149844   2.841   6.291   5.703  1.3329  0.6810  0.4487
 9451TIP3    H249845   2.972   6.248   5.640  2.1512  0.0031  2.5421
 9452TIP3   OH249846   3.926   0.308   3.969  0.2452  0.1005 -0.0865
 9452TIP3    H149847   3.889   0.297   3.881 -0.4387  1.4466  0.0190
 9452TIP3    H249848   3.851   0.302   4.028  0.5700  0.1770  0.3407
 9453TIP3   OH249849   4.133   1.580  10.874  0.1010 -0.2739 -0.1232
 9453TIP3    H149850   4.085   1.533  10.943 -2.5945  1.4256 -0.6696
 9453TIP3    H249851   4.211   1.527  10.859 -1.7973 -3.6105  0.5436
 9454TIP3   OH249852   6.254   1.682   4.495 -0.1765 -0.2574  0.5655
 9454TIP3    H149853   6.167   1.714   4.523 -0.2428 -0.8445  1.0511
 9454TIP3    H249854   6.315   1.747   4.528 -0.3537 -0.3656  1.1141
 9455TIP3   OH249855   2.556   1.141  13.335 -0.1375  0.0482 -0.3442
 9455TIP3    H149856   2.506   1.213  13.372 -0.1249  0.0700 -0.3698
 9455TIP3    H249857   2.526   1.063  13.382  1.0362  0.2838  0.8595
 9456TIP3   OH249858   2.759   3.755   1.576  0.4902  0.2541 -0.4525
 9456TIP3    H149859   2.670   3.761   1.541 -0.2179  2.2004  1.4605
 9456TIP3    H249860   2.806   3.826   1.533  0.7367  0.1055 -0.4309
 9457TIP3   OH249861   6.260   3.557  12.505 -0.2280  0.3821 -0.6236
 9457TIP3    H149862   6.276   3.562  12.600 -0.7188 -0.2926 -0.5013
 9457TIP3    H249863   6.335   3.602  12.466 -0.7654  2.0402  0.1338
 9458TIP3   OH249864   1.604   2.608  13.189 -0.2135 -0.3227  0.2088
 9458TIP3    H149865   1.693   2.576  13.204  0.0086 -0.0553 -0.4695
 9458TIP3    H249866   1.558   2.534  13.149 -0.6308 -0.8324  1.5694
 9459TIP3   OH249867   0.525   5.052   1.751  0.3366  0.0756  0.1408
 9459TIP3    H149868   0.472   5.091   1.681  0.1479 -0.9584 -0.3150
 9459TIP3    H249869   0.595   5.005   1.705  0.2108 -0.6182  0.6281
 9460TIP3   OH249870   1.209   1.397  12.112  0.0910 -0.4536  0.6782
 9460TIP3    H149871   1.120   1.386  12.147 -0.3334  1.8717  0.5551
 9460TIP3    H249872   1.195   1.428  12.022  1.0867 -1.6034  0.0995
 9461TIP3   OH249873   1.368   6.680  13.423 -0.5974 -0.1880 -0.0065
 9461TIP3    H149874   1.420   6.610  13.383  1.0627  1.1925 -0.3781
 9461TIP3    H249875   1.317   6.715  13.350  1.9198  1.8723 -0.9213
 9462TIP3   OH249876   1.677   4.511   0.351  0.2877  0.1466 -0.3927
 9462TIP3    H149877   1.678   4.503   0.256  1.7146  2.8442 -0.6883
 9462TIP3    H249878   1.591   4.545   0.373 -1.0870 -3.0138 -0.3316
 9463TIP3   OH249879   5.768   5.119  14.848  0.6504 -0.2752 -0.5831
 9463TIP3    H149880   5.681   5.083  14.860  0.4466  0.6332  0.9433
 9463TIP3    H249881   5.827   5.051  14.880  0.3901 -0.1826  0.1120
 9464TIP3   OH249882   0.151   0.137   5.073  0.4838  0.2031 -0.2612
 9464TIP3    H149883   0.110   0.106   5.154  0.4285  1.1617  0.0859
 9464TIP3    H249884   0.149   0.232   5.080 -0.4042  0.3218 -1.8375
 9465TIP3   OH249885   4.475   4.733   0.263 -0.4913  0.0917  0.6643
 9465TIP3    H149886   4.560   4.775   0.276  0.4593 -1.6773  0.3753
 9465TIP3    H249887   4.440   4.723   0.352  0.8894 -1.6676  1.0708
 9466TIP3   OH249888   0.599   3.726   4.148  0.1853 -0.0977  0.1891
 9466TIP3    H149889   0.646   3.805   4.176 -0.1784 -0.2713  1.3871
 9466TIP3    H249890   0.524   3.721   4.208 -0.6154 -0.5606 -0.8105
 9467TIP3   OH249891   4.044   3.105   1.896 -0.9213 -0.4622  1.1375
 9467TIP3    H149892   3.966   3.157   1.917 -1.7245 -1.3131  0.3165
 9467TIP3    H249893   4.010   3.018   1.875  0.1261 -0.5375 -0.4004
 9468TIP3   OH249894   0.403   1.576  10.169 -0.5061  0.4528 -0.1106
 9468TIP3    H149895   0.313   1.589  10.141 -0.2450  1.3426 -0.5639
 9468TIP3    H249896   0.395   1.535  10.256 -1.3359  0.4686 -0.1697
 9469TIP3   OH249897   3.677   2.068  15.762  0.3567 -0.0330 -0.6763
 9469TIP3    H149898   3.690   2.000  15.828  1.5713  0.0924 -0.7754
 9469TIP3    H249899   3.726   2.038  15.686  1.2099  1.1001 -0.6060
 9470TIP3   OH249900   3.525   3.259   2.285  0.3149  0.3129  0.0377
 9470TIP3    H149901   3.615   3.226   2.286 -0.1177 -0.9329 -0.3229
 9470TIP3    H249902   3.471   3.181   2.271 -0.8076  1.0754  0.0049
 9471TIP3   OH249903   4.291   0.843   3.717 -0.0454  0.5233 -0.0897
 9471TIP3    H149904   4.301   0.757   3.676  2.7720  1.4517 -1.5759
 9471TIP3    H249905   4.220   0.885   3.669 -1.2415 -0.7792  0.4492
 9472TIP3   OH249906   1.675   1.984  15.001  0.6832  0.0177  0.1027
 9472TIP3    H149907   1.728   2.063  14.996  1.8372 -0.7603 -0.2173
 9472TIP3    H249908   1.727   1.916  14.959 -0.0859 -1.0280  0.7651
 9473TIP3   OH249909   5.003   3.250  15.357 -0.4499 -0.0259 -0.0512
 9473TIP3    H149910   5.097   3.236  15.343 -0.4930  0.1068 -0.4896
 9473TIP3    H249911   4.986   3.212  15.443  0.4405  1.8496  1.0273
 9474TIP3   OH249912   6.610   6.321   5.678 -0.0131 -0.5107  0.0903
 9474TIP3    H149913   6.570   6.237   5.701  1.6389 -1.5394 -0.6413
 9474TIP3    H249914   6.562   6.350   5.600 -1.9751  0.3240  1.4941
 9475TIP3   OH249915   4.484   4.887   1.003 -0.2554  0.1844  0.1539
 9475TIP3    H149916   4.535   4.808   0.987 -1.3084 -0.3104 -0.9438
 9475TIP3    H249917   4.429   4.896   0.925 -0.7652  1.5296  0.6369
 9476TIP3   OH249918   3.191   3.393   0.941  0.0485 -0.5849 -0.4081
 9476TIP3    H149919   3.245   3.359   1.012  0.6345 -0.8340 -0.9676
 9476TIP3    H249920   3.149   3.471   0.978  1.9586  0.5036 -0.4235
 9477TIP3   OH249921   0.382   1.670   0.002 -0.1885  0.4599  0.2413
 9477TIP3    H149922   0.449   1.653   0.068  1.1562  1.8840 -0.6811
 9477TIP3    H249923   0.356   1.761   0.016 -0.8202  0.3883 -0.3775
 9478TIP3   OH249924   4.019   1.470   6.771 -0.0052 -0.3426 -0.0099
 9478TIP3    H149925   4.051   1.555   6.740 -1.5678 -0.0653 -0.9734
 9478TIP3    H249926   4.081   1.407   6.734  0.9503  0.3364  0.3882
 9479TIP3   OH249927   1.058   5.059   0.171 -0.2597  0.1633  0.7942
 9479TIP3    H149928   1.037   5.002   0.097 -1.0225  0.6237  0.6567
 9479TIP3    H249929   1.038   5.147   0.141 -0.8340  0.3294  1.6432
 9480TIP3   OH249930   5.767   5.253  12.189 -0.1602 -0.2090  0.3721
 9480TIP3    H149931   5.793   5.283  12.102  2.1946 -0.9160  0.7363
 9480TIP3    H249932   5.764   5.333  12.242  1.7149 -0.0720  0.3450
 9481TIP3   OH249933   1.175   1.254   2.327  0.0680  0.0954  0.0575
 9481TIP3    H149934   1.100   1.218   2.375  0.7308  1.0146  1.9011
 9481TIP3    H249935   1.247   1.193   2.347  0.2459  0.2376 -0.1533
 9482TIP3   OH249936   1.693   1.917  14.362  0.2413 -0.1471  0.0617
 9482TIP3    H149937   1.744   1.846  14.400  1.0223 -0.9163 -2.2344
 9482TIP3    H249938   1.697   1.902  14.268 -0.8555  2.1005 -0.4272
 9483TIP3   OH249939   6.551   4.900  12.664  0.2473  0.1275  0.7760
 9483TIP3    H149940   6.643   4.923  12.677  0.2632  1.2475 -1.0132
 9483TIP3    H249941   6.553   4.828  12.601 -0.1154  0.4550  0.3863
 9484TIP3   OH249942   3.357   6.023   3.405  0.2054 -0.5038 -0.1836
 9484TIP3    H149943   3.366   6.056   3.316  0.6501  1.5163  0.5569
 9484TIP3    H249944   3.270   5.984   3.407 -0.1273  0.1244 -1.2845
 9485TIP3   OH249945   1.182   0.706  16.624  0.1012 -0.2519  0.2772
 9485TIP3    H149946   1.248   0.719  16.556  2.7360 -0.3500  2.5970
 9485TIP3    H249947   1.185   0.787  16.676 -1.0610 -0.5774  0.8967
 9486TIP3   OH249948   4.074   3.318  11.031  0.2094 -0.9604  0.6130
 9486TIP3    H149949   4.041   3.252  10.970  0.2924  0.2869 -0.8190
 9486TIP3    H249950   4.153   3.353  10.989 -0.4194  0.7958  0.8028
 9487TIP3   OH249951   1.778   1.430   4.063  0.2679  0.3696  0.3308
 9487TIP3    H149952   1.801   1.447   4.154 -3.0208  1.2080  1.1666
 9487TIP3    H249953   1.823   1.498   4.014 -0.1299  1.7240  1.7424
 9488TIP3   OH249954   3.834   6.242   3.145 -0.0883 -0.1399  0.0251
 9488TIP3    H149955   3.799   6.285   3.223 -2.1275  0.5284 -1.1584
 9488TIP3    H249956   3.796   6.154   3.148  1.3452 -0.7654  0.7019
 9489TIP3   OH249957   4.635   3.540   0.339 -0.4310 -0.2441 -0.0646
 9489TIP3    H149958   4.560   3.480   0.343 -0.3185 -0.3286  1.4268
 9489TIP3    H249959   4.609   3.607   0.276 -0.7418 -1.6057 -1.4503
 9490TIP3   OH249960   1.490   1.461   0.126  0.3509  0.2150 -0.0195
 9490TIP3    H149961   1.443   1.385   0.161  1.1846 -0.8262 -1.0820
 9490TIP3    H249962   1.567   1.469   0.183 -0.0053  0.6069  0.4169
 9491TIP3   OH249963   4.964   1.119  16.172 -0.2455 -0.1768 -0.1493
 9491TIP3    H149964   4.956   1.190  16.109  1.6490  1.1728  1.0001
 9491TIP3    H249965   5.007   1.159  16.248  1.6598 -2.6750  0.2504
 9492TIP3   OH249966   6.217   6.420   1.237  0.0965 -0.3162 -0.7741
 9492TIP3    H149967   6.130   6.431   1.197  0.0327  0.4973 -0.4417
 9492TIP3    H249968   6.231   6.501   1.286  1.4073 -0.0771 -1.5024
 9493TIP3   OH249969   6.342   1.745  16.133 -0.1498 -0.7985 -0.4097
 9493TIP3    H149970   6.417   1.689  16.114  0.6130 -0.3795  1.1885
 9493TIP3    H249971   6.372   1.803  16.203 -1.4562  0.4773 -0.8422
 9494TIP3   OH249972   5.283   1.276  17.200 -0.3846  0.1688 -0.0239
 9494TIP3    H149973   5.216   1.332  17.160  0.5017  2.2218  1.2037
 9494TIP3    H249974   5.305   1.320  17.282  0.3128 -2.0801  1.0720
 9495TIP3   OH249975   5.654   4.584  14.501 -0.1951  0.4852 -0.4715
 9495TIP3    H149976   5.671   4.499  14.461 -0.4074 -0.0480  0.5309
 9495TIP3    H249977   5.596   4.629  14.439 -2.6462 -1.3243  0.3487
 9496TIP3   OH249978   1.956   6.021   3.855 -0.3019  0.4763 -0.2231
 9496TIP3    H149979   2.036   6.015   3.906 -0.0975  1.2987 -0.4363
 9496TIP3    H249980   1.895   6.069   3.911 -0.6069 -0.0352 -0.1116
 9497TIP3   OH249981   1.039   2.888   1.387 -0.0665 -0.1008  0.6310
 9497TIP3    H149982   0.981   2.959   1.414 -0.0177  0.3656 -0.4473
 9497TIP3    H249983   1.109   2.931   1.338 -1.3231 -1.0206 -2.2099
 9498TIP3   OH249984   6.676   2.163   4.598  0.0720 -0.1525 -0.1318
 9498TIP3    H149985   6.606   2.202   4.651  0.1400  0.6214 -0.5908
 9498TIP3    H249986   6.642   2.076   4.575 -0.3639 -0.1254  0.3778
 9499TIP3   OH249987   6.472   6.765   5.141 -0.3677 -0.5997  0.3695
 9499TIP3    H149988   6.436   6.779   5.054 -1.8726 -1.3098  0.8447
 9499TIP3    H249989   6.454   6.846   5.188  0.8482 -0.0451 -0.0882
 9500TIP3   OH249990   6.291   4.703   0.541 -0.2219 -0.1061  0.5844
 9500TIP3    H149991   6.367   4.660   0.582  0.6139  2.4548  1.9727
 9500TIP3    H249992   6.215   4.656   0.575  0.6206 -0.1820  2.4958
 9501TIP3   OH249993   3.289   0.149  14.929  0.1102 -0.3957  0.2191
 9501TIP3    H149994   3.226   0.125  14.997 -0.0392 -0.0102  0.2172
 9501TIP3    H249995   3.248   0.122  14.847  0.5792 -1.4783  0.3262
 9502TIP3   OH249996   5.107   6.567   3.097 -0.8082 -0.0720  0.2754
 9502TIP3    H149997   5.173   6.508   3.132 -0.9804 -0.9997 -0.9223
 9502TIP3    H249998   5.057   6.595   3.174 -2.3223 -3.4608  0.7016
 9503TIP3   OH249999   5.670   1.665   0.196  0.1159  0.9653 -0.4799
 9503TIP3    H150000   5.676   1.572   0.175  2.0703  0.9342 -0.0322
 9503TIP3    H250001   5.587   1.675   0.242 -0.6238 -0.3371 -1.4627
 9504TIP3   OH250002   6.796   5.267  17.113 -0.2326  0.6050  0.0022
 9504TIP3    H150003   6.764   5.356  17.130 -0.2729  0.6016 -0.0551
 9504TIP3    H250004   6.864   5.277  17.047 -0.6708  0.5317 -0.4748
 9505TIP3   OH250005   6.329   1.934   3.660 -0.6116  0.1871  0.3254
 9505TIP3    H150006   6.308   1.997   3.592  0.7235  1.5950  1.1377
 9505TIP3    H250007   6.384   1.869   3.616 -0.8809  0.3329 -0.2338
 9506TIP3   OH250008   4.045   5.908  12.074 -0.1996 -0.1909  0.2026
 9506TIP3    H150009   4.107   5.836  12.069 -0.8737 -0.8408  0.8476
 9506TIP3    H250010   4.092   5.984  12.039  0.8668 -0.7168  0.4615
 9507TIP3   OH250011   3.837   0.123   0.037  0.2781  0.0604  0.2327
 9507TIP3    H150012   3.874   0.208   0.062  0.2450  0.8785 -2.2221
 9507TIP3    H250013   3.798   0.139  -0.049  3.1294 -3.1397 -1.9186
 9508TIP3   OH250014   5.074   0.431  14.629  0.4564 -0.0985  0.5804
 9508TIP3    H150015   5.091   0.339  14.649  0.2003 -0.0677  0.9514
 9508TIP3    H250016   5.143   0.455  14.567 -0.1521 -0.8626 -0.4265
 9509TIP3   OH250017   5.501   5.075   5.088 -0.4322  0.0573 -0.1029
 9509TIP3    H150018   5.530   4.990   5.053  1.2138  0.4065  0.3138
 9509TIP3    H250019   5.565   5.095   5.156 -0.5512  1.8191 -0.4661
 9510TIP3   OH250020   1.780   4.672  12.769 -0.2396 -0.4609  0.0787
 9510TIP3    H150021   1.800   4.595  12.716  0.4672 -1.0551  1.1691
 9510TIP3    H250022   1.746   4.736  12.707 -0.0868 -1.3746 -0.9705
 9511TIP3   OH250023   2.648   1.465  13.495  0.7771 -0.2098  0.0314
 9511TIP3    H150024   2.669   1.495  13.584  0.3491 -0.0529  0.0811
 9511TIP3    H250025   2.558   1.493  13.481  0.5935 -0.8853 -0.1749
 9512TIP3   OH250026   5.432   6.685   0.910 -0.4940  0.1162  0.7303
 9512TIP3    H150027   5.522   6.677   0.940 -0.2188  0.4684  0.0212
 9512TIP3    H250028   5.424   6.617   0.842 -0.2105  1.2479 -0.4697
 9513TIP3   OH250029   5.835   1.817  16.055 -0.0409  0.5236  0.2673
 9513TIP3    H150030   5.878   1.744  16.099 -0.5992 -0.3420 -0.5875
 9513TIP3    H250031   5.883   1.894  16.084  1.6993 -0.3500 -0.1759
 9514TIP3   OH250032   1.423   0.585  14.630 -0.0277  0.1965  0.1745
 9514TIP3    H150033   1.393   0.554  14.716  0.9666 -0.3708  0.3311
 9514TIP3    H250034   1.413   0.680  14.633  2.5746  0.5137  1.9861
 9515TIP3   OH250035   6.035   0.465   3.681  0.0660 -0.4384  0.0561
 9515TIP3    H150036   6.017   0.527   3.752 -0.3954 -0.8429  0.3049
 9515TIP3    H250037   6.129   0.469   3.668  0.4741 -1.8172  2.0818
 9516TIP3   OH250038   3.407   1.818  12.546 -0.3280  0.3207 -0.2400
 9516TIP3    H150039   3.387   1.837  12.454  0.7134  2.1946 -0.1099
 9516TIP3    H250040   3.503   1.814  12.549 -0.3734 -0.3810  0.6629
 9517TIP3   OH250041   6.628   2.856   4.451  0.5340  0.1892  1.1000
 9517TIP3    H150042   6.646   2.763   4.435 -1.0735 -0.6177  3.5303
 9517TIP3    H250043   6.714   2.893   4.471  1.5341 -0.2226 -1.8509
 9518TIP3   OH250044   1.726   6.085   1.439 -0.0210 -0.7650  1.3283
 9518TIP3    H150045   1.740   6.027   1.365  1.6414 -1.1891  1.9405
 9518TIP3    H250046   1.659   6.147   1.409  0.7653 -0.7776 -0.5972
 9519TIP3   OH250047   0.625   1.197  14.609 -0.1535  0.0124 -0.0472
 9519TIP3    H150048   0.626   1.212  14.514  0.3157  0.6455  0.0522
 9519TIP3    H250049   0.566   1.123  14.621  0.5795 -0.7371 -0.9358
 9520TIP3   OH250050   0.801   6.414   2.801 -0.4029 -0.6891 -0.2919
 9520TIP3    H150051   0.821   6.430   2.709  0.0742 -0.8350 -0.2172
 9520TIP3    H250052   0.708   6.438   2.810  0.1953  1.8382 -0.2197
 9521TIP3   OH250053   5.602   5.793  10.612  0.5100  0.3348 -0.1615
 9521TIP3    H150054   5.651   5.740  10.674  1.4595  1.3829  0.0261
 9521TIP3    H250055   5.536   5.838  10.665 -0.2411 -0.5761 -0.3082
 9522TIP3   OH250056   3.690   6.012  16.879 -0.2233  0.1174 -0.0242
 9522TIP3    H150057   3.664   6.024  16.971  1.8239 -1.5676  0.8530
 9522TIP3    H250058   3.748   5.936  16.880 -1.0649 -0.6989 -2.9314
 9523TIP3   OH250059   1.177   5.888   6.214  0.2077  0.2462 -0.4855
 9523TIP3    H150060   1.183   5.835   6.293  0.9112  0.3891 -0.4375
 9523TIP3    H250061   1.166   5.978   6.246 -1.6446  0.0921 -0.5658
 9524TIP3   OH250062   4.235   2.950   3.066 -0.5902  0.3152 -0.1781
 9524TIP3    H150063   4.181   2.877   3.096  2.7536 -2.2709  0.0801
 9524TIP3    H250064   4.245   2.936   2.972 -0.0161  0.4832 -0.1451
 9525TIP3   OH250065   1.220   3.545  12.310 -0.2420 -0.2856  0.1676
 9525TIP3    H150066   1.272   3.465  12.313 -0.3711 -0.5557 -2.4286
 9525TIP3    H250067   1.149   3.525  12.248 -0.6182  1.6307 -0.0817
 9526TIP3   OH250068   1.856   1.572  13.565  0.0962  0.5909  0.0459
 9526TIP3    H150069   1.792   1.504  13.545  0.0944  0.7296 -0.4483
 9526TIP3    H250070   1.805   1.642  13.606  0.2321 -0.0365  1.3258
 9527TIP3   OH250071   1.987   4.905  14.183 -0.1313 -0.1924 -0.0799
 9527TIP3    H150072   1.966   4.833  14.243  0.9214 -0.5599 -0.1339
 9527TIP3    H250073   1.942   4.981  14.220 -1.0136 -0.8143  0.1442
 9528TIP3   OH250074   3.988   5.863   4.065  0.3018 -0.0358 -0.2416
 9528TIP3    H150075   4.009   5.779   4.106  1.5736 -0.4047 -1.5689
 9528TIP3    H250076   4.058   5.877   4.000 -2.1336 -0.0684 -3.1000
 9529TIP3   OH250077   3.151   6.692  17.220 -0.1989 -0.6676 -0.4349
 9529TIP3    H150078   3.067   6.737  17.219 -0.2345 -0.7314 -0.3039
 9529TIP3    H250079   3.201   6.733  17.149  0.5966  1.1519  1.0975
 9530TIP3   OH250080   5.735   0.786   2.952  0.2228 -0.5467 -0.8100
 9530TIP3    H150081   5.650   0.743   2.960 -1.5700  2.7531 -0.3414
 9530TIP3    H250082   5.794   0.734   3.008 -1.4938 -2.7323 -0.8934
 9531TIP3   OH250083   3.526   4.328   4.738 -0.2803 -0.4496 -0.3809
 9531TIP3    H150084   3.604   4.273   4.731  0.3071  0.0729  1.6143
 9531TIP3    H250085   3.465   4.277   4.791 -0.6046 -0.1009 -0.4096
 9532TIP3   OH250086   4.829   2.423  16.358 -0.1548 -0.2640 -0.2209
 9532TIP3    H150087   4.789   2.336  16.366 -1.4170  0.1628 -1.5800
 9532TIP3    H250088   4.840   2.437  16.264  2.0493  0.1889  0.0550
 9533TIP3   OH250089   5.559   2.890   1.671 -0.1919 -0.5172  0.6478
 9533TIP3    H150090   5.521   2.814   1.716 -2.4456  0.8434  1.1482
 9533TIP3    H250091   5.518   2.890   1.585  2.1780 -1.5982 -0.5884
 9534TIP3   OH250092   0.868   1.068   6.291  0.1899 -0.7155  0.7206
 9534TIP3    H150093   0.937   1.108   6.238  0.5167 -0.1245  1.5677
 9534TIP3    H250094   0.909   0.991   6.329  0.2411 -0.6245  0.8505
 9535TIP3   OH250095   3.501   6.141   4.409  0.0015 -0.0741 -0.1250
 9535TIP3    H150096   3.409   6.168   4.398  0.2264  0.2883 -1.3001
 9535TIP3    H250097   3.546   6.221   4.436  0.0141 -0.1928  0.2062
 9536TIP3   OH250098   0.677   1.177  12.995 -0.7525 -0.2022 -0.0109
 9536TIP3    H150099   0.750   1.182  12.934 -0.9941 -0.6854 -0.3467
 9536TIP3    H250100   0.621   1.251  12.973 -0.2299  0.3362  0.4323
 9537TIP3   OH250101   5.366   3.535   0.018  0.0253 -0.6913  0.0238
 9537TIP3    H150102   5.437   3.575  -0.032  0.9339  0.2699  1.9405
 9537TIP3    H250103   5.329   3.469  -0.040  2.5709 -1.3106 -1.0128
 9538TIP3   OH250104   6.560   6.661   4.737  0.2430 -1.1038  0.4241
 9538TIP3    H150105   6.614   6.642   4.661 -0.8711 -0.4857 -0.5442
 9538TIP3    H250106   6.478   6.615   4.721 -0.2260 -0.4758  0.9510
 9539TIP3   OH250107   0.826   0.482   1.293  1.1121  0.0436 -0.5204
 9539TIP3    H150108   0.827   0.568   1.335  1.5758  0.6005 -1.6212
 9539TIP3    H250109   0.839   0.501   1.200 -0.9543 -1.0690 -1.0986
 9540TIP3   OH250110   5.085   4.891   1.225 -0.4184 -0.0010  0.1020
 9540TIP3    H150111   5.107   4.801   1.203 -0.4520 -0.0942  0.4435
 9540TIP3    H250112   5.033   4.884   1.305 -1.9378  0.1919 -0.8405
 9541TIP3   OH250113   2.734   2.226  13.975  0.3527  0.2754 -0.0828
 9541TIP3    H150114   2.735   2.133  13.996  1.9830  0.0498 -0.9730
 9541TIP3    H250115   2.768   2.269  14.053 -0.8605  0.1946  0.5115
 9542TIP3   OH250116   0.337   1.948   5.457 -0.3164  0.2143  0.5114
 9542TIP3    H150117   0.250   1.923   5.488 -0.1439 -2.0057 -0.5624
 9542TIP3    H250118   0.395   1.883   5.495  0.5287  0.2574 -0.6631
 9543TIP3   OH250119   4.392   6.466  15.567  0.1140 -0.0362 -0.2380
 9543TIP3    H150120   4.452   6.537  15.589 -0.9594  0.8861 -0.2234
 9543TIP3    H250121   4.379   6.420  15.650 -1.7382  1.7546  0.5347
 9544TIP3   OH250122   5.510   5.334  12.419  0.3384 -0.5738  0.3213
 9544TIP3    H150123   5.440   5.302  12.361 -1.6622 -0.2314  2.4277
 9544TIP3    H250124   5.578   5.365  12.359 -2.4289  1.6806 -1.9625
 9545TIP3   OH250125   0.988   0.521   1.705 -0.0698  0.3802  0.2434
 9545TIP3    H150126   0.974   0.567   1.788 -0.1725  1.7619 -0.5021
 9545TIP3    H250127   0.966   0.586   1.638 -1.0997 -1.0601 -0.8720
 9546TIP3   OH250128   1.272   3.238   4.383 -0.2347  0.8101  0.2433
 9546TIP3    H150129   1.319   3.168   4.429 -0.6685  0.2402 -0.1739
 9546TIP3    H250130   1.188   3.200   4.359  1.3693 -0.4027 -4.6775
 9547TIP3   OH250131   5.705   0.682   3.296  0.1426 -0.5404  0.2437
 9547TIP3    H150132   5.760   0.655   3.222  0.5291  1.7515 -0.4054
 9547TIP3    H250133   5.757   0.662   3.373  0.5503 -1.2459 -0.2027
 9548TIP3   OH250134   2.947   2.129  12.990 -0.2236  0.5989  0.9456
 9548TIP3    H150135   3.037   2.098  12.980 -0.8832 -1.3388  0.5853
 9548TIP3    H250136   2.928   2.116  13.083  0.0721  1.6864  1.1744
 9549TIP3   OH250137   3.194   1.394   3.730  0.6620 -0.9465 -0.1001
 9549TIP3    H150138   3.140   1.335   3.677  1.8272 -1.5402 -0.6688
 9549TIP3    H250139   3.207   1.470   3.674  0.5729 -0.8858 -0.0380
 9550TIP3   OH250140   3.087   0.655   3.909 -0.6522  0.4398  0.4626
 9550TIP3    H150141   3.046   0.660   3.995  0.1960 -2.6378  1.1837
 9550TIP3    H250142   3.032   0.594   3.860  1.1981 -1.2728  0.3890
 9551TIP3   OH250143   1.846   6.502   2.211 -0.4291  0.2162 -0.0048
 9551TIP3    H150144   1.881   6.469   2.294 -0.6308 -0.1838 -0.0755
 9551TIP3    H250145   1.923   6.532   2.163 -0.0022 -1.6803 -0.6218
 9552TIP3   OH250146   0.102   1.732  16.386 -0.0533  0.2850 -0.1049
 9552TIP3    H150147   0.129   1.814  16.343  2.5649  0.2202  1.2029
 9552TIP3    H250148   0.105   1.751  16.479 -2.5136 -0.4785  0.1906
 9553TIP3   OH250149   1.782   4.880   5.808  0.4266  0.4056  0.2555
 9553TIP3    H150150   1.853   4.942   5.792  0.2287  0.3544 -0.9978
 9553TIP3    H250151   1.735   4.915   5.883 -0.3985  2.4766 -1.1431
 9554TIP3   OH250152   3.387   5.625  11.218 -0.4200  0.4665  0.1938
 9554TIP3    H150153   3.463   5.567  11.210 -0.9706 -0.2535  0.0704
 9554TIP3    H250154   3.359   5.639  11.127 -0.0933  1.2040  0.1998
 9555TIP3   OH250155   5.899   2.544  11.731 -0.3818 -0.1785  0.2216
 9555TIP3    H150156   5.932   2.584  11.811 -0.6607  0.7955 -0.1323
 9555TIP3    H250157   5.844   2.471  11.761 -0.3253  0.0534  0.9028
 9556TIP3   OH250158   5.994   4.147  13.614  0.3521 -0.3924  0.0952
 9556TIP3    H150159   5.945   4.164  13.695  1.6725 -0.6887  0.9829
 9556TIP3    H250160   5.930   4.161  13.544 -1.1370 -1.2573  1.2285
 9557TIP3   OH250161   2.688   5.603   0.667 -0.3833  0.0601 -0.0600
 9557TIP3    H150162   2.735   5.521   0.653 -1.2982 -0.3989 -0.5187
 9557TIP3    H250163   2.698   5.621   0.760  0.2150 -0.3232 -0.0438
 9558TIP3   OH250164   0.761   3.689  16.215 -0.2881 -0.2615  0.2939
 9558TIP3    H150165   0.794   3.697  16.126  0.1904  0.1449  0.5029
 9558TIP3    H250166   0.838   3.663  16.266 -0.8322 -1.8192  0.3748
 9559TIP3   OH250167   3.413   4.774  13.031 -0.2156  0.2005  0.3103
 9559TIP3    H150168   3.436   4.693  12.985  0.9204  0.1101  0.9939
 9559TIP3    H250169   3.364   4.745  13.108  0.0343  0.1691  0.4593
 9560TIP3   OH250170   0.664   3.438  16.938  0.7752  0.0441 -0.1971
 9560TIP3    H150171   0.759   3.435  16.944  0.8117  1.2107 -0.1035
 9560TIP3    H250172   0.634   3.369  16.998  1.5069  1.1547  1.5060
 9561TIP3   OH250173   6.245   6.499  14.618  0.3106  0.8568 -0.2869
 9561TIP3    H150174   6.270   6.502  14.525  1.0011 -0.8942 -0.1992
 9561TIP3    H250175   6.327   6.505  14.666  0.1803 -0.4604  0.1333
 9562TIP3   OH250176   6.745   1.903   3.370  0.0375  0.1461  0.6289
 9562TIP3    H150177   6.659   1.912   3.329 -0.6817  1.1847  2.2700
 9562TIP3    H250178   6.767   1.992   3.399  1.8059 -0.0425  0.0338
 9563TIP3   OH250179   5.285   6.155  14.196  0.6622  0.1788 -0.0975
 9563TIP3    H150180   5.356   6.124  14.252  0.8821  1.1979  0.2147
 9563TIP3    H250181   5.326   6.219  14.138  0.6634 -1.6117 -2.1946
 9564TIP3   OH250182   4.230   1.244   3.424  0.1852  0.0127  0.2504
 9564TIP3    H150183   4.226   1.302   3.348  0.1927  0.3283  0.4928
 9564TIP3    H250184   4.244   1.302   3.499 -1.3417 -0.1479  0.6928
 9565TIP3   OH250185   6.450   1.955   0.798  0.5835  0.4092  0.4437
 9565TIP3    H150186   6.415   2.042   0.819  2.6469  1.5360 -0.4259
 9565TIP3    H250187   6.493   1.968   0.713  2.1323 -1.1078  0.9599
 9566TIP3   OH250188   6.464   0.583  16.127  0.2195  0.3842 -0.2339
 9566TIP3    H150189   6.412   0.513  16.087  1.3416  0.4314 -1.8962
 9566TIP3    H250190   6.402   0.631  16.182 -0.9442 -0.9290 -0.3565
 9567TIP3   OH250191   5.198   4.862   2.233 -0.2712  0.0056 -0.2885
 9567TIP3    H150192   5.159   4.807   2.165 -0.4125 -0.3984  0.1206
 9567TIP3    H250193   5.214   4.803   2.306  0.3272  0.3428 -0.1425
 9568TIP3   OH250194   0.112   1.717   1.925 -0.3081  0.0416  0.3855
 9568TIP3    H150195   0.086   1.628   1.950  0.1598 -0.5626 -1.1744
 9568TIP3    H250196   0.038   1.750   1.875 -0.5179  0.5752  1.0428
 9569TIP3   OH250197   6.138   3.279   4.221  0.4187  0.1433  0.0711
 9569TIP3    H150198   6.200   3.269   4.294  2.0052 -2.0604 -1.4612
 9569TIP3    H250199   6.179   3.343   4.163  0.0992  0.4296  0.1555
 9570TIP3   OH250200   3.904   4.282   2.250 -0.5006 -0.4423  0.2768
 9570TIP3    H150201   3.996   4.263   2.266 -0.6603  0.2202  2.3186
 9570TIP3    H250202   3.890   4.261   2.158  2.0278  0.7762 -0.4691
 9571TIP3   OH250203   4.565   0.247   1.339 -0.5934  0.2846  0.6508
 9571TIP3    H150204   4.586   0.304   1.265  0.0520  0.9151  1.3094
 9571TIP3    H250205   4.643   0.194   1.352 -1.0500 -0.5010  0.2921
 9572TIP3   OH250206   3.637   1.860   3.239  0.5853  0.2808 -0.2220
 9572TIP3    H150207   3.636   1.766   3.256  1.6739  0.2432 -0.3129
 9572TIP3    H250208   3.723   1.890   3.271 -0.5184  1.6151  1.7328
 9573TIP3   OH250209   0.886   6.150  14.674  0.1297  0.3286 -0.1639
 9573TIP3    H150210   0.945   6.118  14.742 -0.7844  2.0901  1.5562
 9573TIP3    H250211   0.798   6.141  14.712 -0.4802  0.4393 -1.5064
 9574TIP3   OH250212   1.495   0.726  11.273 -0.0969  0.0403 -0.6608
 9574TIP3    H150213   1.454   0.811  11.287  0.2781  0.0616  0.4005
 9574TIP3    H250214   1.446   0.687  11.201 -1.8738  0.1672  0.4149
 9575TIP3   OH250215   0.137   3.100  16.309  0.3885  0.0484 -0.2038
 9575TIP3    H150216   0.077   3.032  16.340 -0.1946  0.8454  0.4693
 9575TIP3    H250217   0.219   3.084  16.356  0.3973 -0.4442 -0.3808
 9576TIP3   OH250218   0.867   1.856  14.441  0.4913 -0.4099 -0.0018
 9576TIP3    H150219   0.936   1.910  14.403  0.2395 -0.3957 -0.4495
 9576TIP3    H250220   0.790   1.874  14.387  0.6794 -2.0976 -0.9273
 9577TIP3   OH250221   2.733   5.280  12.826  0.0764  0.4600  0.0426
 9577TIP3    H150222   2.829   5.285  12.830  0.3508 -1.9920 -1.3797
 9577TIP3    H250223   2.712   5.293  12.734 -0.9733  0.8342  0.3169
 9578TIP3   OH250224   0.833   1.258  12.496 -0.0320 -0.0060  0.3260
 9578TIP3    H150225   0.845   1.345  12.533  1.5798  1.1291 -2.5007
 9578TIP3    H250226   0.921   1.232  12.468 -0.4364 -2.6913  1.2720
 9579TIP3   OH250227   0.155   3.083   0.417 -0.3065 -0.4405 -0.7204
 9579TIP3    H150228   0.119   3.149   0.476  0.9460 -0.3379 -0.0313
 9579TIP3    H250229   0.105   3.093   0.336 -1.3027  0.1691 -0.0500
 9580TIP3   OH250230   0.335   2.957   1.907  0.2228  0.4112 -0.3502
 9580TIP3    H150231   0.278   2.915   1.843  0.1077  0.9762 -0.6329
 9580TIP3    H250232   0.302   3.047   1.912  0.9732  0.6944 -0.3834
 9581TIP3   OH250233   6.095   2.846   1.125 -0.4188 -0.2158  0.3403
 9581TIP3    H150234   6.132   2.919   1.174 -1.2935  2.2995 -2.4590
 9581TIP3    H250235   6.001   2.855   1.137 -0.5391 -0.8296 -0.1332
 9582TIP3   OH250236   3.662   3.655   0.817 -0.9118  0.4141 -0.7475
 9582TIP3    H150237   3.580   3.691   0.851 -2.5340 -2.8188 -0.8923
 9582TIP3    H250238   3.710   3.627   0.895 -1.6687 -1.0655 -0.7941
 9583TIP3   OH250239   1.117   1.638   4.963  0.5133 -0.0829 -0.5515
 9583TIP3    H150240   1.060   1.647   5.039  1.6491 -0.6393  0.4125
 9583TIP3    H250241   1.161   1.554   4.976  0.5552 -0.3020 -1.9590
 9584TIP3   OH250242   2.350   5.349   1.840  0.3824 -0.5771 -0.3417
 9584TIP3    H150243   2.412   5.414   1.873  1.7148 -2.6777  1.5383
 9584TIP3    H250244   2.333   5.377   1.750  2.7379  1.0490 -0.3914
 9585TIP3   OH250245   4.466   6.011   4.408  0.3971 -0.2741 -0.3948
 9585TIP3    H150246   4.389   6.005   4.464  0.2315  1.6486 -0.3263
 9585TIP3    H250247   4.433   5.995   4.320 -0.1966  0.8894 -0.4125
 9586TIP3   OH250248   5.895   2.773   5.045  0.1744 -0.0476 -0.0512
 9586TIP3    H150249   5.928   2.830   4.975  1.5580 -2.0824 -1.1869
 9586TIP3    H250250   5.805   2.801   5.059  0.7002  2.1915 -0.7221
 9587TIP3   OH250251   1.204   2.576  15.396  0.1059 -0.3341  0.1269
 9587TIP3    H150252   1.275   2.572  15.332  1.4261  1.1852  1.3888
 9587TIP3    H250253   1.140   2.635  15.357  1.0625  0.8677  0.3019
 9588TIP3   OH250254   4.399   0.030  13.460 -0.3166  0.6585 -0.3914
 9588TIP3    H150255   4.491   0.010  13.475 -0.2242  1.3170 -0.0568
 9588TIP3    H250256   4.352  -0.023  13.524 -0.3199 -1.2316 -1.8736
 9589TIP3   OH250257   3.655   4.866  12.822 -0.4865  0.8255 -0.3234
 9589TIP3    H150258   3.567   4.896  12.844 -0.4471  0.5112  0.2661
 9589TIP3    H250259   3.642   4.781  12.781 -0.3136 -0.4225  2.0575
 9590TIP3   OH250260   6.528   1.090   6.384  0.2309 -0.2786  0.3561
 9590TIP3    H150261   6.479   1.161   6.424 -0.4169 -0.1241 -0.6866
 9590TIP3    H250262   6.462   1.022   6.366  0.2995  0.0666 -1.3635
 9591TIP3   OH250263   5.050   6.519   1.009  0.4609 -0.0870 -0.4313
 9591TIP3    H150264   5.075   6.592   0.952 -0.3752  0.3030 -0.3263
 9591TIP3    H250265   5.128   6.501   1.061  0.9603  0.1253 -1.0954
 9592TIP3   OH250266   0.156   2.250   0.699 -0.0091 -0.1964 -0.4728
 9592TIP3    H150267   0.075   2.298   0.720 -0.1033 -0.7610  0.4779
 9592TIP3    H250268   0.223   2.318   0.693 -0.7799  0.4610 -2.6690
 9593TIP3   OH250269   4.552   4.333  17.185 -0.5927 -0.2610  0.1776
 9593TIP3    H150270   4.484   4.399  17.202  0.7851  1.6950 -1.4255
 9593TIP3    H250271   4.554   4.325  17.090  1.5214 -0.1082  0.1547
 9594TIP3   OH250272   2.291   6.237   2.751  0.1893 -0.3552  0.4463
 9594TIP3    H150273   2.354   6.221   2.681 -0.6146 -1.3298 -0.0710
 9594TIP3    H250274   2.244   6.316   2.723  0.7085 -0.0179  0.5085
 9595TIP3   OH250275   5.446   3.092  13.389 -0.6904 -0.0215  0.0218
 9595TIP3    H150276   5.423   3.025  13.326  1.8208 -1.6238  0.6864
 9595TIP3    H250277   5.469   3.169  13.336 -1.9151 -0.2010 -0.8064
 9596TIP3   OH250278   2.547   2.652   0.485 -0.5178  1.1611  0.4205
 9596TIP3    H150279   2.540   2.741   0.449 -2.6813  0.9847  0.2967
 9596TIP3    H250280   2.458   2.617   0.481  0.0709 -0.6018  1.5585
 9597TIP3   OH250281   6.102   0.599  17.034  0.1643  0.3903 -0.1901
 9597TIP3    H150282   6.031   0.600  17.097 -2.5833 -1.6389 -2.9399
 9597TIP3    H250283   6.158   0.526  17.061  0.9321  1.5906  1.6214
 9598TIP3   OH250284   6.580   3.308   5.543  0.4664  0.2490  0.2423
 9598TIP3    H150285   6.594   3.359   5.622 -0.3921  1.8970 -0.6052
 9598TIP3    H250286   6.488   3.280   5.549 -0.5544  2.8632 -1.4291
 9599TIP3   OH250287   0.271   4.202  15.298  0.4649  0.5493 -0.5916
 9599TIP3    H150288   0.278   4.137  15.228  0.0151 -0.2685  0.0967
 9599TIP3    H250289   0.268   4.286  15.253 -0.6682 -0.0003 -1.6027
 9600TIP3   OH250290   0.704   2.649  16.597  0.5694  0.1546 -0.2117
 9600TIP3    H150291   0.641   2.682  16.661 -0.2796  0.5696 -1.2318
 9600TIP3    H250292   0.755   2.726  16.572  2.2280 -0.3658  1.3725
 9601TIP3   OH250293   3.451   6.013   2.130 -0.3537  0.1492 -0.4880
 9601TIP3    H150294   3.465   6.017   2.035  0.4571 -1.1893 -0.4561
 9601TIP3    H250295   3.451   6.104   2.159 -3.4265  0.8398 -2.1346
 9602TIP3   OH250296   2.711   2.016  16.563 -0.0003 -0.5425 -0.0985
 9602TIP3    H150297   2.762   1.961  16.504  1.0581  0.2456  0.0517
 9602TIP3    H250298   2.693   2.095  16.512  1.5142  0.4388  0.8174
 9603TIP3   OH250299   6.446   5.987  11.434 -0.2624 -0.0298 -0.5927
 9603TIP3    H150300   6.367   6.029  11.398  0.5467  0.5592 -1.7451
 9603TIP3    H250301   6.417   5.948  11.516 -1.8112 -0.0312 -1.1140
 9604TIP3   OH250302   2.060   1.722  14.143 -0.5198  0.1379 -0.5615
 9604TIP3    H150303   2.049   1.787  14.073  0.0795 -1.3646 -2.1073
 9604TIP3    H250304   2.016   1.644  14.111 -0.9936 -0.3379  1.1477
 9605TIP3   OH250305   2.120   3.899  16.022 -0.2098 -0.4133 -0.3882
 9605TIP3    H150306   2.089   3.835  15.957 -0.5072  0.5198 -1.1804
 9605TIP3    H250307   2.215   3.885  16.026 -0.0335  0.2005 -1.8048
 9606TIP3   OH250308   6.522   2.377  14.354  0.4765 -0.7161 -0.0069
 9606TIP3    H150309   6.519   2.282  14.346  0.5883 -0.7448  0.3057
 9606TIP3    H250310   6.575   2.394  14.431 -0.9782 -0.4405  0.9776
 9607TIP3   OH250311   0.925   6.763  14.676  0.3629  0.2831  0.1307
 9607TIP3    H150312   0.961   6.697  14.617 -0.5227  1.6339 -2.0439
 9607TIP3    H250313   0.940   6.727  14.764  1.4535 -1.9671 -0.8827
 9608TIP3   OH250314   6.298   3.184   0.582  0.0616  0.5909  0.6170
 9608TIP3    H150315   6.222   3.223   0.538 -1.6334 -2.7883  0.1680
 9608TIP3    H250316   6.367   3.185   0.516 -0.8147  0.3353 -0.3331
 9609TIP3   OH250317   0.979   0.175   0.189 -0.3619 -0.2397 -0.1825
 9609TIP3    H150318   1.034   0.156   0.113 -2.2732  0.1074 -1.7510
 9609TIP3    H250319   0.936   0.092   0.209  0.4857 -0.4410  0.8418
 9610TIP3   OH250320   1.079   1.413  13.091  0.5146  0.2576  0.2727
 9610TIP3    H150321   1.172   1.419  13.071  0.0793  2.8601 -1.5126
 9610TIP3    H250322   1.056   1.322  13.072  2.0911  0.3277 -2.5452
 9611TIP3   OH250323   6.572   4.557   4.736  0.4963 -0.4448 -0.1205
 9611TIP3    H150324   6.591   4.470   4.771 -0.5243 -0.3643  0.6837
 9611TIP3    H250325   6.476   4.562   4.733  0.5165  0.9441  0.6177
 9612TIP3   OH250326   3.208   0.713   0.932 -0.0776  0.3556  0.3834
 9612TIP3    H150327   3.216   0.639   0.993  0.3766 -0.6379 -0.8415
 9612TIP3    H250328   3.144   0.771   0.974  0.6166 -0.0177  2.0603
 9613TIP3   OH250329   0.926   3.295  10.694 -0.0236 -0.1278  0.0720
 9613TIP3    H150330   0.865   3.278  10.622  1.1452 -0.0320 -0.9719
 9613TIP3    H250331   0.891   3.373  10.737 -0.3088  0.2970 -0.9023
 9614TIP3   OH250332   5.775   1.729  16.500  0.4958 -0.6647  0.0518
 9614TIP3    H150333   5.736   1.749  16.414  1.3168 -0.0338 -0.1918
 9614TIP3    H250334   5.717   1.772  16.563 -1.4729 -3.0972  0.0434
 9615TIP3   OH250335   1.512   3.736   1.379  0.4099 -0.0815  0.0500
 9615TIP3    H150336   1.503   3.825   1.411 -0.7338  0.2109 -1.0051
 9615TIP3    H250337   1.436   3.690   1.414  0.5091 -0.4083 -0.1578
 9616TIP3   OH250338   2.992   5.108  11.642 -0.5541 -0.3552  0.1131
 9616TIP3    H150339   2.908   5.138  11.606 -0.3820  1.2254  0.9190
 9616TIP3    H250340   2.969   5.069  11.727 -0.6157 -1.1911 -0.2827
 9617TIP3   OH250341   0.349   0.559  15.492  0.2031  0.2899 -0.3888
 9617TIP3    H150342   0.265   0.563  15.538 -0.3059  0.5278 -1.2958
 9617TIP3    H250343   0.326   0.576  15.400  1.2062  0.0407 -0.6968
 9618TIP3   OH250344   5.271   2.947   0.120  0.5845 -0.5918 -0.0463
 9618TIP3    H150345   5.250   3.038   0.102  0.7375 -0.9237 -2.0766
 9618TIP3    H250346   5.212   2.923   0.192  1.0699  1.2776  1.0512
 9619TIP3   OH250347   0.292   5.658  16.278 -0.2753  0.7634  0.4841
 9619TIP3    H150348   0.231   5.597  16.319  0.0457 -0.6777 -1.0532
 9619TIP3    H250349   0.370   5.605  16.261  0.5439  1.9852  0.3805
 9620TIP3   OH250350   1.540   0.300   0.205 -0.1418 -0.2590  0.0690
 9620TIP3    H150351   1.487   0.221   0.200 -0.2369 -0.3337  1.7379
 9620TIP3    H250352   1.504   0.349   0.279  2.0612 -0.3025  1.2650
 9621TIP3   OH250353   6.647   1.503  12.768  0.7497  0.7842  0.4488
 9621TIP3    H150354   6.702   1.545  12.701 -0.6462  0.4399 -1.0004
 9621TIP3    H250355   6.569   1.475  12.719  0.6788 -1.5638  1.8051
 9622TIP3   OH250356   4.677   0.924   2.376  0.8276 -0.0285  0.1451
 9622TIP3    H150357   4.644   1.007   2.342 -0.1658 -0.6047 -0.3682
 9622TIP3    H250358   4.747   0.899   2.315  1.5536  0.7251  0.6628
 9623TIP3   OH250359   4.123   6.153  12.513 -0.0005 -0.3668  0.1889
 9623TIP3    H150360   4.073   6.201  12.579 -1.8287 -1.4334 -0.3417
 9623TIP3    H250361   4.150   6.220  12.450 -0.2257  0.3232  0.8114
 9624TIP3   OH250362   3.544   6.757   3.772  0.0143  0.2216 -0.1233
 9624TIP3    H150363   3.489   6.794   3.702  0.6093  0.3367 -0.5317
 9624TIP3    H250364   3.519   6.807   3.850 -1.9810 -1.1153  0.1717
 9625TIP3   OH250365   2.741   1.763   1.044 -0.2550  0.2589  0.1926
 9625TIP3    H150366   2.783   1.690   1.090 -0.6878  0.0339  0.2419
 9625TIP3    H250367   2.669   1.722   0.995  0.3148  0.4698 -0.8454
 9626TIP3   OH250368   1.381   1.377  16.120 -0.1962 -0.0740 -0.4989
 9626TIP3    H150369   1.285   1.376  16.129 -0.3816  4.4866  0.4833
 9626TIP3    H250370   1.413   1.387  16.210  1.0875  0.1853 -0.9645
 9627TIP3   OH250371   4.517   3.343   2.165  0.1310 -0.5872 -0.2098
 9627TIP3    H150372   4.535   3.332   2.258  0.6671 -0.9953 -0.3596
 9627TIP3    H250373   4.427   3.374   2.162  0.6861  1.2244  0.5446
 9628TIP3   OH250374   6.746   3.956  16.433  0.0802 -0.5279 -0.3035
 9628TIP3    H150375   6.689   3.882  16.411  0.2782 -0.2565 -1.8626
 9628TIP3    H250376   6.685   4.027  16.455 -0.1093 -1.1852  1.4478
 9629TIP3   OH250377   5.328   6.552   1.134 -0.0498  0.7101  1.1117
 9629TIP3    H150378   5.370   6.609   1.070  2.3477  0.2889  2.1996
 9629TIP3    H250379   5.376   6.470   1.129 -1.2106 -0.0585  1.9754
 9630TIP3   OH250380   5.186   4.236  16.382 -0.7297 -0.2045  0.3857
 9630TIP3    H150381   5.188   4.146  16.416  0.7165 -0.7190 -0.9317
 9630TIP3    H250382   5.112   4.235  16.320 -0.2102 -0.7468 -0.2408
 9631TIP3   OH250383   5.308   1.776  13.738  0.3610  0.0765  0.1705
 9631TIP3    H150384   5.316   1.843  13.806  1.5064  1.9176 -1.6407
 9631TIP3    H250385   5.367   1.707  13.765  1.9031  1.4249  0.4060
 9632TIP3   OH250386   4.999   0.976   1.749  0.2579  0.1429 -0.0180
 9632TIP3    H150387   5.015   1.056   1.799  1.7955  0.3018 -0.7217
 9632TIP3    H250388   4.956   0.917   1.812  1.4903  0.5828  1.2946
 9633TIP3   OH250389   2.676   2.578  16.554  0.7043 -0.0185 -0.4577
 9633TIP3    H150390   2.714   2.505  16.603 -0.5209  1.6379  3.3839
 9633TIP3    H250391   2.741   2.648  16.561  0.0656  0.5679 -0.2179
 9634TIP3   OH250392   1.638   4.498  15.505  0.4780 -0.0186 -0.1930
 9634TIP3    H150393   1.545   4.489  15.527  0.6614 -2.8517 -0.2992
 9634TIP3    H250394   1.673   4.554  15.575 -0.1254 -4.0869  3.8624
 9635TIP3   OH250395   1.299   2.755  13.200  0.2075  0.3941  0.0563
 9635TIP3    H150396   1.272   2.821  13.136 -0.7013  0.5712  0.6050
 9635TIP3    H250397   1.316   2.676  13.148  1.0817  0.9827 -0.5801
 9636TIP3   OH250398   5.288   4.084   0.414  0.3606  0.1297 -0.3191
 9636TIP3    H150399   5.255   4.165   0.374 -0.5464 -0.3401 -0.5433
 9636TIP3    H250400   5.209   4.032   0.431  0.6292  0.5027  2.5932
 9637TIP3   OH250401   1.070   1.175  11.571  0.3268 -0.2005  0.6481
 9637TIP3    H150402   1.042   1.254  11.617  0.6137  0.0912  0.3338
 9637TIP3    H250403   1.049   1.193  11.479  1.1679 -0.1352  0.4616
 9638TIP3   OH250404   6.364   1.669  13.773  0.8762 -0.2460 -0.0321
 9638TIP3    H150405   6.457   1.685  13.760  0.3850  1.9848 -1.2423
 9638TIP3    H250406   6.326   1.676  13.685 -0.9267  2.9721  0.8391
 9639TIP3   OH250407   6.180   0.400   0.164 -0.2242  0.1516  0.5105
 9639TIP3    H150408   6.132   0.394   0.247  0.3730  1.5120  0.9889
 9639TIP3    H250409   6.270   0.421   0.190  0.8408 -2.8702 -0.3379
 9640TIP3   OH250410   3.870   0.393   4.398  0.3334 -0.3490 -0.7142
 9640TIP3    H150411   3.884   0.379   4.305 -0.5804  0.3277 -0.9724
 9640TIP3    H250412   3.786   0.352   4.417  0.1530  0.1707 -0.3565
 9641TIP3   OH250413   2.055   2.433  13.103 -0.3129  0.2938  0.5148
 9641TIP3    H150414   2.122   2.366  13.091 -1.4449 -0.7339 -0.2798
 9641TIP3    H250415   2.024   2.421  13.193 -1.2500 -0.9944  0.0491
 9642TIP3   OH250416   0.905   5.754  16.260  0.3342  0.3279  0.8885
 9642TIP3    H150417   0.992   5.743  16.299  0.7061  2.0523  0.6286
 9642TIP3    H250418   0.856   5.805  16.325 -0.6038 -0.8992  1.1708
 9643TIP3   OH250419   0.307   1.933  17.297 -0.8537 -0.3634  0.2913
 9643TIP3    H150420   0.320   2.021  17.334  0.9654 -0.1482 -0.7417
 9643TIP3    H250421   0.214   1.916  17.308 -0.5639 -0.2036  4.6684
 9644TIP3   OH250422   3.774   5.987   5.250 -0.2075  0.0602  0.1503
 9644TIP3    H150423   3.707   6.040   5.292  0.1673  0.2418  0.5234
 9644TIP3    H250424   3.781   6.022   5.161 -0.1489  0.4624  0.3146
 9645TIP3   OH250425   1.942   0.868   1.130  0.0118 -0.2842 -0.7323
 9645TIP3    H150426   2.006   0.908   1.072 -0.9221 -0.3893 -1.8771
 9645TIP3    H250427   1.868   0.847   1.073 -0.8794 -0.5281  0.4754
 9646TIP3   OH250428   1.721   3.330  13.457  0.6269 -0.4697  0.3045
 9646TIP3    H150429   1.752   3.360  13.372 -0.1193 -0.4212  0.0415
 9646TIP3    H250430   1.730   3.235  13.455  0.6123 -0.4679  0.1720
 9647TIP3   OH250431   2.388   6.766   0.551  0.0018 -0.3632  0.1105
 9647TIP3    H150432   2.471   6.814   0.556 -0.4699  0.3671  0.9849
 9647TIP3    H250433   2.413   6.675   0.566  0.6872 -0.1883  0.0741
 9648TIP3   OH250434   6.257   4.177  13.615  0.1695 -0.0321  0.2982
 9648TIP3    H150435   6.266   4.190  13.710  2.3366 -0.0302  0.1342
 9648TIP3    H250436   6.162   4.175  13.601 -0.2579  2.1725  2.1561
 9649TIP3   OH250437   0.021   2.291  14.755 -0.3303  0.3392  0.5271
 9649TIP3    H150438  -0.022   2.352  14.695 -0.7289  1.6405  2.0670
 9649TIP3    H250439   0.074   2.347  14.812  1.6411 -1.0278  0.1438
 9650TIP3   OH250440   4.335   0.301  11.037  0.5175 -0.0553 -0.0044
 9650TIP3    H150441   4.240   0.292  11.025  0.5191  0.1211 -0.1529
 9650TIP3    H250442   4.354   0.392  11.012  0.8670 -0.3662 -0.9244
 9651TIP3   OH250443   0.923   3.620  15.662  0.4562 -0.2443  0.0717
 9651TIP3    H150444   0.835   3.644  15.690  0.0346 -0.7034 -0.8061
 9651TIP3    H250445   0.939   3.534  15.701  2.6225  1.9121  4.6201
 9652TIP3   OH250446   5.262   0.846  12.115  0.2133 -0.1265  0.5325
 9652TIP3    H150447   5.309   0.793  12.051  0.9394  0.3380  0.6732
 9652TIP3    H250448   5.313   0.838  12.195 -0.2526 -0.0545  0.8426
 9653TIP3   OH250449   4.985   1.455   4.845 -0.4822 -0.0405  0.2434
 9653TIP3    H150450   5.017   1.474   4.933 -0.3002 -1.5013  0.5227
 9653TIP3    H250451   5.061   1.417   4.800 -1.3563 -2.1216  0.4322
 9654TIP3   OH250452   6.822   5.242   4.032  0.3870  0.0088 -0.1175
 9654TIP3    H150453   6.825   5.320   4.087 -3.5441  0.5202 -0.3285
 9654TIP3    H250454   6.793   5.172   4.091  2.3656 -0.9941 -0.2664
 9655TIP3   OH250455   1.558   3.524   0.405 -0.8674  0.1256  0.0582
 9655TIP3    H150456   1.545   3.597   0.344 -1.7781  0.8265  1.0484
 9655TIP3    H250457   1.605   3.563   0.479  0.9280 -0.8831 -0.4814
 9656TIP3   OH250458   1.180   2.968  13.679  0.5412 -0.1910 -0.1604
 9656TIP3    H150459   1.231   2.892  13.649  0.3761 -0.2348 -0.3354
 9656TIP3    H250460   1.124   2.934  13.748  2.3540  0.3211  1.6575
 9657TIP3   OH250461   5.262   2.916   4.827  0.5753  0.2196  0.1044
 9657TIP3    H150462   5.294   2.848   4.886  0.0447 -0.9921 -0.9568
 9657TIP3    H250463   5.319   2.909   4.750  2.8538  3.3886  1.3031
 9658TIP3   OH250464   1.753   3.848   5.296  0.0735 -0.1150  0.7901
 9658TIP3    H150465   1.694   3.924   5.297  1.2986  0.8896 -0.0641
 9658TIP3    H250466   1.840   3.886   5.303  0.9616 -1.1433 -2.7708
 9659TIP3   OH250467   5.573   0.109   2.560  0.5093 -0.8910  0.2061
 9659TIP3    H150468   5.481   0.113   2.585  0.1028  3.1279 -1.2151
 9659TIP3    H250469   5.572   0.100   2.465  1.1618  3.4378 -0.4573
 9660TIP3   OH250470   4.376   1.453  10.897  0.3238  0.2016 -0.0001
 9660TIP3    H150471   4.323   1.376  10.877 -3.7654  1.2065  4.9267
 9660TIP3    H250472   4.458   1.419  10.932  0.6124 -1.5990 -2.1888
 9661TIP3   OH250473   1.443   2.082  11.360 -0.2928  0.8109 -0.1392
 9661TIP3    H150474   1.392   2.159  11.338 -0.4323  0.4184 -1.2418
 9661TIP3    H250475   1.473   2.048  11.276 -0.0571 -0.2165  0.3416
 9662TIP3   OH250476   0.172   3.929  15.527  0.4147 -0.2649 -0.5234
 9662TIP3    H150477   0.141   3.839  15.538  1.0517 -0.4887 -0.5256
 9662TIP3    H250478   0.260   3.920  15.491 -0.0705  0.3863 -1.9674
 9663TIP3   OH250479   1.094   4.190  13.758 -0.7842  0.0242 -0.5224
 9663TIP3    H150480   1.097   4.237  13.842 -2.0535 -2.8483  1.2582
 9663TIP3    H250481   1.013   4.220  13.717 -0.4533  1.0174 -0.4799
 9664TIP3   OH250482   0.993   3.792   6.059  0.0844 -1.1842 -0.1269
 9664TIP3    H150483   0.954   3.871   6.095  1.9742 -0.8708  1.4233
 9664TIP3    H250484   0.951   3.721   6.107 -2.4304 -1.3092 -2.2946
 9665TIP3   OH250485   0.037   0.538   0.823 -0.7446  0.0551  0.3176
 9665TIP3    H150486   0.103   0.540   0.753 -0.4741  0.9744  0.5871
 9665TIP3    H250487  -0.042   0.573   0.783 -1.2381 -1.5015 -0.1457
 9666TIP3   OH250488   5.626   2.252   6.083  0.7322  0.5964 -0.2447
 9666TIP3    H150489   5.691   2.318   6.108  1.2737  0.6231 -1.6874
 9666TIP3    H250490   5.601   2.212   6.166  1.1430  1.9143  0.5541
 9667TIP3   OH250491   5.723   0.605  14.005  0.0842  0.3175 -0.1365
 9667TIP3    H150492   5.646   0.657  14.030 -0.5844 -0.7361  0.0480
 9667TIP3    H250493   5.701   0.568  13.920  0.0468 -0.6246  0.2666
 9668TIP3   OH250494   5.399   1.231   4.366 -0.3681  0.3938  0.0418
 9668TIP3    H150495   5.436   1.310   4.328 -1.1806  1.6672  1.7770
 9668TIP3    H250496   5.338   1.262   4.433 -1.8680 -1.6766 -0.2492
 9669TIP3   OH250497   0.120   0.559   1.455  0.0017 -0.1336 -0.6150
 9669TIP3    H150498   0.031   0.526   1.448 -0.2612  0.6430 -1.0767
 9669TIP3    H250499   0.112   0.637   1.510  0.7079 -1.1506  1.0170
 9670TIP3   OH250500   1.617   4.048   5.523  0.0323  0.1230  0.2967
 9670TIP3    H150501   1.578   4.125   5.564  1.2634  1.4113 -0.8509
 9670TIP3    H250502   1.600   4.059   5.429 -0.7913 -1.6336  0.1956
 9671TIP3   OH250503   2.529   6.296  16.119  0.3546 -0.1699 -0.1794
 9671TIP3    H150504   2.435   6.316  16.124  0.2424 -0.4710 -1.0173
 9671TIP3    H250505   2.539   6.245  16.039  1.5403  1.5890 -1.2148
 9672TIP3   OH250506   0.098   0.444  11.820  0.5007 -0.4648 -0.5870
 9672TIP3    H150507   0.029   0.460  11.756  0.6107 -0.4031 -0.6923
 9672TIP3    H250508   0.136   0.530  11.836  0.1058 -0.3944 -0.0122
 9673TIP3   OH250509   6.683   2.308   3.667  0.0951 -0.1848 -0.1152
 9673TIP3    H150510   6.714   2.220   3.688 -3.4494 -1.3976  0.7655
 9673TIP3    H250511   6.647   2.300   3.578 -1.1262  0.0756  0.3419
 9674TIP3   OH250512   1.103   0.373  15.811 -0.2836  0.0652 -0.2943
 9674TIP3    H150513   1.196   0.394  15.813 -0.4141  0.6496  1.6641
 9674TIP3    H250514   1.061   0.452  15.778 -0.1204 -0.0638 -0.8146
 9675TIP3   OH250515   0.221   2.512  13.819 -0.0828  0.0610 -0.0425
 9675TIP3    H150516   0.224   2.420  13.847 -0.2668 -0.2134 -0.8994
 9675TIP3    H250517   0.134   2.523  13.782 -0.5452  0.9540  1.2391
 9676TIP3   OH250518   1.587   1.346   5.494 -0.7761  0.1897 -0.1955
 9676TIP3    H150519   1.568   1.433   5.530 -0.2870  0.6982 -1.1257
 9676TIP3    H250520   1.573   1.355   5.400 -0.5780 -0.7052 -0.3201
 9677TIP3   OH250521   3.157   5.280   5.478 -0.0175 -0.6933 -0.3089
 9677TIP3    H150522   3.231   5.261   5.536  0.0182  1.6568  0.5388
 9677TIP3    H250523   3.187   5.355   5.426 -2.7013  2.5499  2.2715
 9678TIP3   OH250524   0.606   6.460  11.490 -0.5222  0.1349  0.5049
 9678TIP3    H150525   0.544   6.523  11.454  0.9986  1.1146 -0.5560
 9678TIP3    H250526   0.588   6.459  11.583 -1.5492  1.0567  0.3380
 9679TIP3   OH250527   6.555   3.401   2.828  0.7506 -0.3821 -0.0856
 9679TIP3    H150528   6.620   3.471   2.834  1.4505 -1.0363  0.0635
 9679TIP3    H250529   6.606   3.320   2.824 -0.0247 -0.8547 -1.0113
 9680TIP3   OH250530   0.414   2.261  16.021  0.0326 -0.3535 -0.1171
 9680TIP3    H150531   0.398   2.263  15.927  1.0916  1.2835 -0.2994
 9680TIP3    H250532   0.477   2.331  16.037  0.3735 -1.0061  1.7324
 9681TIP3   OH250533   2.855   0.922   2.535  0.3390  0.1049 -0.6559
 9681TIP3    H150534   2.934   0.869   2.525  0.2588  0.1326 -1.5702
 9681TIP3    H250535   2.854   0.978   2.457  0.7959  1.9807  0.6437
 9682TIP3   OH250536   0.176   6.636   1.425 -0.0842  0.4720 -0.0129
 9682TIP3    H150537   0.242   6.693   1.463  0.0232 -0.1793  0.8249
 9682TIP3    H250538   0.120   6.694   1.374 -0.7777  1.5823  1.8776
 9683TIP3   OH250539   5.317   0.016   1.429  0.7424  0.0559 -0.3046
 9683TIP3    H150540   5.291   0.061   1.509  2.1455  0.5472 -0.0935
 9683TIP3    H250541   5.375   0.078   1.384 -0.1857 -0.1147 -1.8240
 9684TIP3   OH250542   6.344   4.612  16.655 -0.9151  0.0239 -0.6381
 9684TIP3    H150543   6.259   4.594  16.696  0.2979 -2.5604  1.0337
 9684TIP3    H250544   6.345   4.557  16.578 -0.5243 -0.4467 -0.3000
 9685TIP3   OH250545   5.742   5.308   4.819 -0.2064  0.5224 -0.5174
 9685TIP3    H150546   5.828   5.320   4.778 -0.3067  0.3068 -0.7935
 9685TIP3    H250547   5.744   5.366   4.895 -0.1246  1.1399 -0.9859
 9686TIP3   OH250548   2.691   6.377  15.303  0.0904 -0.5293  0.6636
 9686TIP3    H150549   2.599   6.355  15.294 -0.1767  0.0613  1.8619
 9686TIP3    H250550   2.707   6.379  15.397  1.5780 -1.6241  0.4654
 9687TIP3   OH250551   5.569   1.026   5.042 -0.1258 -0.5857  0.0673
 9687TIP3    H150552   5.578   1.018   5.137  0.4226 -0.4465  0.0310
 9687TIP3    H250553   5.598   0.942   5.007  0.1041 -0.4803  0.0009
 9688TIP3   OH250554   2.549   1.350  12.824  0.3050  0.0875 -0.3605
 9688TIP3    H150555   2.522   1.341  12.915 -2.0557 -0.8109 -1.0894
 9688TIP3    H250556   2.473   1.322  12.773  1.0265  1.9873 -2.6409
 9689TIP3   OH250557   3.508   2.386   1.269 -0.3641  0.3015 -0.2692
 9689TIP3    H150558   3.599   2.417   1.265  0.1141 -1.1808 -1.4068
 9689TIP3    H250559   3.502   2.342   1.354  1.4627 -3.7501 -1.9872
 9690TIP3   OH250560   1.267   2.517   1.666  0.4095  0.0868  0.0169
 9690TIP3    H150561   1.199   2.565   1.619  0.4404  0.0167 -0.0974
 9690TIP3    H250562   1.335   2.582   1.684 -0.3136  0.5135  1.3823
 9691TIP3   OH250563   0.686   4.021  13.247  0.0048 -0.1146 -0.1417
 9691TIP3    H150564   0.759   3.985  13.198  1.3590 -0.2683  1.8620
 9691TIP3    H250565   0.674   4.109  13.211  1.7919  0.2582  0.0785
 9692TIP3   OH250566   6.557   6.337   4.439  0.1726 -0.5038  0.3915
 9692TIP3    H150567   6.643   6.316   4.401 -0.4783  0.7629 -1.9839
 9692TIP3    H250568   6.510   6.254   4.437  0.9979 -0.9938  0.7459
 9693TIP3   OH250569   5.286   3.681  14.722 -0.1391  0.4898  0.2776
 9693TIP3    H150570   5.200   3.667  14.760 -0.5690 -1.2241 -1.1951
 9693TIP3    H250571   5.339   3.608  14.753  0.9149  1.6644  1.3825
 9694TIP3   OH250572   1.934   1.978  13.513  0.3386 -0.0899  0.0629
 9694TIP3    H150573   2.025   1.998  13.491  0.6235  2.6770  3.0661
 9694TIP3    H250574   1.940   1.910  13.580  0.1620 -0.0671  0.1017
 9695TIP3   OH250575   0.942   2.914   4.097 -0.7683 -0.4517 -1.2630
 9695TIP3    H150576   0.988   2.919   4.014  3.1597  0.2113  0.7420
 9695TIP3    H250577   0.992   2.852   4.150 -1.6285  0.9404  1.3995
 9696TIP3   OH250578   6.077   5.932   6.734 -0.1658  0.0965 -0.3692
 9696TIP3    H150579   6.055   5.851   6.688 -0.9324 -1.1767  2.0263
 9696TIP3    H250580   6.004   5.990   6.716  0.2057  0.1515 -1.8125
 9697TIP3   OH250581   2.070   3.456   0.677  0.1270 -0.0708 -0.4340
 9697TIP3    H150582   2.086   3.393   0.747 -0.7369 -0.0305 -0.1849
 9697TIP3    H250583   1.978   3.481   0.689 -0.0883 -0.2120 -1.7012
 9698TIP3   OH250584   0.522   5.499   2.337 -0.5747  0.2998  0.2714
 9698TIP3    H150585   0.467   5.551   2.279 -1.2683  0.1838  0.8053
 9698TIP3    H250586   0.598   5.555   2.356 -0.1433  0.1899 -1.0310
 9699TIP3   OH250587   2.182   6.781  16.892  0.1556 -0.2195  1.0032
 9699TIP3    H150588   2.233   6.718  16.942 -1.1841 -1.7577  0.4997
 9699TIP3    H250589   2.092   6.765  16.918 -0.6233 -1.1640 -1.9241
 9700TIP3   OH250590   0.150   0.635  17.109 -0.2142  0.3243  0.0488
 9700TIP3    H150591   0.086   0.613  17.177 -1.9600  1.8375 -0.9949
 9700TIP3    H250592   0.162   0.730  17.117 -0.1256  0.4742 -1.4335
 9701TIP3   OH250593   0.814   3.251   3.598 -0.4171  0.3862  0.5022
 9701TIP3    H150594   0.789   3.189   3.666 -2.1861  0.9916  0.4595
 9701TIP3    H250595   0.826   3.334   3.645  1.5600  0.1555  0.5062
 9702TIP3   OH250596   6.284   6.623  12.017  0.1748  0.0904  0.4041
 9702TIP3    H150597   6.317   6.552  12.073 -0.4468  0.2571  0.9931
 9702TIP3    H250598   6.196   6.641  12.050  0.1221  0.7777 -0.0843
 9703TIP3   OH250599   4.733   1.777  14.930  0.5780  0.1162  0.0858
 9703TIP3    H150600   4.797   1.781  14.859  0.1798 -2.2839 -0.5151
 9703TIP3    H250601   4.653   1.744  14.889 -1.7780  4.6639  0.4592
 9704TIP3   OH250602   6.704   5.815  12.643 -0.3103  0.3286 -0.5950
 9704TIP3    H150603   6.720   5.886  12.581  0.3008  0.6108 -0.1319
 9704TIP3    H250604   6.623   5.775  12.614 -0.1343  0.5857 -1.4522
 9705TIP3   OH250605   1.787   2.641   0.436 -0.6336  0.1054 -0.6063
 9705TIP3    H150606   1.816   2.730   0.455  0.0565 -0.3268  0.4415
 9705TIP3    H250607   1.772   2.601   0.522  2.7188 -1.9581 -0.7677
 9706TIP3   OH250608   4.721   4.548  16.383  0.1662  0.1721 -0.5084
 9706TIP3    H150609   4.714   4.624  16.326  0.5788  0.9613  0.4722
 9706TIP3    H250610   4.808   4.513  16.366  0.8224  1.2072  0.5872
 9707TIP3   OH250611   0.932   2.906  12.887  0.0034 -0.1629  0.1672
 9707TIP3    H150612   0.850   2.897  12.937  1.5853 -0.6329  2.8487
 9707TIP3    H250613   0.936   2.999  12.864 -0.7257  0.0874  0.9948
 9708TIP3   OH250614   5.963   5.617   4.119 -0.2890 -0.1186 -0.2180
 9708TIP3    H150615   6.044   5.627   4.070  0.2352 -0.4092  0.5691
 9708TIP3    H250616   5.894   5.631   4.055  0.3483  2.9158 -0.3872
 9709TIP3   OH250617   4.931   3.097   6.485  0.3072  0.0154  0.3898
 9709TIP3    H150618   5.002   3.036   6.466  1.5548  1.5939 -0.2024
 9709TIP3    H250619   4.958   3.179   6.445 -0.8539  1.2526  1.9932
 9710TIP3   OH250620   6.791   6.167  13.341 -0.0001  0.0715  0.2735
 9710TIP3    H150621   6.719   6.170  13.278  0.9443 -0.3024 -0.8537
 9710TIP3    H250622   6.748   6.157  13.426 -1.2852  0.1349 -0.3460
 9711TIP3   OH250623   0.770   2.667   4.133 -0.2599 -0.1071  0.2876
 9711TIP3    H150624   0.848   2.688   4.081 -0.0829  1.1427  1.0509
 9711TIP3    H250625   0.699   2.717   4.092 -0.5761 -0.7910 -0.0418
 9712TIP3   OH250626   6.778   6.002  14.355  0.1160 -0.1601  0.3836
 9712TIP3    H150627   6.835   5.983  14.280 -0.0409 -1.1491  0.4966
 9712TIP3    H250628   6.837   6.005  14.430  0.2331  0.5140  0.2665
 9713TIP3   OH250629   5.270   5.106  13.681  0.4949  0.1988  0.0685
 9713TIP3    H150630   5.215   5.149  13.615  1.7563  1.4605 -0.2037
 9713TIP3    H250631   5.269   5.166  13.755  0.8152 -0.1896  0.3898
 9714TIP3   OH250632   4.017   6.152   3.808 -0.2865 -0.3898  0.2443
 9714TIP3    H150633   3.971   6.136   3.891  0.2809  1.1965  0.9044
 9714TIP3    H250634   4.100   6.106   3.818 -1.6824 -3.4605 -1.0425
 9715TIP3   OH250635   0.417   0.137  11.239 -0.3451 -0.6013  0.3920
 9715TIP3    H150636   0.482   0.113  11.173 -0.5791  2.3395 -1.0872
 9715TIP3    H250637   0.464   0.194  11.300 -1.4580  1.8828 -0.9100
 9716TIP3   OH250638   4.357   2.636  13.216  0.5012  0.1054  0.3651
 9716TIP3    H150639   4.385   2.581  13.143 -0.8096  0.0270 -0.0976
 9716TIP3    H250640   4.421   2.708  13.217  0.6249  0.0266 -0.7557
 9717TIP3   OH250641   2.149   3.777   3.354  0.2310  0.2278  0.3262
 9717TIP3    H150642   2.152   3.704   3.294 -2.2974  0.0596  0.3289
 9717TIP3    H250643   2.153   3.855   3.298 -2.2748  0.0755 -0.1386
 9718TIP3   OH250644   0.905   0.755  11.081 -0.1225  0.4208  0.0443
 9718TIP3    H150645   0.813   0.781  11.093 -0.3232  0.7362 -1.8987
 9718TIP3    H250646   0.951   0.800  11.152 -1.3458  0.8978  0.5812
 9719TIP3   OH250647   5.000   6.181  12.082 -0.3984  0.2686 -0.0818
 9719TIP3    H150648   4.927   6.239  12.107  0.8467  1.0439  1.9684
 9719TIP3    H250649   5.022   6.208  11.993 -2.3041  0.3056 -0.5956
 9720TIP3   OH250650   0.532   3.861  16.592 -0.6095 -0.4092  0.0448
 9720TIP3    H150651   0.510   3.918  16.665 -1.6997  0.7817 -1.1786
 9720TIP3    H250652   0.624   3.882  16.572 -0.4099 -0.5034  0.8320
 9721TIP3   OH250653   3.057   0.158  12.653  0.3527 -0.2579  0.5624
 9721TIP3    H150654   3.145   0.189  12.629  0.1297  0.0559  0.1326
 9721TIP3    H250655   2.999   0.198  12.588  0.0551 -1.6267 -0.0468
 9722TIP3   OH250656   0.909   1.318   3.320  0.0745  0.3569 -0.1144
 9722TIP3    H150657   0.857   1.378   3.267 -2.1867 -1.7012 -0.3895
 9722TIP3    H250658   0.924   1.243   3.262  0.0852 -0.6851  1.2117
 9723TIP3   OH250659   4.048   5.626   4.229 -0.0599 -0.5120 -0.4775
 9723TIP3    H150660   4.111   5.555   4.243 -0.1379 -0.5329 -0.2432
 9723TIP3    H250661   3.987   5.619   4.301  0.9188  0.8537  0.5416
 9724TIP3   OH250662   6.781   1.314  14.420 -0.1654  0.2182  0.1792
 9724TIP3    H150663   6.775   1.346  14.510  2.7918  0.5333  0.3565
 9724TIP3    H250664   6.758   1.390  14.366 -1.3643  0.1966  0.6219
 9725TIP3   OH250665   1.141   1.381  16.445  0.0492 -0.0153  0.3140
 9725TIP3    H150666   1.122   1.289  16.464  0.7678 -0.1982  0.1462
 9725TIP3    H250667   1.236   1.388  16.448 -0.0140  0.8402  0.8635
 9726TIP3   OH250668   5.979   5.573  12.785  0.1278 -0.2091  0.0905
 9726TIP3    H150669   6.036   5.605  12.716 -1.2623 -0.2276 -1.1230
 9726TIP3    H250670   5.969   5.647  12.845 -0.0002  0.3845 -0.6471
 9727TIP3   OH250671   2.364   3.655   0.056  0.1962  0.1279 -0.0650
 9727TIP3    H150672   2.322   3.733   0.092  1.4197  0.8115 -0.0455
 9727TIP3    H250673   2.405   3.686  -0.025  1.0846 -0.3748  0.1804
 9728TIP3   OH250674   1.875   4.587  13.907 -0.8398  0.2406  0.1423
 9728TIP3    H150675   1.811   4.601  13.976 -2.3753 -0.3228 -1.1307
 9728TIP3    H250676   1.856   4.655  13.842  0.2648  0.4562  0.0219
 9729TIP3   OH250677   0.697   4.975   3.236  0.2480 -0.1634  0.8100
 9729TIP3    H150678   0.782   4.932   3.242  0.3263  0.0387  1.2808
 9729TIP3    H250679   0.688   5.019   3.321 -0.1402  0.1560  0.6030
 9730TIP3   OH250680   3.305   4.616   0.783  0.4642  0.3521  0.7507
 9730TIP3    H150681   3.390   4.658   0.766  1.0935 -0.2895  2.1386
 9730TIP3    H250682   3.280   4.580   0.698  1.4275  0.8184  0.2389
 9731TIP3   OH250683   6.705   4.726  13.505  0.1057 -0.3440  0.1623
 9731TIP3    H150684   6.796   4.714  13.532 -0.1102 -2.9332 -0.0075
 9731TIP3    H250685   6.656   4.722  13.587  0.0838  0.4429  0.1927
 9732TIP3   OH250686   1.511   4.107  11.722 -0.3209 -0.0148 -0.2101
 9732TIP3    H150687   1.569   4.054  11.668  0.6351  0.2434  0.5486
 9732TIP3    H250688   1.487   4.181  11.666 -0.6252 -0.5655 -0.8220
 9733TIP3   OH250689   3.293   6.163  14.677 -0.1464 -0.8756 -0.1175
 9733TIP3    H150690   3.285   6.187  14.584 -0.6275  0.7127  0.2959
 9733TIP3    H250691   3.321   6.072  14.676  1.3980 -0.4640 -1.8604
 9734TIP3   OH250692   5.444   6.595  14.739  0.2195  0.1114  0.2912
 9734TIP3    H150693   5.392   6.664  14.780  1.8980  0.8316  1.3304
 9734TIP3    H250694   5.417   6.514  14.783 -0.2151  0.4324  0.6199
 9735TIP3   OH250695   0.468   4.069  13.948  0.1861  0.1248 -0.1052
 9735TIP3    H150696   0.519   3.989  13.934 -0.2722 -0.0076 -1.0752
 9735TIP3    H250697   0.527   4.139  13.920  0.3558  0.0847  0.1430
 9736TIP3   OH250698   1.074   5.690   5.617 -0.0250 -0.2822  0.3383
 9736TIP3    H150699   1.166   5.704   5.642 -0.5396  1.3295  1.4609
 9736TIP3    H250700   1.030   5.668   5.699 -1.2464  2.3402  0.4573
 9737TIP3   OH250701   2.261   4.812   2.489  0.3359  0.0559  0.4963
 9737TIP3    H150702   2.352   4.840   2.478  0.5620 -1.3272 -1.5319
 9737TIP3    H250703   2.221   4.824   2.403 -0.9220 -1.0517  0.8957
 9738TIP3   OH250704   3.384   2.121   3.171  0.0852  0.4606  0.1288
 9738TIP3    H150705   3.359   2.184   3.239  0.2792 -0.9541  1.5720
 9738TIP3    H250706   3.328   2.045   3.187  0.9443 -0.3472 -0.5754
 9739TIP3   OH250707   5.180   5.224  12.141 -0.0301  0.0232  0.0941
 9739TIP3    H150708   5.175   5.236  12.046 -0.4806  0.2263  0.1444
 9739TIP3    H250709   5.203   5.131  12.152  2.7448  0.5698 -0.2763
 9740TIP3   OH250710   5.627   3.972  12.450  0.0027  0.2122 -0.1864
 9740TIP3    H150711   5.662   4.061  12.446 -3.5260  2.0582  2.9840
 9740TIP3    H250712   5.673   3.931  12.523 -0.2756  0.4642  0.1338
 9741TIP3   OH250713   4.342   3.055   3.743  0.1662  0.2290  0.4180
 9741TIP3    H150714   4.424   3.022   3.781 -0.7321 -1.3218  1.1018
 9741TIP3    H250715   4.357   3.056   3.649  1.1132  0.3972  0.5636
 9742TIP3   OH250716   4.369   1.686  17.106 -0.4760 -0.1856  0.3117
 9742TIP3    H150717   4.345   1.774  17.078 -2.4687 -0.5241  0.8258
 9742TIP3    H250718   4.417   1.649  17.031 -0.5575  0.9509 -0.3114
 9743TIP3   OH250719   3.847   3.257   2.010 -0.1072  0.1926  0.0466
 9743TIP3    H150720   3.925   3.306   2.038  2.1025 -1.8219 -2.0442
 9743TIP3    H250721   3.785   3.267   2.083  0.8968  4.2490  0.6145
 9744TIP3   OH250722   5.970   4.498  11.893  0.4582  0.3469  0.0921
 9744TIP3    H150723   5.946   4.587  11.868 -0.9236  0.4319  1.5393
 9744TIP3    H250724   5.894   4.466  11.941  0.9985 -1.5720 -0.2578
 9745TIP3   OH250725   0.583   2.473  16.446 -0.4480  0.2614  0.0532
 9745TIP3    H150726   0.502   2.511  16.411 -1.3055  2.6568  4.0797
 9745TIP3    H250727   0.602   2.524  16.525  3.7590 -1.7427  0.6021
 9746TIP3   OH250728   2.835   5.697  14.126 -0.3090  0.5499 -0.7143
 9746TIP3    H150729   2.838   5.779  14.175  1.1575  0.4023 -0.5035
 9746TIP3    H250730   2.892   5.711  14.051  0.5832 -0.5023 -0.2630
 9747TIP3   OH250731   4.194   4.283  13.138 -0.4616 -0.0649  0.9419
 9747TIP3    H150732   4.176   4.371  13.105 -0.4071 -0.3377  0.1740
 9747TIP3    H250733   4.128   4.227  13.097  0.7934 -0.7308 -0.2794
 9748TIP3   OH250734   6.237   2.125   4.708 -0.3219 -0.1618  0.5530
 9748TIP3    H150735   6.177   2.068   4.756  1.4432 -1.2093  1.6567
 9748TIP3    H250736   6.321   2.079   4.712  0.4851  1.0514 -1.2528
 9749TIP3   OH250737   5.510   6.293   0.400  0.3952  0.6160 -0.0831
 9749TIP3    H150738   5.455   6.230   0.445 -0.5210  2.3460  1.3458
 9749TIP3    H250739   5.453   6.330   0.332  0.7671  0.3041 -0.5743
 9750TIP3   OH250740   4.177   4.218  12.716 -0.2946 -1.1274  0.5850
 9750TIP3    H150741   4.093   4.256  12.690  0.1095 -0.4319  0.2631
 9750TIP3    H250742   4.156   4.128  12.742 -1.1317 -0.9632  0.4948
 9751TIP3   OH250743   4.664   2.326   4.728 -0.4091  1.0563 -0.4744
 9751TIP3    H150744   4.609   2.275   4.787  2.1210  0.2584  1.3526
 9751TIP3    H250745   4.614   2.405   4.711 -0.9377  1.8342  3.6358
 9752TIP3   OH250746   3.608   1.677  13.868  0.0157  0.1601 -0.0990
 9752TIP3    H150747   3.555   1.747  13.831  0.4050  1.0542  0.9681
 9752TIP3    H250748   3.697   1.698  13.841  0.2332  0.5246  0.8532
 9753TIP3   OH250749   2.634   2.169  16.904  0.1214  0.4478 -0.3519
 9753TIP3    H150750   2.608   2.148  16.994 -1.2432 -1.7752 -1.1922
 9753TIP3    H250751   2.729   2.159  16.904  0.2670  1.4425  1.0280
 9754TIP3   OH250752   4.244   4.965  15.498 -0.1453  0.0281 -0.2707
 9754TIP3    H150753   4.320   4.934  15.548  0.6352  3.0597  0.6248
 9754TIP3    H250754   4.187   5.003  15.565 -0.8303  0.8317 -1.3026
 9755TIP3   OH250755   5.114   4.957  15.115 -0.5146  0.1125 -0.0311
 9755TIP3    H150756   5.147   4.895  15.181  0.7604  0.5573 -0.2221
 9755TIP3    H250757   5.104   4.905  15.036  0.1569  0.0594 -0.0824
 9756TIP3   OH250758   5.575   0.063  12.915  0.3672  0.1535 -0.1282
 9756TIP3    H150759   5.485   0.064  12.882  1.1990  1.1683 -2.6230
 9756TIP3    H250760   5.597  -0.030  12.922  0.2995 -0.2007 -3.2823
 9757TIP3   OH250761   6.087   3.098  17.273 -0.1226 -0.2466  0.1632
 9757TIP3    H150762   6.169   3.094  17.223  0.3271  0.2484  0.8572
 9757TIP3    H250763   6.112   3.079  17.363 -0.8259 -0.4006  0.3357
 9758TIP3   OH250764   0.096   1.479   3.508 -0.6623 -0.2404  0.3139
 9758TIP3    H150765   0.133   1.518   3.430  1.0705  0.0953  1.2668
 9758TIP3    H250766   0.168   1.475   3.570 -2.3459  1.0753  2.5083
 9759TIP3   OH250767   5.649   0.691  12.539  0.1802 -0.6034  0.5853
 9759TIP3    H150768   5.736   0.652  12.532  0.0067 -0.9424  0.2477
 9759TIP3    H250769   5.591   0.627  12.498  0.2045  1.1517 -2.5570
 9760TIP3   OH250770   5.132   3.883  15.765 -0.8025  0.3062 -0.5219
 9760TIP3    H150771   5.160   3.973  15.780  1.7597 -0.3395 -1.0309
 9760TIP3    H250772   5.077   3.888  15.687 -1.3394  1.5078 -0.0964
 9761TIP3   OH250773   3.585   0.130   4.561 -0.5832 -0.3059 -0.4794
 9761TIP3    H150774   3.572   0.054   4.617  0.1804  0.5866  0.9822
 9761TIP3    H250775   3.674   0.121   4.528  0.5272  1.2203  1.8496
 9762TIP3   OH250776   1.133   5.413   2.640  0.2531  0.0426 -0.2201
 9762TIP3    H150777   1.121   5.318   2.641 -1.4950  0.2272  1.1506
 9762TIP3    H250778   1.132   5.439   2.732  0.1076  1.4484 -0.5890
 9763TIP3   OH250779   1.235   1.919  16.979  0.1192  0.3853 -0.2889
 9763TIP3    H150780   1.190   1.834  16.975  1.8731 -0.6678  0.6991
 9763TIP3    H250781   1.225   1.955  16.891  1.1633 -1.9046 -1.4402
 9764TIP3   OH250782   2.083   2.464  10.956 -0.0282 -0.1935 -0.2795
 9764TIP3    H150783   2.067   2.508  10.872 -0.6689 -0.2428 -0.1867
 9764TIP3    H250784   2.131   2.528  11.008 -0.5970  0.2555 -0.2931
 9765TIP3   OH250785   0.097   4.387  12.800  0.7246  0.5529 -0.4878
 9765TIP3    H150786   0.143   4.338  12.732 -0.0302 -1.7141  0.5420
 9765TIP3    H250787   0.162   4.396  12.871  0.5201 -0.0019 -0.2240
 9766TIP3   OH250788   3.605   2.940  12.142  0.0038  0.2270  0.4153
 9766TIP3    H150789   3.621   3.034  12.136 -0.8407  0.3314 -0.3117
 9766TIP3    H250790   3.510   2.932  12.153  0.1380 -0.5169  1.1971
 9767TIP3   OH250791   3.194   0.960  17.029 -0.4832  0.0712 -1.0633
 9767TIP3    H150792   3.143   0.886  16.996  0.5506 -0.9922 -0.3354
 9767TIP3    H250793   3.284   0.928  17.034 -0.0526  1.2939 -0.4798
 9768TIP3   OH250794   0.848   2.290  13.407  0.0289 -0.3080  0.5084
 9768TIP3    H150795   0.768   2.250  13.372  0.7606 -0.9256 -0.5153
 9768TIP3    H250796   0.913   2.278  13.338  1.2626 -0.6541  1.6869
 9769TIP3   OH250797   6.529   6.310   1.618 -0.1151 -0.3454  0.1674
 9769TIP3    H150798   6.516   6.216   1.616  0.5877 -0.4389 -1.4298
 9769TIP3    H250799   6.556   6.333   1.529  0.4447  1.2522  0.7036
 9770TIP3   OH250800   1.451   1.947  16.530 -0.7644  0.2963 -0.1551
 9770TIP3    H150801   1.413   2.021  16.578 -1.5950  0.9043 -1.7003
 9770TIP3    H250802   1.473   1.884  16.599 -2.5967  0.8173  0.9978
 9771TIP3   OH250803   1.438   4.648   4.527 -0.1230 -0.3988 -0.4188
 9771TIP3    H150804   1.514   4.698   4.498 -1.5368  1.5774 -0.8992
 9771TIP3    H250805   1.455   4.559   4.496  1.8008  0.0645 -0.8349
 9772TIP3   OH250806   5.135   6.498  15.231 -0.2549 -0.0416 -0.2764
 9772TIP3    H150807   5.181   6.533  15.308  0.0825  1.7947 -1.2629
 9772TIP3    H250808   5.051   6.468  15.266  0.8296 -1.5639  1.2079
 9773TIP3   OH250809   1.490   3.881   5.733  0.6049 -0.6326 -0.1732
 9773TIP3    H150810   1.504   3.934   5.655 -0.2499  1.2789  0.9029
 9773TIP3    H250811   1.477   3.792   5.700 -0.9626  0.3175 -2.3423
 9774TIP3   OH250812   4.165   2.715   6.283  0.2557  0.4446  0.3943
 9774TIP3    H150813   4.217   2.794   6.266  0.5174  0.4097  1.0115
 9774TIP3    H250814   4.103   2.742   6.350  1.0577 -0.1629  1.4045
 9775TIP3   OH250815   2.343   1.637   0.625 -0.1902  0.1501  0.1031
 9775TIP3    H150816   2.377   1.552   0.653 -3.0550 -1.3036 -0.4928
 9775TIP3    H250817   2.341   1.689   0.705  0.8153 -0.6136  0.6464
 9776TIP3   OH250818   4.714   5.547   3.982 -0.5595  0.1606 -0.5937
 9776TIP3    H150819   4.686   5.557   3.891  0.0075 -0.4737 -0.8474
 9776TIP3    H250820   4.648   5.490   4.021 -0.7826  0.4018 -0.6114
 9777TIP3   OH250821   6.167   2.380   2.270  0.4545 -0.7803  0.1398
 9777TIP3    H150822   6.103   2.385   2.341  0.2093  0.6075 -0.1655
 9777TIP3    H250823   6.123   2.326   2.203  0.0094 -0.6744  0.3389
 9778TIP3   OH250824   2.931   1.383   6.334 -0.4166 -0.2325 -0.0831
 9778TIP3    H150825   2.897   1.473   6.343  3.3307  1.4222 -0.4227
 9778TIP3    H250826   2.961   1.361   6.422  1.6264  0.2636 -0.6114
 9779TIP3   OH250827   5.077   5.220  13.524  0.3986  0.5679 -0.2630
 9779TIP3    H150828   5.029   5.246  13.445 -0.3558 -2.7145 -1.0327
 9779TIP3    H250829   5.014   5.230  13.595 -0.7096 -1.3177 -0.9022
 9780TIP3   OH250830   4.443   1.153  12.100  0.1024  0.3211 -0.0427
 9780TIP3    H150831   4.371   1.092  12.085  0.1775  0.1558  0.2623
 9780TIP3    H250832   4.468   1.138  12.191 -1.2045  2.2086  0.6916
 9781TIP3   OH250833   4.799   3.902   4.969 -0.1080  0.3320  0.1619
 9781TIP3    H150834   4.766   3.841   5.035  0.1081  0.2804  0.2258
 9781TIP3    H250835   4.768   3.988   4.998 -0.3419  0.2625  0.1185
 9782TIP3   OH250836   6.715   1.836   1.818  1.0287 -0.5733  0.4247
 9782TIP3    H150837   6.737   1.878   1.735  2.4600 -0.5249  0.8113
 9782TIP3    H250838   6.662   1.760   1.793 -0.9092  0.9248 -0.3327
 9783TIP3   OH250839   0.206   5.459   3.113  0.0384  0.1908 -0.3566
 9783TIP3    H150840   0.257   5.434   3.035 -0.6410  0.1921 -0.8133
 9783TIP3    H250841   0.250   5.415   3.185  1.8818  1.7438 -0.4354
 9784TIP3   OH250842   4.799   1.903   2.379  0.0558  0.0873  0.4106
 9784TIP3    H150843   4.826   1.977   2.434 -0.1871  0.2098  0.3685
 9784TIP3    H250844   4.881   1.867   2.346  0.1848  2.2952 -2.1252
 9785TIP3   OH250845   2.069   2.327   4.728  0.2658 -0.2955  0.2564
 9785TIP3    H150846   2.159   2.339   4.759  0.1820  1.5197 -0.0431
 9785TIP3    H250847   2.077   2.285   4.643  0.8048 -0.5305  0.4251
 9786TIP3   OH250848   5.774   6.641  10.864 -0.0280 -0.0391  0.1774
 9786TIP3    H150849   5.726   6.573  10.818  0.1345 -0.3422  0.4533
 9786TIP3    H250850   5.707   6.703  10.894 -0.0238  0.9850 -1.7822
 9787TIP3   OH250851   2.755   6.585  11.123  0.4967 -0.5704 -0.3399
 9787TIP3    H150852   2.711   6.626  11.049 -0.5214 -2.1033 -0.6379
 9787TIP3    H250853   2.692   6.590  11.195  0.3979 -1.4379 -0.3468
 9788TIP3   OH250854   3.637   3.994  14.975  0.2964 -0.3544  0.1228
 9788TIP3    H150855   3.617   3.901  14.984 -0.9555 -0.1402 -0.2229
 9788TIP3    H250856   3.727   4.002  15.006 -0.4267 -1.2582  2.7583
 9789TIP3   OH250857   6.266   6.568   3.658 -0.3489  0.0953  0.3516
 9789TIP3    H150858   6.289   6.618   3.579  0.3403 -0.4935  0.1660
 9789TIP3    H250859   6.324   6.491   3.655 -1.5352 -0.8334  0.5079
 9790TIP3   OH250860   3.852   1.748   2.493  0.0516  0.2537  0.0164
 9790TIP3    H150861   3.873   1.826   2.545 -0.3647  0.1598  0.3327
 9790TIP3    H250862   3.758   1.735   2.506  0.3566 -1.1274  1.1299
 9791TIP3   OH250863   4.885   3.432   2.183  0.3991  0.1093 -0.0091
 9791TIP3    H150864   4.950   3.501   2.172 -1.4847  2.1434  0.8373
 9791TIP3    H250865   4.813   3.458   2.124 -0.4062 -1.0759  0.4181
 9792TIP3   OH250866   1.642   6.059  16.208 -0.9029  0.3671  0.7476
 9792TIP3    H150867   1.633   6.123  16.278  1.1893  0.6461  0.8409
 9792TIP3    H250868   1.723   6.083  16.163 -0.7091 -1.4635 -0.0060
 9793TIP3   OH250869   3.249   5.063   1.967 -0.7439 -0.8066  0.4695
 9793TIP3    H150870   3.246   5.006   2.044  1.2655  0.9412  1.9584
 9793TIP3    H250871   3.341   5.086   1.958 -1.3150  1.1998 -0.8288
 9794TIP3   OH250872   0.467   2.888  16.332 -0.2562  0.1327 -0.2733
 9794TIP3    H150873   0.459   2.937  16.251  1.1997 -0.1444 -0.6195
 9794TIP3    H250874   0.541   2.929  16.377 -0.4691 -0.3050  0.4913
 9795TIP3   OH250875   3.107   3.394  14.142  0.7233  0.7000 -0.1761
 9795TIP3    H150876   3.183   3.391  14.083  0.4722 -0.0824 -0.4676
 9795TIP3    H250877   3.058   3.472  14.113  1.2134  0.9952 -0.2279
 9796TIP3   OH250878   2.466   0.638  11.311  0.2869 -0.0036 -0.1520
 9796TIP3    H150879   2.499   0.616  11.398 -1.4622 -1.3434  0.2307
 9796TIP3    H250880   2.535   0.692  11.272  1.5052 -0.1255  1.7106
 9797TIP3   OH250881   4.456   6.682   0.253 -0.0585 -0.3789 -0.2244
 9797TIP3    H150882   4.379   6.689   0.196 -2.9828 -1.5238  3.2129
 9797TIP3    H250883   4.464   6.768   0.294 -0.3892 -0.6537  0.4275
 9798TIP3   OH250884   0.346   6.084  14.463 -0.5214 -0.4884  0.8498
 9798TIP3    H150885   0.368   6.065  14.554 -1.4278  0.8100  1.3725
 9798TIP3    H250886   0.268   6.032  14.446 -1.4171  0.6136  1.4223
 9799TIP3   OH250887   1.834   1.093  13.989 -0.2655  0.5041 -0.5480
 9799TIP3    H150888   1.759   1.086  13.930 -0.9119  0.7651  0.2293
 9799TIP3    H250889   1.856   1.003  14.012 -0.3379  0.4301 -0.7653
 9800TIP3   OH250890   4.113   3.420   3.398 -0.2218  0.1866 -0.3643
 9800TIP3    H150891   4.177   3.362   3.357 -0.2454  1.5849 -2.5429
 9800TIP3    H250892   4.046   3.361   3.434 -0.2887 -1.1845 -2.5542
 9801TIP3   OH250893   6.801   0.285   4.717  0.0944  0.1341  0.1282
 9801TIP3    H150894   6.774   0.253   4.631  1.2856  0.6693 -0.4727
 9801TIP3    H250895   6.774   0.377   4.717 -0.0623  0.0885  0.3983
 9802TIP3   OH250896   0.939   4.145   1.479  0.6450  0.0245 -0.0910
 9802TIP3    H150897   0.932   4.236   1.450 -1.1695 -0.1486 -0.3164
 9802TIP3    H250898   0.869   4.135   1.543  1.0248 -1.1303  0.1632
 9803TIP3   OH250899   0.402   3.008  12.113  0.0103  0.0914 -0.0567
 9803TIP3    H150900   0.483   3.029  12.158 -0.9869  1.0349  1.3818
 9803TIP3    H250901   0.427   2.944  12.046  1.8739  0.1993  0.4967
 9804TIP3   OH250902   2.605   5.985  16.500 -0.4062 -0.0919  0.1732
 9804TIP3    H150903   2.653   6.031  16.430 -0.8368  0.3518  0.1636
 9804TIP3    H250904   2.630   5.894  16.489  1.1945  0.2350  0.7696
 9805TIP3   OH250905   0.954   0.205  12.465 -0.5972  0.6071 -0.9063
 9805TIP3    H150906   0.871   0.160  12.481 -0.1136  0.6052  2.3698
 9805TIP3    H250907   1.012   0.138  12.429 -1.2829 -0.0749 -0.7594
 9806TIP3   OH250908   5.534   2.113  12.721 -0.3479 -0.4476 -0.3012
 9806TIP3    H150909   5.536   2.197  12.676 -0.0515 -0.6643 -0.7101
 9806TIP3    H250910   5.445   2.080  12.707  0.0344 -0.9922 -1.6688
 9807TIP3   OH250911   6.562   4.243   0.061  0.1744  1.0371  0.2380
 9807TIP3    H150912   6.512   4.253  -0.020 -0.8627  0.9448  0.8484
 9807TIP3    H250913   6.604   4.328   0.073  1.5215  0.6053 -1.1390
 9808TIP3   OH250914   2.940   0.968   4.655 -0.3898 -0.1187 -0.4674
 9808TIP3    H150915   2.937   0.937   4.565 -1.3227 -0.0972 -0.4507
 9808TIP3    H250916   2.851   0.999   4.673  0.0867  0.9914  0.0726
 9809TIP3   OH250917   3.821   3.950  11.948 -0.4372  0.3172 -0.1056
 9809TIP3    H150918   3.781   3.863  11.946 -0.5707  0.3910 -1.8796
 9809TIP3    H250919   3.913   3.935  11.924 -0.6632  0.7360 -1.3041
 9810TIP3   OH250920   3.545   1.664   6.427 -0.0159 -0.0930  0.8325
 9810TIP3    H150921   3.609   1.715   6.377 -0.3932 -0.4682 -0.0518
 9810TIP3    H250922   3.571   1.676   6.519 -0.2322  1.8804  0.6755
 9811TIP3   OH250923   3.605   4.021   0.938 -0.2631  0.1424 -0.1396
 9811TIP3    H150924   3.637   3.987   0.854 -1.6825  1.0157 -1.0713
 9811TIP3    H250925   3.528   4.073   0.915 -1.4086 -0.5760  1.8431
 9812TIP3   OH250926   1.225   5.612   1.415 -0.3454 -0.1660  0.1977
 9812TIP3    H150927   1.200   5.687   1.469 -0.1359  1.0081 -1.2660
 9812TIP3    H250928   1.142   5.577   1.383 -0.3884  1.1536 -1.2824
 9813TIP3   OH250929   5.212   2.644   3.976  0.1615  0.4249 -0.1737
 9813TIP3    H150930   5.260   2.698   4.038  1.5089  0.2261 -1.0049
 9813TIP3    H250931   5.213   2.556   4.014 -0.2852  0.5839  0.2120
 9814TIP3   OH250932   3.773   4.037   0.487  0.2332 -0.1006  0.3513
 9814TIP3    H150933   3.750   3.949   0.517 -1.2476  0.3876  0.7140
 9814TIP3    H250934   3.848   4.062   0.541  0.2153 -0.8501  0.7402
 9815TIP3   OH250935   0.055   1.492   6.335 -0.4017  0.0054 -0.3880
 9815TIP3    H150936   0.076   1.399   6.344 -1.1105 -0.0149  1.3009
 9815TIP3    H250937  -0.018   1.506   6.394  0.1389  1.8058 -0.0924
 9816TIP3   OH250938   6.229   2.863   2.958 -0.1586 -0.3105  0.4494
 9816TIP3    H150939   6.298   2.916   2.918 -1.0067  0.9645  0.6223
 9816TIP3    H250940   6.149   2.891   2.915 -0.8910 -0.0390  1.9238
 9817TIP3   OH250941   5.724   1.695   4.584  0.2663  0.4234 -0.0525
 9817TIP3    H150942   5.703   1.703   4.491  1.0781 -0.1904 -0.3001
 9817TIP3    H250943   5.674   1.765   4.626 -0.5077  0.3833 -0.8819
 9818TIP3   OH250944   3.930   3.338   5.022 -0.0444 -0.1818  0.4565
 9818TIP3    H150945   3.987   3.358   4.948  0.3117 -1.4823  0.3573
 9818TIP3    H250946   3.967   3.389   5.094  0.3125  0.1821  0.0235
 9819TIP3   OH250947   0.680   6.011   5.878  0.4658 -0.3252 -0.5576
 9819TIP3    H150948   0.758   5.956   5.878  0.2909 -0.5920  0.3488
 9819TIP3    H250949   0.672   6.042   5.968 -0.2894 -0.0472 -0.7117
 9820TIP3   OH250950   5.613   2.184   5.103  0.4504  0.0808  0.6942
 9820TIP3    H150951   5.641   2.209   5.015  2.7630 -3.0120  0.3507
 9820TIP3    H250952   5.537   2.128   5.089 -1.4452  2.3877  1.0692
 9821TIP3   OH250953   5.954   6.777  11.248  0.7797  0.2378  0.3061
 9821TIP3    H150954   5.911   6.693  11.230 -0.3136  0.5714  1.2640
 9821TIP3    H250955   6.035   6.753  11.293  0.5432 -0.3183  0.4471
 9822TIP3   OH250956   2.363   0.227  12.182 -0.4910  0.3296  0.1648
 9822TIP3    H150957   2.360   0.138  12.216 -2.7430  0.7347  1.2026
 9822TIP3    H250958   2.402   0.278  12.253  0.1601  0.2921 -0.1602
 9823TIP3   OH250959   5.605   3.384   4.769 -0.2602 -0.3717 -0.0070
 9823TIP3    H150960   5.663   3.310   4.787 -1.3732 -1.6914 -1.5760
 9823TIP3    H250961   5.654   3.460   4.801  1.0508 -1.7103  1.4051
 9824TIP3   OH250962   6.114   1.262  11.989  0.4494  0.1831  0.0830
 9824TIP3    H150963   6.073   1.348  11.997 -0.8186 -0.3722 -0.1718
 9824TIP3    H250964   6.074   1.209  12.058 -0.0524 -0.6610 -0.8265
 9825TIP3   OH250965   3.806   0.065   4.418 -0.3385 -0.1496  1.2002
 9825TIP3    H150966   3.741   0.003   4.383  0.1693  0.0161 -0.1134
 9825TIP3    H250967   3.880   0.010   4.443 -0.2656 -0.1637  0.9540
 9826TIP3   OH250968   1.198   6.614   1.860  0.2688 -0.5032  0.1856
 9826TIP3    H150969   1.218   6.547   1.795 -0.6157 -0.7145  0.1229
 9826TIP3    H250970   1.121   6.658   1.826  0.7944  0.5093  0.2687
 9827TIP3   OH250971   0.805   3.558  13.607  0.1493  0.7481  0.1339
 9827TIP3    H150972   0.840   3.622  13.669 -1.0821  1.7815 -0.1869
 9827TIP3    H250973   0.772   3.611  13.534 -1.1343 -0.2095 -0.0198
 9828TIP3   OH250974   6.744   3.934  13.849  0.3168 -0.1697 -0.0421
 9828TIP3    H150975   6.775   3.963  13.763  1.3965  0.8084  0.6445
 9828TIP3    H250976   6.650   3.952  13.848  0.4551  0.5789 -0.7187
 9829TIP3   OH250977   5.802   6.412   6.326 -0.2121  0.3257  0.6654
 9829TIP3    H150978   5.707   6.423   6.338 -0.2607 -0.5509  1.2070
 9829TIP3    H250979   5.840   6.489   6.367 -0.5865 -0.6065  2.9375
 9830TIP3   OH250980   6.115   6.162   5.620 -0.6056  0.0259  0.4315
 9830TIP3    H150981   6.121   6.155   5.716  0.3084 -0.0506  0.3793
 9830TIP3    H250982   6.036   6.113   5.598  0.2918 -1.7593  0.9810
 9831TIP3   OH250983   4.646   0.727   3.954 -0.5001 -0.0281  0.7430
 9831TIP3    H150984   4.569   0.781   3.939  0.0058  0.7496  0.8687
 9831TIP3    H250985   4.642   0.659   3.887 -0.2278  1.1893 -0.5402
 9832TIP3   OH250986   6.715   1.588  17.140  0.1994  0.0406  0.1031
 9832TIP3    H150987   6.644   1.525  17.125  2.3808 -1.9124 -3.1167
 9832TIP3    H250988   6.693   1.662  17.083 -0.5289  0.6713  1.1600
 9833TIP3   OH250989   6.373   6.213  15.110 -0.2745  0.2585 -0.6732
 9833TIP3    H150990   6.372   6.170  15.196  0.5992 -2.1039 -1.7576
 9833TIP3    H250991   6.434   6.286  15.121  0.2178 -0.2974  0.5805
 9834TIP3   OH250992   0.320   6.107   4.912 -0.3137  0.5065  0.5215
 9834TIP3    H150993   0.328   6.022   4.869 -1.2860  0.4579  0.4185
 9834TIP3    H250994   0.315   6.170   4.840  0.5658  0.6844  0.5972
 9835TIP3   OH250995   5.488   4.909  15.399 -0.1715 -0.2620  0.0701
 9835TIP3    H150996   5.583   4.906  15.388 -0.0972  1.0740  0.1108
 9835TIP3    H250997   5.474   4.980  15.461 -1.0457 -2.5992  2.7379
 9836TIP3   OH250998   5.245   3.146  13.824  0.5606 -0.4766 -0.2106
 9836TIP3    H150999   5.191   3.072  13.849 -0.1708  0.4126  0.9930
 9836TIP3    H251000   5.283   3.177  13.907  2.0734 -0.4188 -0.8841
 9837TIP3   OH251001   6.721   4.886  13.833  0.1455  0.0132 -0.0011
 9837TIP3    H151002   6.641   4.834  13.821  0.1545 -0.3304  1.3213
 9837TIP3    H251003   6.792   4.826  13.811  0.1108 -0.2628  0.6105
 9838TIP3   OH251004   1.938   3.588  15.007  0.2459 -0.0420  0.2199
 9838TIP3    H151005   1.900   3.556  15.089  0.6941 -0.5231  0.2481
 9838TIP3    H251006   1.901   3.530  14.940 -0.3291  0.5196  0.0426
 9839TIP3   OH251007   4.244   2.150  16.694 -0.0861  0.2891  0.2454
 9839TIP3    H151008   4.251   2.062  16.729 -1.7742  0.1364  0.2665
 9839TIP3    H251009   4.309   2.154  16.625 -0.4733 -1.2119 -0.2303
 9840TIP3   OH251010   0.141   5.108   1.919 -0.7470 -0.5267 -0.2546
 9840TIP3    H151011   0.223   5.067   1.893  0.8532  2.2237  0.0844
 9840TIP3    H251012   0.108   5.148   1.839 -1.2293 -0.7396 -0.1675
 9841TIP3   OH251013   0.681   2.694  11.289  0.0899  0.7033 -0.3555
 9841TIP3    H151014   0.637   2.641  11.355  1.7064 -0.9866 -0.5608
 9841TIP3    H251015   0.628   2.682  11.210  0.2597 -0.3883 -0.3161
 9842TIP3   OH251016   4.628   5.690  15.865  0.3127  0.1205 -0.1577
 9842TIP3    H151017   4.689   5.635  15.817  2.3517  1.8751  0.3066
 9842TIP3    H251018   4.546   5.682  15.816  1.4314 -0.7001 -2.0177
 9843TIP3   OH251019   6.090   2.321  12.501 -0.4094  0.0728  0.1634
 9843TIP3    H151020   6.086   2.372  12.583 -0.4959  1.3574 -0.6031
 9843TIP3    H251021   6.146   2.246  12.522  1.7520  1.7261  0.7477
 9844TIP3   OH251022   5.456   1.200  12.373  0.5563  0.5139 -0.2219
 9844TIP3    H151023   5.524   1.229  12.434  1.1172  1.7150 -1.3673
 9844TIP3    H251024   5.455   1.104  12.382  0.8360  0.6305  1.4105
 9845TIP3   OH251025   1.687   1.698  10.814  0.2505 -0.2799 -0.6973
 9845TIP3    H151026   1.715   1.658  10.732  2.4671 -1.1560  0.4131
 9845TIP3    H251027   1.719   1.788  10.808 -2.1309  0.5621 -1.9400
 9846TIP3   OH251028   4.397   6.150  13.642 -0.2957  0.2602  0.4009
 9846TIP3    H151029   4.443   6.222  13.601 -0.4675  1.2143  1.8168
 9846TIP3    H251030   4.330   6.125  13.578 -0.2624  1.3836 -0.0937
 9847TIP3   OH251031   1.510   0.145   0.493  0.1451  0.3174  0.2676
 9847TIP3    H151032   1.421   0.180   0.496  0.1063  0.3120 -0.4919
 9847TIP3    H251033   1.539   0.145   0.584 -0.7958 -0.1110  0.5793
 9848TIP3   OH251034   4.839   6.201   1.166 -0.0798  0.2628  0.5339
 9848TIP3    H151035   4.829   6.288   1.205  0.2683 -0.6180  2.7300
 9848TIP3    H251036   4.882   6.217   1.083  1.6984  2.0582  1.7135
 9849TIP3   OH251037   4.145   5.182  14.541 -0.3564  0.7183  0.5112
 9849TIP3    H151038   4.083   5.130  14.492 -0.8979  0.6830  1.2175
 9849TIP3    H251039   4.151   5.138  14.626  0.8714  0.5399  0.3543
 9850TIP3   OH251040   2.722   1.047   3.599  0.2308 -0.6475  0.1349
 9850TIP3    H151041   2.764   0.961   3.599  1.0843 -0.2990  2.2019
 9850TIP3    H251042   2.784   1.104   3.552  2.0949 -0.2167  2.8400
 9851TIP3   OH251043   5.761   3.903   2.212  0.7729  0.2641 -0.3362
 9851TIP3    H151044   5.781   3.996   2.218  2.3906 -0.1035  0.8070
 9851TIP3    H251045   5.738   3.878   2.302 -1.6453 -0.0717 -0.9817
 9852TIP3   OH251046   0.342   4.657   3.490  0.1189 -0.1107  0.1158
 9852TIP3    H151047   0.431   4.623   3.493  0.8075  1.6614  1.1642
 9852TIP3    H251048   0.329   4.699   3.575 -1.9829 -0.9327  0.2696
 9853TIP3   OH251049   6.296   2.664   4.774  0.3421 -0.3933 -0.2668
 9853TIP3    H151050   6.251   2.672   4.858 -1.4460  1.1496 -1.2885
 9853TIP3    H251051   6.383   2.631   4.796 -0.1043 -0.1236  2.1645
 9854TIP3   OH251052   0.071   3.937  16.783  0.2826  0.1321  0.3160
 9854TIP3    H151053  -0.015   3.898  16.771  1.0841 -1.8431  0.6914
 9854TIP3    H251054   0.054   4.031  16.792 -1.9541 -0.3526  1.8212
 9855TIP3   OH251055   5.378   6.273   3.700  1.0180 -0.1327 -0.0116
 9855TIP3    H151056   5.420   6.348   3.743  1.0265 -1.5470  2.7086
 9855TIP3    H251057   5.293   6.265   3.743 -0.3227  0.1025 -2.4422
 9856TIP3   OH251058   4.346   0.827   1.691 -0.0020  1.0269 -0.3871
 9856TIP3    H151059   4.280   0.868   1.635 -0.3672 -1.2529 -1.7557
 9856TIP3    H251060   4.399   0.774   1.632  1.5230  0.8563  1.0380
 9857TIP3   OH251061   4.127   0.136  11.911 -0.4133  0.5952 -0.2441
 9857TIP3    H151062   4.062   0.127  11.842  1.0027  0.0515 -1.5566
 9857TIP3    H251063   4.121   0.054  11.961  0.1806 -0.0590 -1.2098
 9858TIP3   OH251064   3.208   1.470   2.746 -0.3872 -0.4907 -0.2010
 9858TIP3    H151065   3.294   1.513   2.746 -0.8207  0.4351 -1.4775
 9858TIP3    H251066   3.228   1.377   2.740  0.5358 -0.3011 -0.2472
 9859TIP3   OH251067   3.719   5.351   4.779 -0.1918  0.2275  0.1327
 9859TIP3    H151068   3.814   5.364   4.771  0.0680 -2.2295 -2.0002
 9859TIP3    H251069   3.706   5.326   4.870  1.0645  1.4327  0.6793
 9860TIP3   OH251070   4.900   4.289   0.389  0.8041  0.0294 -0.0313
 9860TIP3    H151071   4.848   4.297   0.470  0.5667  0.5098 -0.2280
 9860TIP3    H251072   4.966   4.357   0.396 -0.3523  1.3277 -1.0691
 9861TIP3   OH251073   5.932   2.938  14.235 -0.4184 -0.0847 -0.2743
 9861TIP3    H151074   5.937   3.009  14.172  2.3804  0.1875  0.1079
 9861TIP3    H251075   5.909   2.980  14.318 -0.0197  0.2164 -0.3116
 9862TIP3   OH251076   1.053   2.169  15.402 -0.3558 -0.2811 -0.0375
 9862TIP3    H151077   1.095   2.097  15.355  0.2633  0.6173 -0.9137
 9862TIP3    H251078   1.123   2.233  15.416 -0.5942 -0.3918  1.9024
 9863TIP3   OH251079   4.043   6.752  13.697  0.4506 -0.2861 -0.2654
 9863TIP3    H151080   4.129   6.716  13.679  0.8748 -0.2514  1.5018
 9863TIP3    H251081   4.059   6.833  13.745 -0.5354 -0.9050  1.1963
 9864TIP3   OH251082   6.123   3.902  13.835  0.3146  0.0626  0.3385
 9864TIP3    H151083   6.160   3.842  13.771 -0.1433 -0.5100  0.5987
 9864TIP3    H251084   6.193   3.963  13.855  0.5759  0.0171 -0.4314
 9865TIP3   OH251085   4.871   6.131   6.085  0.8769 -0.3259  0.2620
 9865TIP3    H151086   4.798   6.070   6.080  0.5380  0.1331 -0.4669
 9865TIP3    H251087   4.949   6.078   6.067  0.5826 -0.5377 -0.3988
 9866TIP3   OH251088   1.007   2.805   5.285 -0.3944 -0.3972 -0.0801
 9866TIP3    H151089   0.939   2.871   5.271 -1.5920 -1.3829  0.8474
 9866TIP3    H251090   1.085   2.842   5.244 -1.1308  1.3958  0.0368
 9867TIP3   OH251091   3.229   2.702  14.948 -0.0436 -0.3189 -0.6544
 9867TIP3    H151092   3.230   2.689  14.853  0.2038 -2.4639 -0.4137
 9867TIP3    H251093   3.282   2.630  14.982  2.3051  2.0211  0.9977
 9868TIP3   OH251094   4.369   4.900   6.716  0.2924  0.1672 -0.0917
 9868TIP3    H151095   4.374   4.811   6.682 -0.9745  0.0278  0.0519
 9868TIP3    H251096   4.277   4.924   6.708  0.5595  1.3403  0.1888
 9869TIP3   OH251097   2.069   0.824   2.840  0.5387  0.5500 -0.1006
 9869TIP3    H151098   1.995   0.869   2.881  0.3233 -0.3651  0.5429
 9869TIP3    H251099   2.030   0.774   2.768  0.7108  0.9889 -0.5083
 9870TIP3   OH251100   3.764   2.508  13.723 -0.2296 -0.4365 -0.2731
 9870TIP3    H151101   3.809   2.576  13.774 -0.2382 -0.5502 -0.1127
 9870TIP3    H251102   3.832   2.475  13.663 -0.3749  0.0994 -0.7444
 9871TIP3   OH251103   2.530   0.460  13.419 -0.4841 -0.6338  0.4885
 9871TIP3    H151104   2.543   0.539  13.366 -1.1663 -1.1681 -0.4951
 9871TIP3    H251105   2.618   0.437  13.449 -0.2797  0.5349  0.8654
 9872TIP3   OH251106   0.092   5.337  14.175  0.5623  0.1025 -0.3907
 9872TIP3    H151107   0.131   5.277  14.239  0.8998  0.5915 -0.1335
 9872TIP3    H251108   0.136   5.421  14.191 -0.3671  0.5817 -0.3128
 9873TIP3   OH251109   6.109   2.195  14.916  0.2716 -0.7170  0.0541
 9873TIP3    H151110   6.119   2.275  14.864 -2.2614 -1.2148 -1.3940
 9873TIP3    H251111   6.082   2.227  15.003 -0.0792  0.0297 -0.3168
 9874TIP3   OH251112   6.502   4.203   4.980 -0.1152  0.0594 -0.6113
 9874TIP3    H151113   6.515   4.202   4.885  0.6576  1.3785 -0.5492
 9874TIP3    H251114   6.544   4.285   5.009  0.1156 -0.5684  0.9315
 9875TIP3   OH251115   6.762   3.965   2.068 -0.4801 -0.0741 -0.0854
 9875TIP3    H151116   6.803   3.977   2.154 -0.9200  1.1132 -0.0283
 9875TIP3    H251117   6.762   4.052   2.029 -0.5697 -0.5459 -1.1726
 9876TIP3   OH251118   0.293   5.775  14.643  0.0235 -0.1213  0.5725
 9876TIP3    H151119   0.320   5.700  14.696 -0.1750 -1.3929 -1.0393
 9876TIP3    H251120   0.273   5.737  14.557  0.4081  1.8685 -0.4431
 9877TIP3   OH251121   1.499   4.871   0.774  0.5226  0.4038 -0.1222
 9877TIP3    H151122   1.567   4.860   0.840  0.3375 -2.0146 -0.2605
 9877TIP3    H251123   1.541   4.846   0.692  0.3530  2.0685 -0.7693
 9878TIP3   OH251124   1.682   3.272  15.639  0.3616  0.4088 -0.5784
 9878TIP3    H151125   1.739   3.318  15.701 -1.7130  0.8023  1.1792
 9878TIP3    H251126   1.705   3.180  15.650  0.2288  0.5010  0.5939
 9879TIP3   OH251127   5.919   0.999  15.767 -0.2282 -0.0310  0.1732
 9879TIP3    H151128   5.901   0.946  15.689  2.4039  1.5013 -1.6379
 9879TIP3    H251129   5.876   1.083  15.750 -0.5554 -0.0395  0.9104
 9880TIP3   OH251130   3.173   5.012  12.001  0.1792  0.2426  0.0214
 9880TIP3    H151131   3.220   4.993  11.920  0.8510  0.3429  0.3835
 9880TIP3    H251132   3.241   5.031  12.065 -0.2192 -1.8141  1.1549
 9881TIP3   OH251133   2.864   4.190  12.534  0.4491 -0.6191  0.2407
 9881TIP3    H151134   2.782   4.140  12.535  0.5378 -0.7642  0.3326
 9881TIP3    H251135   2.896   4.185  12.624 -0.8548  1.7930  0.9169
 9882TIP3   OH251136   5.980   5.318  13.275 -0.9140 -0.2857 -0.1236
 9882TIP3    H151137   5.995   5.381  13.204 -1.7638 -1.4184 -1.3548
 9882TIP3    H251138   5.995   5.232  13.235 -0.0531 -0.8974  1.4462
 9883TIP3   OH251139   3.186   2.471   1.679 -0.3734 -0.0710  0.7094
 9883TIP3    H151140   3.259   2.491   1.737  0.9112 -0.6472 -0.6529
 9883TIP3    H251141   3.201   2.526   1.601 -0.5147 -1.2925 -0.2165
 9884TIP3   OH251142   1.615   2.352  15.243  0.6112 -0.3996 -0.1612
 9884TIP3    H151143   1.631   2.258  15.249  1.1053 -0.2301  1.6981
 9884TIP3    H251144   1.598   2.379  15.333 -1.3477  1.0040 -0.8856
 9885TIP3   OH251145   2.292   0.585  16.866  0.4528 -0.0755  0.3971
 9885TIP3    H151146   2.228   0.628  16.811  1.1345 -0.8286 -1.0271
 9885TIP3    H251147   2.336   0.523  16.809  1.5192 -0.5543  1.6713
 9886TIP3   OH251148   0.299   0.827  15.853  0.8231 -0.0266 -0.4811
 9886TIP3    H151149   0.265   0.738  15.854 -2.4465  1.0982 -0.9392
 9886TIP3    H251150   0.353   0.832  15.774  1.4938 -1.6725 -0.1696
 9887TIP3   OH251151   3.733   2.312   5.727  0.0992  0.3556 -0.3217
 9887TIP3    H151152   3.664   2.248   5.745  0.5132 -0.2456 -0.8436
 9887TIP3    H251153   3.714   2.385   5.786 -3.4658  2.1181 -3.2551
 9888TIP3   OH251154   1.387   0.399  12.376  0.1336  0.3412  0.4420
 9888TIP3    H151155   1.449   0.384  12.304  0.4340  1.8178  0.3639
 9888TIP3    H251156   1.334   0.472  12.346 -0.9547 -0.2191  0.9731
 9889TIP3   OH251157   2.255   5.086   2.761  0.2306  0.2718  0.3342
 9889TIP3    H151158   2.180   5.063   2.705  1.0549 -0.2779 -0.5798
 9889TIP3    H251159   2.218   5.092   2.849 -1.0629  0.9074 -0.2170
 9890TIP3   OH251160   6.205   2.768   1.770  0.4400 -0.5644 -0.2816
 9890TIP3    H151161   6.249   2.705   1.827  1.2692 -1.3872 -1.7500
 9890TIP3    H251162   6.245   2.852   1.791  0.2945 -0.7458  0.7561
 9891TIP3   OH251163   0.059   4.181  12.203  0.0973  0.3920 -0.7029
 9891TIP3    H151164   0.101   4.163  12.287  0.2780 -2.6120 -1.2974
 9891TIP3    H251165   0.097   4.263  12.173  0.8644  0.9513  1.5994
 9892TIP3   OH251166   5.246   0.970   2.338  0.5046 -0.6423 -0.5516
 9892TIP3    H151167   5.282   0.920   2.264  1.0682  1.7439 -1.9858
 9892TIP3    H251168   5.301   1.048   2.344 -1.0819  0.4483  0.7693
 9893TIP3   OH251169   6.680   0.247   5.056 -0.4341 -0.2782 -0.2082
 9893TIP3    H151170   6.612   0.206   5.110 -1.4555  2.0677  0.3956
 9893TIP3    H251171   6.721   0.174   5.009  0.3985 -2.4808  3.5271
 9894TIP3   OH251172   6.721   5.548  11.487  0.2482 -0.1559  0.1252
 9894TIP3    H151173   6.654   5.588  11.431 -0.1216  1.0726  1.3951
 9894TIP3    H251174   6.783   5.619  11.505  1.7253 -1.1798 -0.7212
 9895TIP3   OH251175   4.254   3.855   3.734  0.5064 -0.6302 -0.6555
 9895TIP3    H151176   4.309   3.800   3.790 -0.3736 -1.1824 -0.3102
 9895TIP3    H251177   4.252   3.808   3.650  4.1464  1.5797 -2.2193
 9896TIP3   OH251178   6.260   0.957   3.532  0.4594  0.0194 -0.0119
 9896TIP3    H151179   6.349   0.925   3.538  0.6549  0.6858  0.8413
 9896TIP3    H251180   6.268   1.044   3.493  0.4286  0.9628  1.9402
 9897TIP3   OH251181   5.145   3.680   5.405  0.2914  0.2221 -0.0094
 9897TIP3    H151182   5.214   3.735   5.368 -0.4087 -0.2918 -2.1916
 9897TIP3    H251183   5.093   3.652   5.330 -0.8655 -1.3847  1.3164
 9898TIP3   OH251184   5.513   1.178   1.697  0.0308 -0.3039 -0.0131
 9898TIP3    H151185   5.585   1.221   1.652 -0.2374  0.0801 -0.0824
 9898TIP3    H251186   5.505   1.092   1.655 -1.7882  0.9132 -2.4114
 9899TIP3   OH251187   6.541   3.938   6.611 -0.3746  0.4526 -0.0653
 9899TIP3    H151188   6.517   4.028   6.591  0.3241  0.5266 -0.6338
 9899TIP3    H251189   6.631   3.944   6.644 -1.0315  0.1785  1.8857
 9900TIP3   OH251190   4.895   0.451  16.651  0.0675 -0.2578  0.4859
 9900TIP3    H151191   4.966   0.404  16.608 -0.7197 -0.3671 -0.7420
 9900TIP3    H251192   4.848   0.384  16.701  0.3046 -0.3368  0.6082
 9901TIP3   OH251193   2.264   3.228  17.075 -0.2769 -0.1602 -0.0742
 9901TIP3    H151194   2.321   3.217  17.151 -0.4935  1.1333  0.2920
 9901TIP3    H251195   2.324   3.256  17.005 -0.2735 -0.0419 -0.0244
 9902TIP3   OH251196   4.994   2.147  16.680 -0.1460 -0.7470 -0.1367
 9902TIP3    H151197   5.008   2.081  16.747 -0.8686 -0.9525 -0.1816
 9902TIP3    H251198   4.900   2.165  16.682 -0.1922 -0.7896 -1.1228
 9903TIP3   OH251199   6.125   6.401  11.209  0.2871 -0.3686  0.2831
 9903TIP3    H151200   6.041   6.443  11.226  0.7664  1.1950 -0.8974
 9903TIP3    H251201   6.117   6.367  11.119  1.3528  1.0887 -0.4087
 9904TIP3   OH251202   5.502   1.196  13.687 -0.2723 -0.1846 -0.2382
 9904TIP3    H151203   5.476   1.238  13.605 -2.4203  0.2678  0.6163
 9904TIP3    H251204   5.422   1.194  13.739  1.7522  2.9348  3.3978
 9905TIP3   OH251205   5.695   5.853  15.631 -0.0961 -0.8396 -0.1360
 9905TIP3    H151206   5.647   5.872  15.550 -0.7843 -0.0867  0.4309
 9905TIP3    H251207   5.786   5.846  15.604  0.0705  2.0521 -0.6397
 9906TIP3   OH251208   2.837   0.534  15.082 -0.3813 -0.4893 -0.1622
 9906TIP3    H151209   2.932   0.535  15.071 -0.4290  0.7835 -0.5596
 9906TIP3    H251210   2.803   0.509  14.996 -0.4721  1.7054 -0.8217
 9907TIP3   OH251211   0.328   0.853   2.385  0.4024  0.3655  0.3392
 9907TIP3    H151212   0.244   0.853   2.339  1.3902  0.5130 -1.5567
 9907TIP3    H251213   0.310   0.899   2.467 -1.1951  1.0819 -0.3671
 9908TIP3   OH251214   4.162   3.614  14.166 -0.2761 -0.0888  0.0482
 9908TIP3    H151215   4.111   3.660  14.233  1.5913 -0.6870  1.9798
 9908TIP3    H251216   4.235   3.672  14.147  0.1139 -0.6654 -0.2317
 9909TIP3   OH251217   0.076   6.676   5.103  0.0375  0.0633  0.5911
 9909TIP3    H151218   0.140   6.705   5.168 -0.7607  1.2663  0.8746
 9909TIP3    H251219   0.018   6.617   5.152 -0.0325  0.2531  0.7360
 9910TIP3   OH251220   6.505   5.974  14.218  0.0526 -0.5931  0.0868
 9910TIP3    H151221   6.592   5.972  14.257  0.2616 -2.4317 -0.3977
 9910TIP3    H251222   6.516   6.029  14.140 -0.2064  2.5036  2.0270
 9911TIP3   OH251223   2.472   6.103  12.823 -0.0272 -0.0674  0.1513
 9911TIP3    H151224   2.449   6.090  12.915 -0.2561 -2.3005 -0.1501
 9911TIP3    H251225   2.538   6.172  12.824  0.9346 -0.9368  2.1483
 9912TIP3   OH251226   4.936   4.377   5.251  0.5676 -0.3464 -0.1892
 9912TIP3    H151227   4.964   4.456   5.298  0.3525 -0.6140  0.3959
 9912TIP3    H251228   4.945   4.400   5.159 -0.7107  0.7981 -0.0508
 9913TIP3   OH251229   3.696   0.430  16.591 -0.7305 -0.2206 -0.3662
 9913TIP3    H151230   3.649   0.359  16.634 -0.2042 -0.5279 -0.2866
 9913TIP3    H251231   3.628   0.488  16.559 -1.1448  0.4899  1.6592
 9914TIP3   OH251232   3.667   1.146  11.049  0.4318  0.1194  0.8743
 9914TIP3    H151233   3.758   1.124  11.027  0.0818 -0.7815  0.2553
 9914TIP3    H251234   3.645   1.088  11.122  0.0994 -0.2381  0.4917
 9915TIP3   OH251235   1.227   0.451   5.541  0.3933 -0.0493  0.0577
 9915TIP3    H151236   1.299   0.401   5.579  1.6189  1.3407 -0.3577
 9915TIP3    H251237   1.262   0.539   5.530 -2.1307  1.3627  2.1572
 9916TIP3   OH251238   2.863   1.768   0.391 -0.0406 -0.2581  0.0028
 9916TIP3    H151239   2.911   1.723   0.459 -1.1717  1.4388  2.0396
 9916TIP3    H251240   2.773   1.772   0.423 -0.8547 -0.3113 -2.0919
 9917TIP3   OH251241   0.671   6.806   0.451  0.4680 -0.7476  0.1396
 9917TIP3    H151242   0.605   6.844   0.393 -0.2580 -0.4039  1.1575
 9917TIP3    H251243   0.627   6.801   0.537  1.7551 -0.5086  0.8340
 9918TIP3   OH251244   0.428   3.403   1.841  0.0644 -0.0786 -0.3728
 9918TIP3    H151245   0.470   3.351   1.773  1.4081 -1.0070  1.1221
 9918TIP3    H251246   0.435   3.493   1.810  0.5595 -0.4916 -1.4929
 9919TIP3   OH251247   2.631   1.180  11.285  0.5280  0.4694  0.0247
 9919TIP3    H151248   2.718   1.202  11.318  1.0816  0.4725 -1.3886
 9919TIP3    H251249   2.647   1.138  11.201 -0.8856  1.4856 -0.7984
 9920TIP3   OH251250   0.423   5.001   5.876  0.4294  0.7895  0.0779
 9920TIP3    H151251   0.347   5.010   5.818  0.1984  2.1135  0.5440
 9920TIP3    H251252   0.385   5.000   5.964  0.6675 -2.3962  0.2732
 9921TIP3   OH251253   6.131   3.751  16.407 -0.4342 -0.0242 -0.3009
 9921TIP3    H151254   6.062   3.744  16.473  1.0156  0.4820  1.3324
 9921TIP3    H251255   6.103   3.823  16.351 -2.3908 -1.3742 -1.1796
 9922TIP3   OH251256   2.518   3.370  10.752 -0.2649 -1.0114  0.1588
 9922TIP3    H151257   2.565   3.292  10.724  0.4916 -0.0796 -1.3662
 9922TIP3    H251258   2.584   3.440  10.749 -0.9086 -0.3106  1.5068
 9923TIP3   OH251259   6.708   4.168   0.912 -0.2879  0.0735 -0.1872
 9923TIP3    H151260   6.666   4.252   0.930  1.0917  0.6148  0.6726
 9923TIP3    H251261   6.662   4.135   0.835 -2.2564  0.6145  0.6882
 9924TIP3   OH251262   3.389   4.288  12.164 -0.3185  0.3071 -0.2362
 9924TIP3    H151263   3.395   4.339  12.083  0.1686 -0.9592 -1.0426
 9924TIP3    H251264   3.401   4.197  12.135 -1.6512 -0.3254  1.0697
 9925TIP3   OH251265   5.591   0.443   0.186  0.4191  0.2460 -0.4823
 9925TIP3    H151266   5.626   0.460   0.099  1.1232 -0.8865 -0.4457
 9925TIP3    H251267   5.531   0.370   0.175 -1.2209  1.5024 -0.3549
 9926TIP3   OH251268   0.635   1.743  15.428 -0.2695 -0.1423  0.7539
 9926TIP3    H151269   0.621   1.674  15.363 -0.7684 -1.3639  2.0974
 9926TIP3    H251270   0.552   1.791  15.431 -0.6429 -0.7977  1.2613
 9927TIP3   OH251271   6.164   5.956   5.317 -0.5117 -0.3469  0.5071
 9927TIP3    H151272   6.133   6.003   5.239 -0.3844 -0.5883  0.3120
 9927TIP3    H251273   6.171   5.865   5.290 -2.4672 -0.8051  1.3795
 9928TIP3   OH251274   3.836   5.860  16.236  0.2662 -0.4491  0.6815
 9928TIP3    H151275   3.746   5.826  16.243 -0.2823  0.6127 -0.7301
 9928TIP3    H251276   3.867   5.827  16.151  0.8942 -0.0830  0.7648
 9929TIP3   OH251277   2.232   6.500  11.224 -0.1255  0.2956 -0.2701
 9929TIP3    H151278   2.150   6.450  11.230 -2.2421  3.6319  2.1930
 9929TIP3    H251279   2.215   6.566  11.158  0.6589  0.8837  0.1084
 9930TIP3   OH251280   5.848   6.073   6.675 -0.0818  0.2309 -0.1230
 9930TIP3    H151281   5.796   6.145   6.711 -0.4794 -0.6471  1.1112
 9930TIP3    H251282   5.785   6.022   6.623  0.0107  0.2700 -0.2762
 9931TIP3   OH251283   2.723   5.497  11.496 -0.2562  0.0508  0.0730
 9931TIP3    H151284   2.646   5.464  11.451 -1.4169  2.9489 -0.3273
 9931TIP3    H251285   2.703   5.488  11.589 -0.7095 -0.0438 -0.0330
 9932TIP3   OH251286   4.316   1.367   1.463 -0.2234  0.8921 -0.3675
 9932TIP3    H151287   4.284   1.455   1.441 -2.4998  0.6781  1.6934
 9932TIP3    H251288   4.240   1.310   1.450  0.6081 -0.4247  0.3591
 9933TIP3   OH251289   2.591   0.776  12.005  0.4274 -0.6144 -0.0152
 9933TIP3    H151290   2.620   0.862  11.972  1.1065 -0.7293  0.2564
 9933TIP3    H251291   2.511   0.758  11.957 -0.2582  0.6123  0.6175
 9934TIP3   OH251292   0.300   0.215  15.324  0.0557  0.4767  0.5590
 9934TIP3    H151293   0.343   0.215  15.410  3.0580  1.1002 -0.8204
 9934TIP3    H251294   0.331   0.295  15.282 -2.1052  0.6619 -0.8250
 9935TIP3   OH251295   2.320   5.203  16.389  0.6783 -0.7785  0.3066
 9935TIP3    H151296   2.399   5.158  16.360 -0.6693 -2.3896 -1.0457
 9935TIP3    H251297   2.268   5.215  16.309 -0.9424 -0.8000  1.3079
 9936TIP3   OH251298   1.047   0.896  11.283  0.6280  0.0330  0.0153
 9936TIP3    H151299   1.104   0.869  11.355  1.5115  1.6520 -0.0213
 9936TIP3    H251300   1.081   0.982  11.257 -0.4700  0.0440 -1.4932
 9937TIP3   OH251301   6.522   0.517  14.469  0.0021  0.1477 -0.1674
 9937TIP3    H151302   6.555   0.433  14.438 -0.4219  0.2019 -0.7840
 9937TIP3    H251303   6.583   0.582  14.434 -0.5094  0.2139 -0.9620
 9938TIP3   OH251304   0.674   4.197   2.757 -0.2916 -0.1559  0.4216
 9938TIP3    H151305   0.647   4.230   2.843  0.2909 -0.6672  0.8098
 9938TIP3    H251306   0.733   4.264   2.723  0.1451 -0.3485  0.7950
 9939TIP3   OH251307   4.785   5.731   6.223  0.4406  0.1202  0.4626
 9939TIP3    H151308   4.843   5.776   6.285  2.1077  0.5885 -1.3484
 9939TIP3    H251309   4.745   5.662   6.275  1.7260  0.5230  2.0962
 9940TIP3   OH251310   3.602   1.102  14.850 -0.3182 -0.7482 -0.2213
 9940TIP3    H151311   3.555   1.044  14.910  0.2539 -0.2809  0.7130
 9940TIP3    H251312   3.693   1.073  14.855 -0.0800  0.0248  0.0167
 9941TIP3   OH251313   1.993   2.779  14.492  0.0352  0.1978 -0.2658
 9941TIP3    H151314   1.944   2.716  14.546  1.3564  0.7015  1.5905
 9941TIP3    H251315   1.968   2.756  14.402 -1.1751 -1.5763  0.4485
 9942TIP3   OH251316   1.501   2.134   4.589 -0.0027 -0.2860  0.3480
 9942TIP3    H151317   1.470   2.224   4.597  0.1027 -0.1979 -0.1577
 9942TIP3    H251318   1.421   2.081   4.586 -0.1136 -0.0936 -0.5697
 9943TIP3   OH251319   2.346   4.189  16.684 -0.7378  0.3241  0.0078
 9943TIP3    H151320   2.290   4.240  16.625 -1.8228  0.1129  0.8182
 9943TIP3    H251321   2.342   4.099  16.650  0.9787  0.6714 -1.2769
 9944TIP3   OH251322   1.054   5.688  15.325  0.2839  0.6006 -0.4132
 9944TIP3    H151323   0.990   5.704  15.256  1.0539  0.7299 -1.1112
 9944TIP3    H251324   1.057   5.769  15.376 -1.3582  0.0225  0.7070
 9945TIP3   OH251325   3.702   3.217  13.093  0.4019 -0.6355 -0.2379
 9945TIP3    H151326   3.777   3.189  13.041  0.5148  0.9755 -0.9999
 9945TIP3    H251327   3.730   3.299  13.134 -0.1531 -1.1866  1.3347
 9946TIP3   OH251328   5.292   4.347  15.530  0.0282  0.1574  0.3769
 9946TIP3    H151329   5.232   4.338  15.604 -1.8746  0.3004 -1.0796
 9946TIP3    H251330   5.369   4.391  15.567 -0.5295 -0.4727  2.4086
 9947TIP3   OH251331   0.633   1.214  11.966  0.0754  0.1241 -0.2350
 9947TIP3    H151332   0.661   1.222  12.057  2.3245  1.6646 -0.9842
 9947TIP3    H251333   0.541   1.188  11.971  0.7544 -2.1967  2.4236
 9948TIP3   OH251334   2.203   5.822  14.550  0.3504  0.5230  0.2350
 9948TIP3    H151335   2.114   5.791  14.533  0.6029 -0.5557  0.7902
 9948TIP3    H251336   2.250   5.808  14.467  0.6082 -1.1843  0.6323
 9949TIP3   OH251337   5.457   2.679  14.125  0.1011 -0.1006  0.2482
 9949TIP3    H151338   5.374   2.728  14.121  0.7101  0.8940 -0.8649
 9949TIP3    H251339   5.480   2.662  14.034  1.6497  0.5834  0.4760
 9950TIP3   OH251340   1.278   2.178   2.610  0.3785 -0.5042  0.7362
 9950TIP3    H151341   1.230   2.124   2.548 -0.5775  1.4232 -0.2753
 9950TIP3    H251342   1.222   2.183   2.687  0.5990 -1.1407  0.9477
 9951TIP3   OH251343   3.982   5.803  15.880  0.5726  0.5929  0.3510
 9951TIP3    H151344   4.024   5.884  15.910 -0.5151  0.8490  1.2435
 9951TIP3    H251345   3.890   5.827  15.868  0.6834  0.1191 -1.8626
 9952TIP3   OH251346   1.042   2.634   2.441 -0.1041  0.6808 -0.3597
 9952TIP3    H151347   1.104   2.631   2.514  1.2424 -2.2820 -1.4968
 9952TIP3    H251348   1.039   2.727   2.416  1.7364  1.2977  1.4774
 9953TIP3   OH251349   6.690   1.991   3.013  0.2485 -0.3256 -0.4831
 9953TIP3    H151350   6.663   1.899   3.012 -0.3391 -0.1559 -0.6320
 9953TIP3    H251351   6.683   2.018   2.921  1.6099 -0.4700 -0.6397
 9954TIP3   OH251352   6.029   2.061   2.715 -0.4157 -0.1510 -0.0399
 9954TIP3    H151353   5.971   1.986   2.730 -2.0557  0.8756 -0.8840
 9954TIP3    H251354   6.017   2.082   2.622  0.7174  0.5922 -0.0356
 9955TIP3   OH251355   0.692   2.556  12.005  0.7596  0.3018 -0.2885
 9955TIP3    H151356   0.680   2.615  12.080 -3.8279 -1.0830  0.4159
 9955TIP3    H251357   0.690   2.614  11.929  0.5939  1.3896  0.5052
 9956TIP3   OH251358   0.636   2.124  17.010 -0.9306  0.0553  0.2440
 9956TIP3    H151359   0.575   2.059  17.042  0.4169 -0.8411  1.0812
 9956TIP3    H251360   0.667   2.089  16.926 -0.0915 -0.4828  0.7660
 9957TIP3   OH251361   3.387   5.824  12.946 -0.7835  0.3439 -0.7260
 9957TIP3    H151362   3.311   5.861  12.990 -1.7667 -1.5144 -0.7817
 9957TIP3    H251363   3.424   5.762  13.009  1.2998  1.8927 -0.3288
 9958TIP3   OH251364   0.348   1.965  13.955  0.1903  0.2630 -0.0417
 9958TIP3    H151365   0.292   2.043  13.956  0.1849  0.3044 -1.4263
 9958TIP3    H251366   0.299   1.901  13.903 -0.3375 -1.1096  2.0442
 9959TIP3   OH251367   2.206   0.340   3.515 -0.1776  0.1806  0.4446
 9959TIP3    H151368   2.128   0.288   3.536 -0.0044 -0.8116 -1.1982
 9959TIP3    H251369   2.267   0.318   3.586 -0.4037 -1.2649  0.2378
 9960TIP3   OH251370   5.906   1.235  17.255 -0.0403 -0.0112  0.5032
 9960TIP3    H151371   5.857   1.314  17.232 -1.5280 -1.5361 -2.0941
 9960TIP3    H251372   5.872   1.211  17.341 -0.5292  1.4261  0.7438
 9961TIP3   OH251373   2.476   2.577   2.537  0.1536 -0.6533  0.0431
 9961TIP3    H151374   2.458   2.499   2.591  1.2620  0.2249  1.7752
 9961TIP3    H251375   2.439   2.650   2.587  1.1839  0.1850 -0.3773
 9962TIP3   OH251376   4.246   2.858   5.355  0.4241 -0.8037 -0.0838
 9962TIP3    H151377   4.158   2.855   5.392  0.8512 -0.9251  0.9742
 9962TIP3    H251378   4.303   2.837   5.429  1.3957  0.1668 -0.5277
 9963TIP3   OH251379   5.423   3.561  16.051  0.3324  0.2161  0.1414
 9963TIP3    H151380   5.376   3.600  16.125 -1.8301  1.1208 -1.5884
 9963TIP3    H251381   5.413   3.625  15.980 -0.9392 -2.1644 -2.0042
 9964TIP3   OH251382   2.676   3.333  16.009 -0.1611 -0.8638 -0.1790
 9964TIP3    H151383   2.594   3.286  16.023 -0.0771 -0.6052  1.3162
 9964TIP3    H251384   2.743   3.264  16.004 -0.3568 -1.0275 -0.6032
 9965TIP3   OH251385   5.661   5.033   1.725  0.3675 -0.0045  0.3183
 9965TIP3    H151386   5.682   4.949   1.684 -0.4156 -1.1861  2.2105
 9965TIP3    H251387   5.566   5.040   1.718  0.2762 -0.0021  1.5018
 9966TIP3   OH251388   3.368   4.885  13.866 -0.3367  0.4066 -0.6291
 9966TIP3    H151389   3.283   4.921  13.893 -1.6506 -2.4904 -0.5194
 9966TIP3    H251390   3.420   4.884  13.947 -1.4495 -0.9421  0.1027
 9967TIP3   OH251391   2.238   5.425   4.234  0.2678 -0.2699 -0.4970
 9967TIP3    H151392   2.246   5.438   4.328  0.0407 -0.6142 -0.4280
 9967TIP3    H251393   2.239   5.514   4.197 -1.5411 -0.0090 -0.0162
 9968TIP3   OH251394   5.625   5.708  16.195 -0.4263  0.2121  0.1587
 9968TIP3    H151395   5.536   5.742  16.206 -1.4020 -1.7821 -0.9188
 9968TIP3    H251396   5.654   5.688  16.284 -1.1752  0.6053  0.5023
 9969TIP3   OH251397   1.662   4.668  15.812  0.2762  0.4775 -0.2460
 9969TIP3    H151398   1.616   4.593  15.848 -0.9034  1.4059  0.2185
 9969TIP3    H251399   1.595   4.718  15.766  0.7042  2.0877  0.8132
 9970TIP3   OH251400   1.265   2.239  14.345 -0.2440  0.1290  0.3268
 9970TIP3    H151401   1.192   2.249  14.407  1.2386  3.7745  1.7401
 9970TIP3    H251402   1.326   2.181  14.390 -0.5779  0.1572  0.8256
 9971TIP3   OH251403   1.131   3.044   6.313 -0.3997 -0.2399 -0.8053
 9971TIP3    H151404   1.049   3.012   6.277 -1.0936 -0.5079  0.9108
 9971TIP3    H251405   1.112   3.134   6.342 -1.0514 -1.2271  2.2533
 9972TIP3   OH251406   2.253   0.509   2.634  0.1854 -0.3992  0.5552
 9972TIP3    H151407   2.306   0.489   2.557 -1.7966 -0.7892 -0.7820
 9972TIP3    H251408   2.210   0.592   2.613  0.8357  0.3124  1.9368
 9973TIP3   OH251409   4.059   2.703   2.682 -0.2789  0.0033 -0.2325
 9973TIP3    H151410   4.141   2.728   2.642  0.0790  2.5951  1.8706
 9973TIP3    H251411   3.994   2.712   2.612  1.1698 -3.0058 -2.2072
 9974TIP3   OH251412   0.589   3.880   1.553  0.4377 -0.1677 -0.1779
 9974TIP3    H151413   0.573   3.791   1.521  0.4761 -0.1853 -0.1485
 9974TIP3    H251414   0.504   3.923   1.546  0.4270 -0.1961 -0.2255
 9975TIP3   OH251415   5.798   0.566  12.163 -0.2333 -0.1566  0.5896
 9975TIP3    H151416   5.829   0.506  12.095 -1.2596 -0.8930  0.7499
 9975TIP3    H251417   5.791   0.511  12.242 -1.0406  0.1984  0.7727
 9976TIP3   OH251418   0.664   0.520  13.435  0.2409 -0.5882 -0.0483
 9976TIP3    H151419   0.695   0.479  13.516  0.1562 -1.2356 -0.3376
 9976TIP3    H251420   0.699   0.609  13.439  2.2058 -1.2827 -0.3808
 9977TIP3   OH251421   2.684   5.336   4.247  0.3279  0.0282  0.7001
 9977TIP3    H151422   2.605   5.284   4.230  1.2137 -0.7004 -1.4731
 9977TIP3    H251423   2.691   5.393   4.171  1.4059  0.7439  1.3242
 9978TIP3   OH251424   6.425   4.059  15.874  0.1447 -0.4839 -0.1150
 9978TIP3    H151425   6.390   3.970  15.880 -1.9156  0.2703 -0.1110
 9978TIP3    H251426   6.422   4.092  15.964 -3.4872  1.0752 -0.6562
 9979TIP3   OH251427   6.508   6.063   4.106  0.0288 -0.4743  0.1240
 9979TIP3    H151428   6.571   6.006   4.150 -0.0839 -1.0041 -0.3866
 9979TIP3    H251429   6.561   6.138   4.076  0.5066 -1.1230 -0.6805
 9980TIP3   OH251430   6.554   0.658   4.938  0.1481 -0.3294  0.9207
 9980TIP3    H151431   6.592   0.593   4.879 -0.7877  1.1680 -1.4974
 9980TIP3    H251432   6.601   0.739   4.918 -2.9010  1.1806 -0.9232
 9981TIP3   OH251433   3.196   0.891   1.845  0.1603 -0.2066  0.4375
 9981TIP3    H151434   3.224   0.813   1.795  0.4121 -0.9487  1.7019
 9981TIP3    H251435   3.158   0.948   1.779  2.4247 -0.2066 -0.9996
 9982TIP3   OH251436   1.901   0.160  12.065  0.1636  0.2367  0.5184
 9982TIP3    H151437   1.913   0.072  12.101  1.5282  0.5486  0.8680
 9982TIP3    H251438   1.972   0.212  12.103 -0.6089  1.5002  0.3065
 9983TIP3   OH251439   0.230   5.248  10.591  0.1786 -0.2868  0.6776
 9983TIP3    H151440   0.157   5.232  10.530 -0.0759  2.1896  0.2460
 9983TIP3    H251441   0.308   5.244  10.536  0.0484  0.6744  0.4041
 9984TIP3   OH251442   1.072   3.605   1.460  0.0880 -0.1627  0.3682
 9984TIP3    H151443   1.090   3.697   1.445  0.9684 -0.1292  1.4985
 9984TIP3    H251444   1.137   3.558   1.408 -1.2923 -0.2203 -1.4099
 9985TIP3   OH251445   1.833   4.877   1.479  0.7078  0.3984 -0.2358
 9985TIP3    H151446   1.898   4.947   1.475  1.5337 -0.3416 -0.1850
 9985TIP3    H251447   1.882   4.797   1.457 -0.2313 -0.1480 -0.4003
 9986TIP3   OH251448   2.936   0.465  13.711  0.3639  0.2978  0.2506
 9986TIP3    H151449   2.985   0.538  13.674  0.2257 -0.2770 -1.1249
 9986TIP3    H251450   2.972   0.454  13.799  3.6230 -0.8978 -1.1005
 9987TIP3   OH251451   5.309   0.541   2.386  0.1345 -0.0307  0.0151
 9987TIP3    H151452   5.243   0.472   2.399 -2.0286  1.7471 -0.7861
 9987TIP3    H251453   5.333   0.567   2.475 -1.1990  0.0728  0.3812
 9988TIP3   OH251454   1.134   3.073  15.324 -0.4429 -0.0874  0.1990
 9988TIP3    H151455   1.095   3.122  15.397  0.4074 -0.0171  0.6215
 9988TIP3    H251456   1.060   3.029  15.282 -1.1141  0.9347  0.2898
 9989TIP3   OH251457   2.320   2.686   0.747  0.5621  0.3064  0.2021
 9989TIP3    H151458   2.236   2.715   0.784  0.1457  0.8581 -1.1343
 9989TIP3    H251459   2.386   2.723   0.806 -0.1299 -1.1606  1.9919
 9990TIP3   OH251460   4.104   1.702  15.435  0.2936  0.1499  0.3718
 9990TIP3    H151461   4.051   1.673  15.509 -0.1364 -1.2899 -0.4616
 9990TIP3    H251462   4.042   1.713  15.363  0.4292  3.2306  0.5765
 9991TIP3   OH251463   1.702   0.561  14.097  0.6351 -0.6096 -0.6449
 9991TIP3    H151464   1.754   0.527  14.024 -0.5542  0.1074 -1.8659
 9991TIP3    H251465   1.630   0.608  14.055  1.0220  1.5518  0.9793
 9992TIP3   OH251466   5.016   2.133   0.781 -0.4612  0.3455 -0.2197
 9992TIP3    H151467   4.975   2.116   0.866  0.5608 -2.2587 -0.1378
 9992TIP3    H251468   4.981   2.066   0.723 -1.1086  2.0552 -1.9096
 9993TIP3   OH251469   3.523   5.639  15.811  0.1763  0.1564 -0.0893
 9993TIP3    H151470   3.587   5.605  15.748 -0.1280  2.1366 -1.5327
 9993TIP3    H251471   3.439   5.629  15.767  0.1416  3.4847 -1.0038
 9994TIP3   OH251472   4.849   3.568   0.470  0.2741  0.3158  0.1824
 9994TIP3    H151473   4.904   3.563   0.391  0.5485 -1.7882  0.4393
 9994TIP3    H251474   4.760   3.570   0.437  0.4137  0.5461 -0.1928
 9995TIP3   OH251475   1.223   2.476  15.844  0.2032  0.2222 -0.2026
 9995TIP3    H151476   1.171   2.405  15.883 -0.1067  0.6708  0.2263
 9995TIP3    H251477   1.186   2.487  15.756  0.3225 -0.2184 -0.3072
 9996TIP3   OH251478   3.201   2.942  15.459  0.5555  0.1999 -0.1323
 9996TIP3    H151479   3.185   2.971  15.549  1.0500  2.6076 -0.7461
 9996TIP3    H251480   3.123   2.969  15.410  1.7010  2.1105 -1.0322
 9997TIP3   OH251481   3.736   5.843   2.199  0.4037  0.0082  0.0996
 9997TIP3    H151482   3.807   5.860   2.137  0.4311  0.7398  0.3191
 9997TIP3    H251483   3.664   5.898   2.168  0.0581 -0.4423  0.0960
 9998TIP3   OH251484   5.831   6.704  11.796  0.1416  0.1532  0.5970
 9998TIP3    H151485   5.791   6.699  11.709 -0.3957  2.1682  0.6805
 9998TIP3    H251486   5.925   6.716  11.778  0.0115  0.7298  0.2754
 9999TIP3   OH251487   2.589   3.680  16.077 -0.7854  0.4557  0.0390
 9999TIP3    H151488   2.627   3.722  16.154 -0.9153  0.1825  0.2523
 9999TIP3    H251489   2.665   3.643  16.031 -0.9056 -1.7159  1.4307
10000TIP3   OH251490   0.641   5.346   0.804 -0.6381 -0.3435 -0.3913
10000TIP3    H151491   0.733   5.318   0.803 -0.6544 -0.5429  1.3988
10000TIP3    H251492   0.643   5.436   0.774  0.1350 -0.3699 -0.4464
10001TIP3   OH251493   2.256   5.852  10.572 -0.2722 -0.3536 -0.8567
10001TIP3    H151494   2.301   5.872  10.490  0.5972  0.4671 -0.1839
10001TIP3    H251495   2.163   5.867  10.552 -0.0239  0.3151 -1.5532
10002TIP3   OH251496   6.184   3.424   1.694  0.2591 -0.9756 -0.1833
10002TIP3    H151497   6.140   3.339   1.698 -0.7483 -0.4803 -0.4072
10002TIP3    H251498   6.121   3.481   1.651 -0.5751  0.8055  3.1450
10003TIP3   OH251499   0.165   0.716   3.266  0.1912 -0.6018  0.9867
10003TIP3    H151500   0.229   0.765   3.317 -1.4937  2.2319  0.6032
10003TIP3    H251501   0.139   0.776   3.196 -1.2868 -2.4649 -0.1652
10004TIP3   OH251502   5.498   5.530  13.907  0.0996  0.1619 -0.1589
10004TIP3    H151503   5.511   5.622  13.929 -2.1244  0.5284 -0.1691
10004TIP3    H251504   5.407   5.525  13.877  0.2399 -1.9964 -0.3708
10005TIP3   OH251505   3.930   4.571  16.177 -0.9905 -0.0104  0.5640
10005TIP3    H151506   3.874   4.516  16.123  0.4178 -0.0710 -0.9073
10005TIP3    H251507   3.970   4.511  16.239 -2.3136 -0.0076  1.4570
10006TIP3   OH251508   0.283   3.772   2.025  0.0743 -0.0874 -0.1350
10006TIP3    H151509   0.330   3.795   2.105 -1.9816  2.2103  0.5312
10006TIP3    H251510   0.279   3.676   2.026  0.2099 -0.1267  2.4468
10007TIP3   OH251511   1.555   5.461  15.481 -0.2612 -0.1859 -0.4030
10007TIP3    H151512   1.560   5.371  15.449 -2.1521 -0.3940 -0.2176
10007TIP3    H251513   1.474   5.495  15.443  0.1328  1.2516  0.0051
10008TIP3   OH251514   6.369   6.383  10.926 -0.4030 -0.2085 -0.2770
10008TIP3    H151515   6.349   6.337  10.845 -0.8301 -0.0776 -0.2500
10008TIP3    H251516   6.352   6.475  10.907 -1.2377 -0.2595  0.1784
10009TIP3   OH251517   1.572   3.047  13.352 -0.9637  0.9201 -0.2301
10009TIP3    H151518   1.618   3.049  13.268 -1.5011  1.5588 -0.5114
10009TIP3    H251519   1.560   2.954  13.370 -0.1711  0.7602 -0.4843
10010TIP3   OH251520   4.932   3.695   4.561  0.0788  0.1780 -0.6023
10010TIP3    H151521   4.970   3.717   4.645 -2.0741 -1.5888  0.9675
10010TIP3    H251522   4.972   3.611   4.537 -0.2607  0.0208 -0.6392
10011TIP3   OH251523   5.332   4.418  14.041  0.1907 -0.1852 -0.3098
10011TIP3    H151524   5.274   4.346  14.017 -0.8552  0.0846  1.3011
10011TIP3    H251525   5.374   4.443  13.958 -1.3537 -0.9333 -1.3740
10012TIP3   OH251526   0.318   6.625  15.742 -0.1799  0.2029 -0.1161
10012TIP3    H151527   0.295   6.572  15.818  1.8284 -0.0349  0.3800
10012TIP3    H251528   0.264   6.590  15.671 -1.5964 -0.0134  1.0259
10013TIP3   OH251529   2.255   1.215   0.470  0.2525 -0.6305 -0.2842
10013TIP3    H151530   2.268   1.220   0.565  1.4121 -2.0414 -0.3435
10013TIP3    H251531   2.337   1.246   0.433  0.8875 -2.8103 -0.7766
10014TIP3   OH251532   3.944   2.596   2.386  0.1252  0.3854  0.1467
10014TIP3    H151533   3.956   2.502   2.400  0.7780  0.4839  0.2925
10014TIP3    H251534   3.978   2.611   2.298  1.9875  0.8188  0.8958
10015TIP3   OH251535   3.304   6.300   1.281 -0.0370  0.2539 -0.2962
10015TIP3    H151536   3.375   6.257   1.234 -1.1651 -0.0672 -1.7492
10015TIP3    H251537   3.283   6.240   1.353 -0.3927 -0.7922 -1.2465
10016TIP3   OH251538   1.284   3.545  16.104 -0.2862 -0.4884  0.2635
10016TIP3    H151539   1.320   3.479  16.045  1.0410  0.1892  0.2929
10016TIP3    H251540   1.352   3.560  16.169 -0.4029  1.1746  0.0513
10017TIP3   OH251541   4.913   5.788   4.005 -0.0835 -0.1279  0.2651
10017TIP3    H151542   4.857   5.722   3.964  1.2235 -0.3478 -1.2694
10017TIP3    H251543   4.866   5.870   3.994 -0.7725 -0.5038  0.3294
10018TIP3   OH251544   2.546   6.798  12.516  0.0744  0.4450  0.2441
10018TIP3    H151545   2.492   6.765  12.588  0.5687  0.5364  0.6598
10018TIP3    H251546   2.535   6.733  12.447 -0.4325  0.3717  0.3840
10019TIP3   OH251547   2.813   5.626  12.139 -0.0779  0.2903  0.2962
10019TIP3    H151548   2.861   5.553  12.179 -0.2001  0.2396  0.3505
10019TIP3    H251549   2.735   5.585  12.101  0.2531  0.2703 -0.3777
10020TIP3   OH251550   1.753   3.664   3.387 -0.4425  0.0930  0.6159
10020TIP3    H151551   1.706   3.710   3.317 -2.1797 -0.7153  1.2143
10020TIP3    H251552   1.767   3.731   3.454  0.4561  0.6552 -0.1088
10021TIP3   OH251553   2.805   6.504  16.714  0.0975 -0.2132 -0.3769
10021TIP3    H151554   2.850   6.540  16.791  0.8172  0.2172 -0.9830
10021TIP3    H251555   2.782   6.415  16.740 -0.4369  0.2034  0.6353
10022TIP3   OH251556   3.309   0.587   0.693  0.1140 -0.0890  0.4110
10022TIP3    H151557   3.289   0.646   0.766 -0.6447 -1.1131  1.0508
10022TIP3    H251558   3.239   0.522   0.694  0.6381 -0.6985 -0.6174
10023TIP3   OH251559   3.814   4.122  14.517 -0.6470  0.0195  0.4154
10023TIP3    H151560   3.767   4.165  14.588  0.3018 -0.5611  1.4297
10023TIP3    H251561   3.876   4.064  14.561 -0.1949 -0.5315 -0.8942
10024TIP3   OH251562   2.969   3.337   5.912  0.6441  0.1860  0.3679
10024TIP3    H151563   2.980   3.256   5.863 -1.7623 -0.8582  1.4378
10024TIP3    H251564   2.928   3.397   5.850 -1.9016 -0.9659  0.8195
10025TIP3   OH251565   0.632   1.195   3.135 -0.7836 -0.1001  0.4752
10025TIP3    H151566   0.721   1.160   3.138 -1.0419 -0.8508 -0.2835
10025TIP3    H251567   0.577   1.121   3.162 -1.4346 -0.6784 -2.1740
10026TIP3   OH251568   0.799   4.015   5.427 -0.3927 -0.3405  0.2412
10026TIP3    H151569   0.753   3.996   5.345  0.2794  0.7275 -0.4068
10026TIP3    H251570   0.744   4.080   5.471 -0.8547 -1.0565  0.7596
10027TIP3   OH251571   4.133   4.483  14.758 -0.2276  0.2903  0.2402
10027TIP3    H151572   4.106   4.575  14.754 -0.0014  0.3405 -0.1343
10027TIP3    H251573   4.223   4.486  14.790  0.1757  0.2698 -0.8806
10028TIP3   OH251574   0.081   1.229   1.270  0.2919  0.1442 -0.1988
10028TIP3    H151575   0.139   1.270   1.206  0.5364 -0.7057 -0.5463
10028TIP3    H251576   0.006   1.200   1.219  1.0314 -1.6321 -0.3772
10029TIP3   OH251577   4.913   0.127   3.912  0.3737  0.5404 -0.3235
10029TIP3    H151578   4.927   0.035   3.936  0.9538  0.6916 -0.0591
10029TIP3    H251579   4.960   0.176   3.979 -0.6714  1.0648  0.0545
10030TIP3   OH251580   2.663   4.797  12.984  0.2592 -0.0667 -0.6203
10030TIP3    H151581   2.684   4.706  12.962  2.1072  0.3769 -0.9067
10030TIP3    H251582   2.651   4.796  13.079  0.9707 -0.5144 -0.5200
10031TIP3   OH251583   3.565   1.920  12.851  0.0543  0.4171  0.3853
10031TIP3    H151584   3.472   1.898  12.851 -0.2549  1.6285 -0.8996
10031TIP3    H251585   3.579   1.967  12.769  1.3458  2.1514  1.5294
10032TIP3   OH251586   1.424   5.449   1.718  0.0787 -0.3824  0.3469
10032TIP3    H151587   1.487   5.449   1.790 -1.3474 -1.1937  1.6583
10032TIP3    H251588   1.459   5.512   1.655  2.4892 -1.2183  0.7360
10033TIP3   OH251589   3.181   4.466  11.530 -0.2815  0.1157 -0.0171
10033TIP3    H151590   3.197   4.373  11.518  0.6019  0.2046  0.3585
10033TIP3    H251591   3.112   4.471  11.596 -0.8688 -0.2825 -0.6045
10034TIP3   OH251592   5.773   4.328   1.930 -0.8655 -0.1819 -0.0906
10034TIP3    H151593   5.822   4.257   1.889 -1.3068 -0.6482  0.1707
10034TIP3    H251594   5.707   4.353   1.865 -0.7850 -0.0881 -0.1369
10035TIP3   OH251595   5.570   4.810   3.884 -0.4030  0.3064  0.1772
10035TIP3    H151596   5.646   4.840   3.933  0.3494 -0.8529 -0.2331
10035TIP3    H251597   5.505   4.791   3.951 -0.0915  0.6450  0.5832
10036TIP3   OH251598   2.272   6.173  17.245  0.1385  0.9754  0.2715
10036TIP3    H151599   2.364   6.169  17.274  0.6179  1.0021 -1.1809
10036TIP3    H251600   2.222   6.182  17.326  1.3975  0.6229  1.1198
10037TIP3   OH251601   5.844   2.450  14.616 -0.0893 -0.0761  0.3186
10037TIP3    H151602   5.825   2.388  14.546  1.1714  0.1294 -0.2451
10037TIP3    H251603   5.803   2.532  14.588  0.7238  0.1064 -0.3945
10038TIP3   OH251604   4.000   3.312  12.923 -0.4746 -0.4474 -0.2076
10038TIP3    H151605   3.940   3.250  12.882  0.0777 -1.8975  1.0798
10038TIP3    H251606   4.085   3.292  12.884 -0.4526  0.1476 -0.4704
10039TIP3   OH251607   1.945   3.310   4.457 -0.7741 -0.2041 -0.5744
10039TIP3    H151608   1.898   3.356   4.526 -1.4174 -1.7462  0.0623
10039TIP3    H251609   1.921   3.356   4.377 -2.4277 -0.1916 -0.1154
10040TIP3   OH251610   1.129   4.657  16.345  0.2815  0.1481  0.0642
10040TIP3    H151611   1.189   4.683  16.274 -0.4702 -0.8390 -0.9689
10040TIP3    H251612   1.136   4.727  16.409 -0.8171  2.3607 -2.0684
10041TIP3   OH251613   2.461   0.373  16.719 -0.0758 -0.4932  0.2617
10041TIP3    H151614   2.407   0.346  16.644  0.8409  1.2250 -1.0997
10041TIP3    H251615   2.549   0.384  16.682  0.4453  0.2050  1.6414
10042TIP3   OH251616   4.406   4.831  16.949  0.3444  0.3415 -0.5399
10042TIP3    H151617   4.456   4.825  16.868 -1.1660  0.3734 -1.5058
10042TIP3    H251618   4.471   4.858  17.015  2.2630 -2.6002 -1.0346
10043TIP3   OH251619   1.762   4.801  10.740  0.0348 -0.1484 -0.1505
10043TIP3    H151620   1.804   4.872  10.788 -0.5988  2.0292 -2.6525
10043TIP3    H251621   1.684   4.840  10.702  0.4669 -1.7207 -2.9105
10044TIP3   OH251622   5.868   6.636  16.363  0.2749  0.1967 -0.3825
10044TIP3    H151623   5.822   6.584  16.429 -0.4568  0.0777 -0.9625
10044TIP3    H251624   5.952   6.592  16.350 -0.4890 -1.0871 -1.1394
10045TIP3   OH251625   1.261   3.082  17.271 -0.3323 -0.4370 -0.4567
10045TIP3    H151626   1.316   3.123  17.204 -0.6495 -0.8245 -0.9738
10045TIP3    H251627   1.171   3.101  17.243 -0.4668 -0.6236 -0.1586
10046TIP3   OH251628   0.739   5.804   3.850 -0.4619  0.3371  0.1663
10046TIP3    H151629   0.833   5.806   3.834 -0.3199 -0.2801  0.8431
10046TIP3    H251630   0.702   5.772   3.767  0.1156 -1.3785  0.5202
10047TIP3   OH251631   6.432   3.500   1.224  0.6424  0.3672  0.1405
10047TIP3    H151632   6.357   3.555   1.246 -2.4791 -3.3728 -0.0689
10047TIP3    H251633   6.465   3.469   1.308 -0.3498 -0.6663  0.1718
10048TIP3   OH251634   4.360   2.490   1.333 -0.1101 -0.0905 -0.6571
10048TIP3    H151635   4.446   2.504   1.372 -0.3354  0.5668 -0.3824
10048TIP3    H251636   4.374   2.501   1.239  0.2568 -0.7707 -0.6864
10049TIP3   OH251637   4.139   3.154   1.247  0.0406  0.2550  0.4027
10049TIP3    H151638   4.150   3.059   1.253 -2.2446 -0.1447 -0.5282
10049TIP3    H251639   4.060   3.165   1.194  0.7325  2.7082 -0.2309
10050TIP3   OH251640   4.420   3.433  12.979  0.0969  0.6430 -0.3653
10050TIP3    H151641   4.475   3.496  12.933  0.0166  2.0523  1.3852
10050TIP3    H251642   4.346   3.419  12.919  1.9587 -0.8268 -2.4722
10051TIP3   OH251643   6.296   4.272  16.604  0.5023  0.1566  0.7327
10051TIP3    H151644   6.276   4.322  16.525 -1.2059  0.0413  1.0727
10051TIP3    H251645   6.288   4.181  16.578  0.9565  0.0924  0.7994
10052TIP3   OH251646   5.355   3.456  13.401 -0.2824  0.7298 -0.5762
10052TIP3    H151647   5.297   3.526  13.373 -0.5449  0.2076 -1.4008
10052TIP3    H251648   5.308   3.376  13.376  0.3647  0.2862 -0.3784
10053TIP3   OH251649   5.013   3.015  14.705 -0.4252 -0.1727 -0.2053
10053TIP3    H151650   4.940   2.953  14.705 -1.8352  1.4225 -0.1343
10053TIP3    H251651   5.040   3.020  14.796 -0.5198 -0.4288 -0.1616
10054TIP3   OH251652   3.251   0.076   2.325 -0.0572 -0.3359 -0.1227
10054TIP3    H151653   3.305   0.057   2.401 -0.2296 -2.2388 -0.4342
10054TIP3    H251654   3.279   0.013   2.259 -1.1041  0.1344 -1.0540
10055TIP3   OH251655   2.543   2.294   1.584  0.7081  0.8021  0.2263
10055TIP3    H151656   2.546   2.342   1.667 -0.7424 -0.1561  0.8728
10055TIP3    H251657   2.562   2.360   1.517  3.0335  1.3796  1.3492
10056TIP3   OH251658   4.990   1.034   5.373 -0.0768  0.2780 -0.0982
10056TIP3    H151659   4.900   1.064   5.359 -0.8592 -0.6133  2.3549
10056TIP3    H251660   4.987   0.941   5.351 -0.8122 -0.6475  3.3380
10057TIP3   OH251661   5.278   0.983   3.640  0.7932 -0.6368  0.2105
10057TIP3    H151662   5.194   1.012   3.675  1.3407  0.5048  0.6636
10057TIP3    H251663   5.292   0.896   3.677 -0.0225 -0.6953  0.3954
10058TIP3   OH251664   6.361   1.079   4.300 -0.1349 -0.4336  0.1145
10058TIP3    H151665   6.305   1.148   4.336  1.3832  0.5487  0.7049
10058TIP3    H251666   6.309   0.999   4.310 -1.1695  0.3301  1.2576
10059TIP3   OH251667   0.432   1.848   4.754  0.1223  0.3237  0.1424
10059TIP3    H151668   0.484   1.780   4.797 -0.3756  0.2870  0.6984
10059TIP3    H251669   0.372   1.800   4.697  2.9926  0.4273 -3.3125
10060TIP3   OH251670   6.720   6.472  14.764 -0.2409 -0.1787 -0.5324
10060TIP3    H151671   6.814   6.468  14.781  0.2272 -0.0545 -2.7711
10060TIP3    H251672   6.683   6.513  14.842  1.6110  0.1879  0.1999
10061TIP3   OH251673   6.092   6.711   0.528  0.2102  0.3796 -0.0696
10061TIP3    H151674   6.149   6.684   0.600  1.8324  0.0942 -1.3841
10061TIP3    H251675   6.041   6.784   0.564 -2.2035 -2.3626  2.6785
10062TIP3   OH251676   0.500   4.440  11.587  0.4132  0.5363 -0.1142
10062TIP3    H151677   0.510   4.373  11.654 -1.9170 -1.4453 -1.5412
10062TIP3    H251678   0.427   4.494  11.618  1.5625  1.7752  0.5039
10063TIP3   OH251679   2.257   0.674  11.127  0.3838 -0.9520 -0.1877
10063TIP3    H151680   2.270   0.607  11.060  0.3906 -1.0535 -0.0848
10063TIP3    H251681   2.303   0.641  11.203 -0.7661 -1.4885  0.2961
10064TIP3   OH251682   0.757   6.394  11.014 -0.1228  0.0388  0.8036
10064TIP3    H151683   0.811   6.325  10.976  1.0488  0.3552  1.8339
10064TIP3    H251684   0.717   6.353  11.091  0.5309  0.4684  1.3854
10065TIP3   OH251685   2.006   4.490  10.845 -0.1154  0.0073 -0.5524
10065TIP3    H151686   2.072   4.472  10.911 -0.8068  0.2200  0.2163
10065TIP3    H251687   1.942   4.546  10.889 -1.2683 -0.9116 -0.9934
10066TIP3   OH251688   3.280   6.488  12.733 -0.1715 -0.6755 -0.1539
10066TIP3    H151689   3.202   6.526  12.694  0.6986  1.1242 -0.2455
10066TIP3    H251690   3.309   6.554  12.797 -0.0097 -2.3223  1.5471
10067TIP3   OH251691   1.465   3.116  12.920  0.3015 -0.6998  0.2606
10067TIP3    H151692   1.442   3.184  12.983 -0.0326  0.2087 -0.8098
10067TIP3    H251693   1.382   3.098  12.874  0.2074 -2.3646  1.0061
10068TIP3   OH251694   1.463   1.792   4.139 -0.4112  0.0125  0.3853
10068TIP3    H151695   1.385   1.804   4.193 -0.9851 -1.5916 -0.0322
10068TIP3    H251696   1.441   1.834   4.056 -0.9627 -0.6465  0.1812
10069TIP3   OH251697   0.234   5.858   5.860  0.0710 -0.6768  0.3651
10069TIP3    H151698   0.294   5.930   5.876 -1.4048  0.5552  0.6012
10069TIP3    H251699   0.262   5.788   5.919  0.7079  0.2007  1.1192
10070TIP3   OH251700   1.033   6.670   0.492  0.5214  0.2860  0.4548
10070TIP3    H151701   1.031   6.720   0.573 -0.7292 -0.0329  0.6467
10070TIP3    H251702   0.972   6.598   0.506 -0.8967  1.0629 -1.2747
10071TIP3   OH251703   4.277   1.410  15.339  0.0496  0.1363 -0.1433
10071TIP3    H151704   4.348   1.451  15.289  0.4547 -0.4509 -0.0672
10071TIP3    H251705   4.204   1.406  15.279 -0.4723  2.2133  0.2471
10072TIP3   OH251706   5.132   3.970   4.001  0.1756 -0.0811 -0.1563
10072TIP3    H151707   5.047   4.002   3.969 -0.1505  0.2235  0.9672
10072TIP3    H251708   5.168   3.920   3.928  1.3980  3.9742 -2.6321
10073TIP3   OH251709   5.074   6.669   2.032 -0.0831  0.7595  0.1880
10073TIP3    H151710   5.137   6.622   2.087 -0.6231  1.8650  1.8546
10073TIP3    H251711   5.127   6.714   1.967  0.5140 -1.3679 -0.8876
10074TIP3   OH251712   5.383   6.197  11.586 -0.0161  0.7261 -0.5282
10074TIP3    H151713   5.469   6.191  11.628  0.3623  0.0680 -1.3394
10074TIP3    H251714   5.389   6.275  11.530  0.6595 -0.2022 -1.8132
10075TIP3   OH251715   3.158   2.868   4.259 -0.4229 -0.3067 -0.1199
10075TIP3    H151716   3.250   2.840   4.259 -0.5194 -0.6967  1.4046
10075TIP3    H251717   3.148   2.913   4.175  1.2808  0.1515 -0.1265
10076TIP3   OH251718   6.511   5.932  15.247 -0.1691  0.2046 -0.5528
10076TIP3    H151719   6.593   5.978  15.230 -1.3681  2.9480  0.3875
10076TIP3    H251720   6.536   5.856  15.299  1.8766  0.1883 -1.4747
10077TIP3   OH251721   3.678   0.530   0.474 -0.4663  0.4575 -0.7015
10077TIP3    H151722   3.616   0.470   0.516  0.0287 -0.1855 -0.8707
10077TIP3    H251723   3.680   0.502   0.382 -0.4898  0.9626 -0.8599
10078TIP3   OH251724   4.652   3.489   5.928  0.0537 -0.2785 -0.3828
10078TIP3    H151725   4.612   3.468   5.844 -1.6267  0.8360  0.0743
10078TIP3    H251726   4.743   3.509   5.907 -0.0227 -1.2161 -1.7410
10079TIP3   OH251727   1.520   2.683   1.049  0.5032  0.3182  0.1355
10079TIP3    H151728   1.474   2.767   1.042  1.2956  0.8403  0.9426
10079TIP3    H251729   1.603   2.697   1.005  1.5947  0.7099  2.1998
10080TIP3   OH251730   6.281   2.061  13.514 -0.4521  0.0712 -0.5198
10080TIP3    H151731   6.323   1.996  13.458  1.3888 -1.5380  2.4430
10080TIP3    H251732   6.286   2.143  13.465 -1.0423 -1.5706 -3.5577
10081TIP3   OH251733   4.190   6.794  16.269 -0.0404  0.2051  0.4691
10081TIP3    H151734   4.283   6.809  16.285  0.3291  0.0302 -1.2377
10081TIP3    H251735   4.154   6.768  16.353  1.7146 -0.9496  0.9023
10082TIP3   OH251736   4.317   3.643  16.807  0.4812 -0.2141 -0.1762
10082TIP3    H151737   4.246   3.579  16.816 -0.6894  0.9147 -0.8603
10082TIP3    H251738   4.342   3.663  16.897 -1.9894  1.3262  0.2773
10083TIP3   OH251739   0.667   1.793   2.917 -0.6678  0.4244 -0.2267
10083TIP3    H151740   0.684   1.778   3.010 -1.6751 -0.4303 -0.1592
10083TIP3    H251741   0.654   1.887   2.909 -1.4563  0.4056  0.6618
10084TIP3   OH251742   4.061   5.037   4.868 -0.7246 -0.1014  0.1965
10084TIP3    H151743   3.987   5.007   4.921  0.2672  0.1026  1.7619
10084TIP3    H251744   4.099   5.109   4.917  1.5352 -1.2764  0.3350
10085TIP3   OH251745   6.445   0.811   2.420 -0.2953 -0.3223  0.0287
10085TIP3    H151746   6.363   0.819   2.469  0.7883  2.8710  1.6296
10085TIP3    H251747   6.496   0.748   2.470 -0.4397  0.4679  1.2426
10086TIP3   OH251748   2.960   6.689   3.194  0.2051  0.3347  0.3952
10086TIP3    H151749   2.953   6.781   3.219 -0.6010  0.3194  0.2531
10086TIP3    H251750   2.994   6.691   3.105 -1.0392  0.5616 -0.0983
10087TIP3   OH251751   5.157   2.575   3.478 -0.7083 -0.1980  0.4908
10087TIP3    H151752   5.166   2.568   3.382 -1.5219 -2.2789  0.5118
10087TIP3    H251753   5.144   2.668   3.494  0.7041  0.3749 -1.3018
10088TIP3   OH251754   2.025   4.594  16.238 -0.1176  0.2332 -0.2724
10088TIP3    H151755   2.097   4.550  16.192 -1.3044 -1.2892 -0.7613
10088TIP3    H251756   1.972   4.633  16.169 -0.0489  0.9030  0.0492
10089TIP3   OH251757   0.343   1.142   0.735 -0.6953 -0.0976  0.1949
10089TIP3    H151758   0.259   1.124   0.778 -1.3116  0.2127 -0.8403
10089TIP3    H251759   0.401   1.074   0.767 -1.9653 -1.7224 -0.7817
10090TIP3   OH251760   5.150   5.584   1.783 -0.1143  0.6553 -0.0025
10090TIP3    H151761   5.073   5.640   1.780 -0.3426  0.7167  3.2690
10090TIP3    H251762   5.204   5.613   1.709 -1.6616  3.0048 -0.3161
10091TIP3   OH251763   5.003   0.255   1.420 -0.5327 -0.3096  0.5310
10091TIP3    H151764   4.938   0.206   1.368 -1.4174  0.1182  1.1994
10091TIP3    H251765   5.006   0.209   1.504 -1.5595  0.8874  1.2582
10092TIP3   OH251766   4.376   0.133  16.153  0.3896  0.2840  0.1235
10092TIP3    H151767   4.408   0.222  16.141 -0.9804  0.9002  0.7634
10092TIP3    H251768   4.280   0.142  16.153  0.2265 -1.2494 -0.2314
10093TIP3   OH251769   5.100   1.107   5.138 -0.0184  0.1929  0.0534
10093TIP3    H151770   5.142   1.021   5.140  0.2185  0.2818 -0.8321
10093TIP3    H251771   5.064   1.118   5.226  0.7314 -0.4217  0.4459
10094TIP3   OH251772   0.940   2.068   2.319  0.1603  0.1828  0.0878
10094TIP3    H151773   1.017   2.086   2.265 -0.5653  1.6997 -0.5131
10094TIP3    H251774   0.949   2.127   2.395 -0.9815  1.3197 -0.6095
10095TIP3   OH251775   5.197   1.244  16.391  0.0290 -0.6201  0.4562
10095TIP3    H151776   5.257   1.208  16.455 -0.7325 -2.6631  0.0876
10095TIP3    H251777   5.118   1.264  16.440 -0.2165 -1.2727  0.3308
10096TIP3   OH251778   4.389   6.195  14.652  0.6465  0.1545  0.7455
10096TIP3    H151779   4.316   6.215  14.710 -0.4116  0.0806 -0.5037
10096TIP3    H251780   4.442   6.275  14.651  0.5793  0.2184  1.6396
10097TIP3   OH251781   4.989   6.023  15.645 -0.2944 -0.1814 -0.1120
10097TIP3    H151782   4.930   6.078  15.696  0.0984  1.0738 -0.9749
10097TIP3    H251783   5.024   6.080  15.577 -0.1267 -1.5886 -1.2677
10098TIP3   OH251784   2.559   2.232   3.933  0.1267  0.2362 -0.6715
10098TIP3    H151785   2.490   2.290   3.965  0.4121 -1.7682  4.5817
10098TIP3    H251786   2.520   2.187   3.858 -2.9258  1.6709 -0.1122
10099TIP3   OH251787   5.405   1.397  15.073  0.0729 -0.6157 -0.5083
10099TIP3    H151788   5.445   1.324  15.027  1.1344  1.5322 -3.2831
10099TIP3    H251789   5.477   1.436  15.123 -0.6356 -1.7331  1.5238
10100TIP3   OH251790   6.167   5.734   0.395  0.1698 -0.4508  0.0562
10100TIP3    H151791   6.183   5.650   0.351  0.8111 -1.1874  1.5939
10100TIP3    H251792   6.084   5.764   0.359 -0.3344 -2.0138 -0.1921
10101TIP3   OH251793   6.411   5.799   2.417 -0.5650 -0.3289  0.3555
10101TIP3    H151794   6.476   5.829   2.480 -1.2943  0.8014  0.6065
10101TIP3    H251795   6.427   5.705   2.408  1.3136 -0.0110  0.1254
10102TIP3   OH251796   5.305   4.937  11.341  0.6096  0.0420 -0.6785
10102TIP3    H151797   5.224   4.983  11.320  0.9954  1.0585 -0.0532
10102TIP3    H251798   5.368   4.968  11.275  1.3213  1.7868  0.7351
10103TIP3   OH251799   2.166   6.083   4.836  0.2183  0.0067 -0.7688
10103TIP3    H151800   2.135   6.095   4.926  0.0926 -1.4285 -0.5909
10103TIP3    H251801   2.087   6.060   4.787  0.4634 -0.3191 -1.0106
10104TIP3   OH251802   6.516   6.772  13.878 -0.1539  0.3381  0.2851
10104TIP3    H151803   6.475   6.848  13.838  0.7459  1.3000  1.1277
10104TIP3    H251804   6.582   6.809  13.937  2.6422 -1.0877 -1.7146
10105TIP3   OH251805   0.472   2.600   5.177  0.7909  0.4844  0.1961
10105TIP3    H151806   0.487   2.675   5.235  0.2969 -0.4140  1.5502
10105TIP3    H251807   0.382   2.573   5.197  0.5371  0.2684 -1.1672
10106TIP3   OH251808   5.748   4.669   5.191  0.2843  0.5889 -0.2598
10106TIP3    H151809   5.776   4.731   5.259  0.2764  1.0188 -0.6463
10106TIP3    H251810   5.723   4.724   5.117 -0.2473  0.1516 -0.4179
10107TIP3   OH251811   3.724   4.605   1.930 -0.4602 -0.0884 -0.0115
10107TIP3    H151812   3.682   4.519   1.930  0.4757 -0.5607  0.7405
10107TIP3    H251813   3.809   4.591   1.888  0.4590  0.0426  1.7089
10108TIP3   OH251814   0.597   5.733  14.883  0.2230  0.1429 -0.1598
10108TIP3    H151815   0.551   5.705  14.962  0.1982 -1.6306 -0.7743
10108TIP3    H251816   0.606   5.654  14.831  1.3518  1.0435 -1.3887
10109TIP3   OH251817   0.452   1.249  13.820 -0.8468  0.4960 -0.3886
10109TIP3    H151818   0.525   1.290  13.867  0.0023 -0.4719 -0.8237
10109TIP3    H251819   0.489   1.169  13.782 -2.0918  0.0697 -0.7774
10110TIP3   OH251820   2.513   1.013   2.848 -0.3680 -0.6272  0.3875
10110TIP3    H151821   2.447   0.965   2.799 -0.3627 -1.7980  1.4883
10110TIP3    H251822   2.568   1.054   2.781 -1.1990 -1.0203 -0.5530
10111TIP3   OH251823   3.601   6.079  16.167 -0.4589  0.5947 -0.3859
10111TIP3    H151824   3.674   6.124  16.126 -0.4408  0.0019 -1.0063
10111TIP3    H251825   3.553   6.039  16.095  0.1936 -1.4030  0.2219
10112TIP3   OH251826   1.369   4.431   0.108 -0.6151 -0.4089  0.1239
10112TIP3    H151827   1.452   4.465   0.075 -0.5202  0.7663  1.4641
10112TIP3    H251828   1.303   4.464   0.046 -0.3733  1.1820  0.6704
10113TIP3   OH251829   4.237   4.536   1.799 -0.2818  0.3271 -0.2965
10113TIP3    H151830   4.205   4.488   1.723 -1.1024  0.8229 -0.2704
10113TIP3    H251831   4.170   4.522   1.867  1.1196 -1.3265  0.8491
10114TIP3   OH251832   0.552   2.828  15.075 -0.0151  0.6532  0.2130
10114TIP3    H151833   0.567   2.747  15.124  0.1244  0.6233  0.1196
10114TIP3    H251834   0.542   2.895  15.143 -0.2853  0.5327  0.2947
10115TIP3   OH251835   2.741   4.437   4.573  0.2917  1.1062  0.2119
10115TIP3    H151836   2.738   4.479   4.659  1.0271 -0.7314  1.1677
10115TIP3    H251837   2.833   4.440   4.547  0.5835 -0.9542  0.8669
10116TIP3   OH251838   2.226   4.314  16.483 -0.2444  0.2762  0.1054
10116TIP3    H151839   2.136   4.347  16.489 -0.4566 -0.4953  2.7372
10116TIP3    H251840   2.280   4.392  16.474 -1.0207  1.0512  1.7573
10117TIP3   OH251841   3.072   4.191  15.537  0.6218  0.2425  0.3542
10117TIP3    H151842   3.136   4.259  15.558  0.8695  1.0957 -2.6677
10117TIP3    H251843   3.117   4.133  15.476 -0.8667 -0.2744 -0.3172
10118TIP3   OH251844   0.097   6.580  15.533 -0.0500 -0.5835  0.6925
10118TIP3    H151845   0.108   6.510  15.468 -1.9631 -0.5279  0.2612
10118TIP3    H251846   0.040   6.543  15.600 -1.0950  0.5308  0.4640
10119TIP3   OH251847   4.297   0.687   4.153 -0.1348  0.6135 -0.2986
10119TIP3    H151848   4.330   0.755   4.212  0.6709 -0.6062  0.7007
10119TIP3    H251849   4.309   0.606   4.201 -0.7092 -0.2910 -1.6345
10120TIP3   OH251850   5.961   2.549   5.628 -0.3928  0.3380  0.3397
10120TIP3    H151851   6.005   2.624   5.667 -1.7526  0.6317  1.3957
10120TIP3    H251852   5.950   2.487   5.701  0.0851 -0.5865 -0.3586
10121TIP3   OH251853   2.102   2.548  13.383 -0.6618  0.1662  0.3520
10121TIP3    H151854   2.197   2.539  13.384 -0.5869  0.9422  0.6747
10121TIP3    H251855   2.085   2.632  13.424 -1.4373  0.4955 -0.5897
10122TIP3   OH251856   2.630   1.846  15.584  0.4380 -0.1319 -0.0201
10122TIP3    H151857   2.581   1.767  15.605  0.6599 -0.2575  0.0275
10122TIP3    H251858   2.585   1.883  15.509 -0.2725  0.2366  0.5749
10123TIP3   OH251859   2.157   5.685   5.637 -0.4178  0.3721 -0.2771
10123TIP3    H151860   2.144   5.638   5.554 -1.4563  0.0352  0.0620
10123TIP3    H251861   2.155   5.778   5.612  0.5388  0.2628 -0.7959
10124TIP3   OH251862   1.847   3.654   4.547 -0.2309 -0.5035 -0.5702
10124TIP3    H151863   1.931   3.635   4.588  0.0701  0.8603 -0.4838
10124TIP3    H251864   1.783   3.601   4.595  0.5492 -1.4285 -0.5341
10125TIP3   OH251865   5.043   3.749  16.711  0.3917  0.3979 -0.8142
10125TIP3    H151866   5.118   3.699  16.744  1.1848  1.6518 -0.6117
10125TIP3    H251867   5.082   3.831  16.681 -1.0860  1.8446  0.9720
10126TIP3   OH251868   5.595   6.625  11.595 -0.3290  0.4410  0.0022
10126TIP3    H151869   5.562   6.712  11.575  0.3179  0.5570 -0.6090
10126TIP3    H251870   5.678   6.619  11.546  0.6807  0.2529  1.6614
10127TIP3   OH251871   3.249   1.488   1.817  0.3251 -0.2160  0.0858
10127TIP3    H151872   3.238   1.404   1.773  1.0497 -1.3941  2.0569
10127TIP3    H251873   3.199   1.480   1.898  0.2489  1.3472  0.2338
10128TIP3   OH251874   5.264   0.860   4.527 -0.6780 -0.4194 -0.3190
10128TIP3    H151875   5.233   0.863   4.618  0.9337 -1.3220  0.3063
10128TIP3    H251876   5.185   0.844   4.476 -1.5388 -0.5678  0.9878
10129TIP3   OH251877   0.354   2.630  16.364  1.1762 -0.0550 -0.2157
10129TIP3    H151878   0.385   2.719  16.345 -0.7182  0.5001 -0.8996
10129TIP3    H251879   0.316   2.600  16.281  1.1649 -1.2373  0.2057
10130TIP3   OH251880   3.553   4.277  14.284 -0.4533  0.0123  0.1732
10130TIP3    H151881   3.474   4.327  14.306 -0.2758 -0.1253  1.1560
10130TIP3    H251882   3.620   4.344  14.269 -0.8419  0.1450 -1.0704
10131TIP3   OH251883   6.752   2.121  11.674  0.1313  0.1682  0.6585
10131TIP3    H151884   6.708   2.197  11.714 -0.4913 -0.4497  1.2019
10131TIP3    H251885   6.843   2.147  11.667  0.0648  0.7080  1.5254
10132TIP3   OH251886   1.539   0.680  15.719  0.2703 -0.1177 -0.6025
10132TIP3    H151887   1.608   0.744  15.698 -1.8632  2.1469 -1.1436
10132TIP3    H251888   1.526   0.689  15.813 -0.2960  0.5749 -0.7390
10133TIP3   OH251889   0.516   4.256  12.453  0.0777 -0.1053 -0.3643
10133TIP3    H151890   0.436   4.294  12.417  0.7121  0.1102 -1.6107
10133TIP3    H251891   0.576   4.331  12.461  0.6105 -0.4770 -0.7708
10134TIP3   OH251892   0.635   6.775  11.421  0.4433  0.0452  0.4272
10134TIP3    H151893   0.716   6.782  11.371  0.7458 -1.9576  0.5772
10134TIP3    H251894   0.584   6.709  11.375 -0.1602 -0.3366  1.6034
10135TIP3   OH251895   0.411   3.788   4.939  0.0975 -0.1972  0.6782
10135TIP3    H151896   0.338   3.791   4.877  1.0579  0.2788 -0.4707
10135TIP3    H251897   0.391   3.713   4.995 -0.4308 -1.1179 -0.6871
10136TIP3   OH251898   4.808   2.471  14.403  0.0345 -0.3645  0.0618
10136TIP3    H151899   4.854   2.552  14.425 -2.3104  1.9077 -2.5298
10136TIP3    H251900   4.716   2.496  14.402 -0.9658 -3.5652  0.7722
10137TIP3   OH251901   6.332   2.567   2.804  0.3884  0.5150  0.1418
10137TIP3    H151902   6.424   2.590   2.789  0.2494  1.6063  0.8132
10137TIP3    H251903   6.319   2.582   2.898 -0.3334 -0.1732  0.1594
10138TIP3   OH251904   6.738   0.353  12.982 -0.3078 -0.0071  0.0784
10138TIP3    H151905   6.827   0.329  13.009 -0.1714  1.0265  0.5647
10138TIP3    H251906   6.741   0.448  12.970 -1.2697 -0.0064 -0.2158
10139TIP3   OH251907   0.256   3.868  12.925 -0.6179  0.2130 -0.3948
10139TIP3    H151908   0.233   3.917  13.004  1.0176 -0.2902  0.4370
10139TIP3    H251909   0.338   3.824  12.947  0.8290  1.3857 -2.9550
10140TIP3   OH251910   5.117   4.947  13.823  0.7360 -0.0354 -0.2864
10140TIP3    H151911   5.169   4.867  13.826 -0.5232 -0.9501 -1.8273
10140TIP3    H251912   5.165   5.006  13.764  1.6902  0.4151  0.8916
10141TIP3   OH251913   4.613   1.352  12.604  0.4037  0.2388 -0.6906
10141TIP3    H151914   4.619   1.257  12.609  0.8821  0.2980  0.1332
10141TIP3    H251915   4.531   1.373  12.649  0.9375  0.2819  0.3030
10142TIP3   OH251916   2.739   0.403  11.756  0.1862  0.5441  0.1623
10142TIP3    H151917   2.744   0.414  11.850 -0.0949 -0.5473  0.3220
10142TIP3    H251918   2.828   0.416  11.724  0.6023 -0.6650  0.7770
10143TIP3   OH251919   3.452   4.763   0.561 -0.1525  0.0819  0.7328
10143TIP3    H151920   3.540   4.798   0.547 -0.4788  1.2067  1.3699
10143TIP3    H251921   3.419   4.746   0.473  0.8898 -0.8791  0.5034
10144TIP3   OH251922   2.997   2.503  13.842 -0.3347  0.0683  0.2271
10144TIP3    H151923   3.091   2.487  13.847 -0.1475  1.1652  0.4978
10144TIP3    H251924   2.987   2.560  13.766 -0.8494 -0.4519 -0.1018
10145TIP3   OH251925   5.808   1.245  14.732  0.6751  0.6270  0.6360
10145TIP3    H151926   5.847   1.180  14.675  0.4060  0.4596  0.6387
10145TIP3    H251927   5.714   1.237  14.716  0.5625  0.2669  1.4305
10146TIP3   OH251928   5.640   1.207   1.372 -0.5838 -0.5606 -0.2234
10146TIP3    H151929   5.675   1.282   1.325 -0.7992 -0.6278 -0.4951
10146TIP3    H251930   5.567   1.177   1.318 -1.1699 -0.3172  0.4204
10147TIP3   OH251931   4.809   0.311  15.074  0.6203 -0.2881 -0.2026
10147TIP3    H151932   4.750   0.236  15.065  0.9351 -0.3520 -2.3049
10147TIP3    H251933   4.877   0.296  15.008  0.3250  2.1393 -1.1665
10148TIP3   OH251934   1.053   5.425  11.705  0.2850 -0.0734  0.1862
10148TIP3    H151935   1.061   5.445  11.611  1.1618 -2.7587 -0.3819
10148TIP3    H251936   1.082   5.505  11.748 -1.7408  1.8822 -1.7462
10149TIP3   OH251937   2.707   5.145   0.632  0.6505  0.9680  0.2922
10149TIP3    H151938   2.745   5.195   0.704  0.6535  0.3546  0.7230
10149TIP3    H251939   2.613   5.160   0.640  0.3444 -1.4024  2.2402
10150TIP3   OH251940   0.868   1.733   0.741 -0.1424 -0.5629  0.1526
10150TIP3    H151941   0.847   1.641   0.728 -0.8055 -0.4808  0.5965
10150TIP3    H251942   0.932   1.733   0.813  0.6833 -0.7445 -0.5660
10151TIP3   OH251943   3.813   1.598  10.944 -0.3205  0.0118  0.0712
10151TIP3    H151944   3.811   1.625  11.036  0.0524  1.2835 -0.2777
10151TIP3    H251945   3.865   1.665  10.901 -0.4135 -0.6302 -1.0588
10152TIP3   OH251946   6.180   0.406   5.798  0.1949  0.3459 -0.2268
10152TIP3    H151947   6.225   0.325   5.821  1.2324  1.5593  2.4676
10152TIP3    H251948   6.089   0.381   5.787  0.7993 -1.4794 -1.5223
10153TIP3   OH251949   3.116   5.477   0.206 -0.1825 -0.0344 -0.3671
10153TIP3    H151950   3.191   5.452   0.261  0.0149 -0.3591 -0.7792
10153TIP3    H251951   3.067   5.396   0.194 -0.1697  0.0142 -0.7525
10154TIP3   OH251952   2.421   6.122   3.732  0.0316 -0.0496  0.1026
10154TIP3    H151953   2.491   6.066   3.699  0.2421  0.3388 -0.1131
10154TIP3    H251954   2.371   6.065   3.790  1.5912  0.1461  1.7205
10155TIP3   OH251955   1.986   2.666   4.907 -0.0782  0.1871 -0.7540
10155TIP3    H151956   2.075   2.656   4.874 -0.9035 -1.0250 -2.8293
10155TIP3    H251957   1.997   2.700   4.996  2.4459 -0.4893 -0.7197
10156TIP3   OH251958   1.788   0.394  13.228 -0.0776 -0.2323  0.0441
10156TIP3    H151959   1.765   0.444  13.149 -0.7003  0.2326  0.5120
10156TIP3    H251960   1.882   0.407  13.238 -0.0507 -0.0366 -0.4463
10157TIP3   OH251961   1.164   1.234  14.219 -0.7059 -0.1817 -0.0991
10157TIP3    H151962   1.229   1.184  14.170 -0.1790  0.8210 -0.4509
10157TIP3    H251963   1.212   1.310  14.251 -1.3337 -0.2304  0.9854
10158TIP3   OH251964   0.325   5.728  14.316 -0.1498 -0.3013 -0.2254
10158TIP3    H151965   0.354   5.786  14.246  0.9017  0.2698  0.6477
10158TIP3    H251966   0.349   5.640  14.286  1.4861  0.0524 -0.0574
10159TIP3   OH251967   2.971   0.985  12.558 -0.1644 -0.0964 -0.2571
10159TIP3    H151968   3.002   1.033  12.634 -0.0099  1.1113 -1.0573
10159TIP3    H251969   2.937   0.903  12.594 -1.1262  0.9075  1.2421
10160TIP3   OH251970   0.784   6.504   0.237 -0.4570  0.5345  0.2896
10160TIP3    H151971   0.701   6.545   0.214 -0.8352 -0.7229 -0.7168
10160TIP3    H251972   0.850   6.554   0.188 -0.7287  0.9180  0.3130
10161TIP3   OH251973   0.203   1.250  13.472  0.0068 -0.1636  0.0611
10161TIP3    H151974   0.277   1.237  13.412  0.0387 -2.2220  0.5002
10161TIP3    H251975   0.132   1.281  13.416  0.6248 -0.0661 -0.6858
10162TIP3   OH251976   3.295   1.211   2.763 -0.0948 -0.9578  0.4065
10162TIP3    H151977   3.343   1.146   2.814 -1.6488 -1.7995  0.8880
10162TIP3    H251978   3.349   1.227   2.686  0.9648 -1.8076  0.9573
10163TIP3   OH251979   1.687   6.751  15.624 -0.0773  0.1077 -0.3703
10163TIP3    H151980   1.635   6.816  15.671  1.6548  0.2796  1.4800
10163TIP3    H251981   1.691   6.676  15.684 -1.7245 -1.6524 -2.2898
10164TIP3   OH251982   6.464   2.688  16.866 -0.3813  0.0282  0.7060
10164TIP3    H151983   6.490   2.700  16.775  0.2408  0.0005  0.8752
10164TIP3    H251984   6.531   2.630  16.903 -0.1064  0.7871  1.4244
10165TIP3   OH251985   5.464   6.232  16.491 -0.3240  0.6183 -0.6414
10165TIP3    H151986   5.428   6.316  16.518 -0.4400  0.7426 -1.1692
10165TIP3    H251987   5.415   6.167  16.541 -0.3378  0.8592 -0.3452
10166TIP3   OH251988   4.302   4.372  11.813  0.4027  0.1379 -0.3313
10166TIP3    H151989   4.277   4.464  11.809 -2.5820 -0.5376  0.1994
10166TIP3    H251990   4.372   4.368  11.878 -0.6132  1.8401  0.9358
10167TIP3   OH251991   2.780   1.055   0.196 -0.3457 -0.0563  0.1957
10167TIP3    H151992   2.769   1.135   0.144  0.1677  0.7548  1.3182
10167TIP3    H251993   2.763   0.984   0.133 -4.2275  0.9044 -0.0870
10168TIP3   OH251994   5.502   3.688  13.169 -0.2430 -0.2259 -0.4140
10168TIP3    H151995   5.515   3.740  13.090 -0.3058 -0.7180 -0.7457
10168TIP3    H251996   5.555   3.733  13.235 -1.0994  0.8644 -0.4251
10169TIP3   OH251997   3.929   1.717   3.552 -0.0264  0.1462  0.0143
10169TIP3    H151998   3.879   1.771   3.613 -2.0507 -0.3285 -1.1216
10169TIP3    H251999   3.913   1.627   3.581  0.5927 -0.0012 -0.0783
10170TIP3   OH252000   2.683   1.259  14.961  0.1028 -0.4925  0.0539
10170TIP3    H152001   2.597   1.252  14.919  0.3048 -1.0073 -0.2827
10170TIP3    H252002   2.744   1.225  14.896  0.5143 -0.5169  0.4493
10171TIP3   OH252003   3.785   2.945  15.259 -0.3009 -0.8687  0.0049
10171TIP3    H152004   3.874   2.915  15.278 -0.1945 -0.8987 -0.5197
10171TIP3    H252005   3.757   2.989  15.339  0.9107  0.8788 -0.4724
10172TIP3   OH252006   0.463   5.121   0.114 -0.4188 -0.3173  0.1139
10172TIP3    H152007   0.376   5.159   0.102  0.0129  0.3015 -1.2939
10172TIP3    H252008   0.509   5.183   0.170 -1.2646 -1.3144  2.0087
10173TIP3   OH252009   6.520   1.218   4.503  0.6990 -0.8734  0.4052
10173TIP3    H152010   6.492   1.132   4.471 -0.0510 -1.5922  2.7969
10173TIP3    H252011   6.440   1.271   4.500  0.6546 -0.9091  0.9464
10174TIP3   OH252012   1.494   2.288   3.486  1.1957 -0.1217  0.3006
10174TIP3    H152013   1.584   2.320   3.494  1.3521  0.9948 -3.7710
10174TIP3    H252014   1.504   2.195   3.465  1.3975  0.0028 -0.1541
10175TIP3   OH252015   5.664   5.030  12.324 -0.2435 -0.2867  0.1521
10175TIP3    H152016   5.693   5.117  12.295 -0.9519 -0.4647 -1.1714
10175TIP3    H252017   5.737   4.972  12.304 -0.4990 -0.3038 -0.7951
10176TIP3   OH252018   1.343   5.172  11.895 -0.5916  0.4184 -0.2227
10176TIP3    H152019   1.357   5.236  11.826  3.8288  0.7816  0.7113
10176TIP3    H252020   1.266   5.123  11.867 -0.0165  1.5672 -4.5499
10177TIP3   OH252021   2.979   5.888  16.442  0.5045 -0.5676 -0.4387
10177TIP3    H152022   2.965   5.818  16.378 -1.0780  0.0860 -0.8479
10177TIP3    H252023   3.074   5.891  16.454  0.7261 -1.5723 -1.7657
10178TIP3   OH252024   2.748   2.939  10.546  0.1966 -0.2125 -0.3878
10178TIP3    H152025   2.831   2.900  10.575 -0.2521 -0.3813  0.7241
10178TIP3    H252026   2.773   2.997  10.474  0.9732 -2.1535 -1.7895
10179TIP3   OH252027   4.189   3.383   0.712 -0.4193  0.5398 -0.3354
10179TIP3    H152028   4.121   3.375   0.646 -0.6683 -0.5156  0.0363
10179TIP3    H252029   4.266   3.340   0.674 -1.0700 -1.7129  0.7175
10180TIP3   OH252030   4.803   5.338  15.720  0.1663  0.6905  0.3187
10180TIP3    H152031   4.761   5.360  15.637 -1.4918 -0.5862  0.7519
10180TIP3    H252032   4.892   5.314  15.697 -0.3288  0.1513 -1.1379
10181TIP3   OH252033   6.513   3.055  14.896 -0.2938 -0.8000  0.2374
10181TIP3    H152034   6.587   3.092  14.944 -1.0804 -0.8117  1.5169
10181TIP3    H252035   6.513   3.102  14.812  1.5227 -1.2562 -0.0522
10182TIP3   OH252036   4.098   1.607   1.093  0.6542 -0.4603  0.4926
10182TIP3    H152037   4.061   1.628   1.007  1.7605 -0.8535 -0.0899
10182TIP3    H252038   4.051   1.528   1.120  0.1246 -0.1936  0.3733
10183TIP3   OH252039   4.482   4.250  12.765 -0.0376  0.5402  0.3893
10183TIP3    H152040   4.391   4.232  12.742 -0.2761  0.2291  1.5260
10183TIP3    H252041   4.479   4.334  12.811  0.4251  1.1212 -0.5938
10184TIP3   OH252042   6.292   6.731   1.853  0.0724 -0.2480 -0.2848
10184TIP3    H152043   6.356   6.734   1.924 -1.1551 -0.4639  0.8702
10184TIP3    H252044   6.323   6.661   1.795 -0.0322 -1.5836  1.1951
10185TIP3   OH252045   1.097   2.150  11.947  0.1701 -0.8217  0.3250
10185TIP3    H152046   1.116   2.088  12.017 -1.3533  1.1243  2.6096
10185TIP3    H252047   1.060   2.226  11.991  1.0748  1.3984 -2.4111
10186TIP3   OH252048   2.336   2.457  15.757  0.0907  0.3375 -0.0374
10186TIP3    H152049   2.415   2.460  15.703  0.3628  0.3574  0.3591
10186TIP3    H252050   2.368   2.465  15.847 -0.2061 -1.4315  0.2638
10187TIP3   OH252051   4.284   5.619  16.929 -0.0620  0.2578 -0.5555
10187TIP3    H152052   4.227   5.573  16.991  0.1578 -0.5198 -0.9153
10187TIP3    H252053   4.346   5.667  16.984  0.7660 -1.2231 -0.1400
10188TIP3   OH252054   6.002   3.057  12.948  0.4009 -0.4559  0.0476
10188TIP3    H152055   6.006   2.970  12.910 -2.1830 -1.5081  1.8655
10188TIP3    H252056   6.038   3.046  13.036 -1.5897 -0.2095  0.9504
10189TIP3   OH252057   4.692   1.590   2.014 -0.3544 -0.5820 -0.2541
10189TIP3    H152058   4.787   1.586   2.002 -0.2597  0.2156  0.1424
10189TIP3    H252059   4.677   1.675   2.057 -1.2808 -0.5383 -0.6429
10190TIP3   OH252060   2.182   5.130   6.071 -0.5504 -0.3916  0.5974
10190TIP3    H152061   2.106   5.177   6.035 -1.3623 -0.9047  1.5777
10190TIP3    H252062   2.174   5.141   6.166  0.6313 -0.4346  0.7157
10191TIP3   OH252063   4.730   5.369   1.860  0.1747 -0.1473 -1.0313
10191TIP3    H152064   4.709   5.461   1.844  0.1422 -0.1223 -0.8471
10191TIP3    H252065   4.789   5.370   1.935  1.2375 -0.1823 -1.8508
10192TIP3   OH252066   4.700   2.882  11.998 -0.1662 -1.0938  0.3248
10192TIP3    H152067   4.728   2.871  12.088 -0.4714  0.0926  0.5807
10192TIP3    H252068   4.613   2.923  12.004 -0.0418 -0.6762 -0.5087
10193TIP3   OH252069   5.610   3.072  15.604  0.7878  0.0601 -0.2530
10193TIP3    H152070   5.647   3.113  15.526 -0.1907  2.2581  0.3483
10193TIP3    H252071   5.683   3.066  15.666  1.0947  0.3282 -0.5860
10194TIP3   OH252072   6.062   1.539   0.990 -0.0195  0.2373  0.1290
10194TIP3    H152073   6.034   1.566   1.078  0.8426  0.9867  0.1813
10194TIP3    H252074   6.156   1.558   0.987  0.3828 -1.6123 -0.2732
10195TIP3   OH252075   4.596   0.234  12.123 -0.1735  0.7778 -0.1843
10195TIP3    H152076   4.673   0.223  12.179  0.8567  2.5198 -1.1896
10195TIP3    H252077   4.625   0.205  12.036 -0.7167  1.2684 -0.5352
10196TIP3   OH252078   3.835   4.682  10.987 -0.2572 -0.1382 -0.2382
10196TIP3    H152079   3.773   4.727  10.930 -1.4614  0.4674  1.4802
10196TIP3    H252080   3.848   4.597  10.946 -0.9092  0.3622 -1.5293
10197TIP3   OH252081   6.203   0.913   4.805 -0.2369  0.1082 -0.1996
10197TIP3    H152082   6.265   0.878   4.741  0.3475 -0.5256  0.6890
10197TIP3    H252083   6.139   0.843   4.818 -0.2656  0.1743  0.0224
10198TIP3   OH252084   5.008   5.915   3.275  0.1001  0.1189  0.5735
10198TIP3    H152085   5.037   5.862   3.201 -1.3726  0.8829 -0.6206
10198TIP3    H252086   5.083   5.919   3.334  1.0501 -1.1699 -0.5045
10199TIP3   OH252087   5.893   1.960   3.156 -0.1305  0.3650 -0.2273
10199TIP3    H152088   5.867   1.913   3.236  1.5183  2.0561  1.4061
10199TIP3    H252089   5.821   2.021   3.141 -0.5005 -0.0289 -0.0728
10200TIP3   OH252090   4.932   1.690  12.586 -0.8255 -0.5831 -0.0669
10200TIP3    H152091   4.892   1.768  12.547 -0.7179 -1.6568 -2.5220
10200TIP3    H252092   4.868   1.620  12.570 -1.0807 -0.9987  2.4110
10201TIP3   OH252093   5.285   3.637  16.262  0.2794 -0.5463 -0.2436
10201TIP3    H152094   5.197   3.671  16.279  0.9640  0.7105  0.9471
10201TIP3    H252095   5.312   3.597  16.344  0.5142 -1.6822 -0.8574
10202TIP3   OH252096   6.171   1.205   4.454 -0.2183 -0.0789  0.0427
10202TIP3    H152097   6.111   1.179   4.384 -0.1906  0.0331 -0.0242
10202TIP3    H252098   6.130   1.283   4.492 -1.4167 -1.4507  1.6723
10203TIP3   OH252099   3.123   3.637   2.376  0.3896 -0.7229  0.1838
10203TIP3    H152100   3.113   3.678   2.462  2.0332 -0.5274  0.3160
10203TIP3    H252101   3.080   3.552   2.385 -1.7677  0.3256  0.3566
10204TIP3   OH252102   2.144   3.795   1.020 -0.2436  0.5506  0.2021
10204TIP3    H152103   2.105   3.878   1.048 -3.0757 -1.0216  1.3285
10204TIP3    H252104   2.195   3.765   1.095 -0.5788  0.4986  0.4104
10205TIP3   OH252105   6.210   5.611  12.113 -0.3585 -0.3230 -0.3239
10205TIP3    H152106   6.131   5.618  12.059 -0.0933 -2.3541 -1.0836
10205TIP3    H252107   6.281   5.599  12.051  1.0465  3.8411  0.1985
10206TIP3   OH252108   5.475   6.170  16.857 -0.5251 -0.1802 -0.2161
10206TIP3    H152109   5.410   6.216  16.911 -0.4071  0.2933 -0.4694
10206TIP3    H252110   5.506   6.237  16.796 -0.9823 -0.8214 -1.1686
10207TIP3   OH252111   2.590   0.375   5.604  0.1297 -0.5708 -0.3086
10207TIP3    H152112   2.581   0.390   5.698  1.1212  1.2611 -0.4639
10207TIP3    H252113   2.632   0.288   5.598  0.6789 -0.4267  0.9665
10208TIP3   OH252114   5.682   2.967   5.558 -0.2998 -0.8934  0.5047
10208TIP3    H152115   5.616   2.914   5.512 -1.7353 -0.0592  1.5366
10208TIP3    H252116   5.700   2.917   5.638  0.0270 -0.9157  0.4172
10209TIP3   OH252117   4.278   2.580   3.389 -0.1860  0.3355 -0.4591
10209TIP3    H152118   4.330   2.551   3.314  1.7422  0.9244  0.5914
10209TIP3    H252119   4.219   2.507   3.407 -0.0372 -0.1893 -1.9467
10210TIP3   OH252120   1.041   2.241   2.762 -0.2942 -0.1486  0.1725
10210TIP3    H152121   0.997   2.323   2.786 -0.6398 -0.1404 -0.4521
10210TIP3    H252122   0.976   2.195   2.709  0.1837 -0.4771 -0.1312
10211TIP3   OH252123   6.431   2.681  15.350 -0.0647  0.3325  0.5548
10211TIP3    H152124   6.447   2.684  15.255 -1.4442  1.3393  0.3241
10211TIP3    H252125   6.429   2.588  15.371  0.8441  0.1041 -0.2897
10212TIP3   OH252126   0.385   4.338   1.639  0.0669  0.1773 -0.1711
10212TIP3    H152127   0.447   4.376   1.701 -1.4712 -0.3075  1.7276
10212TIP3    H252128   0.310   4.396   1.641  0.4461  0.8776 -2.6131
10213TIP3   OH252129   6.351   1.068  16.568 -0.1334 -0.1723 -0.2308
10213TIP3    H152130   6.266   1.055  16.610  0.5239 -1.9246  0.6785
10213TIP3    H252131   6.391   1.140  16.616 -0.1256 -0.9720  1.0121
10214TIP3   OH252132   1.052   1.581   4.198 -0.0877 -0.1410  0.4412
10214TIP3    H152133   0.993   1.587   4.123 -1.5514  0.1468  1.5805
10214TIP3    H252134   1.002   1.536   4.265  1.2363 -0.5034  1.2248
10215TIP3   OH252135   2.628   0.883   6.256  0.1748  0.4746 -0.1189
10215TIP3    H152136   2.644   0.824   6.330  0.1738  1.5161  0.7351
10215TIP3    H252137   2.538   0.913   6.267  0.3980  1.1719 -0.1507
10216TIP3   OH252138   1.360   5.836   1.885 -0.1268  0.0128 -0.0285
10216TIP3    H152139   1.371   5.844   1.790 -0.8059 -1.2016 -0.2260
10216TIP3    H252140   1.308   5.913   1.909 -0.9130 -0.2430 -0.8273
10217TIP3   OH252141   3.969   3.066   0.950 -0.4726  0.1202  0.5572
10217TIP3    H152142   3.929   3.119   1.019 -2.4730  0.0895 -0.5215
10217TIP3    H252143   3.930   2.980   0.961  1.7876 -0.8661  1.4774
10218TIP3   OH252144   1.075   2.455   3.583  0.5205 -0.1580  0.8434
10218TIP3    H152145   1.126   2.474   3.662  0.4659  0.9788  0.6256
10218TIP3    H252146   1.040   2.540   3.557 -0.8742 -0.7895  0.5600
10219TIP3   OH252147   4.184   3.630   4.498 -0.0674 -0.0041 -0.3900
10219TIP3    H152148   4.196   3.681   4.418  0.1071  0.4512 -0.0719
10219TIP3    H252149   4.097   3.593   4.490  0.2504 -0.6084 -1.1611
10220TIP3   OH252150   5.045   3.676  11.758 -0.3646  0.1876 -0.1045
10220TIP3    H152151   5.014   3.586  11.750  1.4038 -0.6207  1.3516
10220TIP3    H252152   5.121   3.681  11.700 -1.3767  1.2524 -1.3943
10221TIP3   OH252153   4.038   5.421  15.546 -0.1244 -0.4900 -0.0066
10221TIP3    H152154   3.999   5.400  15.631 -1.0627  0.6036 -0.1288
10221TIP3    H252155   4.117   5.368  15.541 -0.5307 -1.2357  1.1651
10222TIP3   OH252156   5.562   0.822  14.034 -0.3820 -0.3292 -0.2100
10222TIP3    H152157   5.521   0.901  14.071 -2.4378 -1.9496  1.2301
10222TIP3    H252158   5.516   0.808  13.951  1.0010  0.7166 -1.2090
10223TIP3   OH252159   0.882   3.310  14.234  0.6279 -0.2357 -0.3896
10223TIP3    H152160   0.899   3.252  14.309  1.7486 -0.8173 -1.0637
10223TIP3    H252161   0.847   3.251  14.167 -0.5523  0.3171 -0.2770
10224TIP3   OH252162   4.522   6.560  16.451 -0.0383  0.2581  0.6730
10224TIP3    H152163   4.465   6.526  16.381 -0.0194 -1.4483  1.4393
10224TIP3    H252164   4.594   6.602  16.405  0.6492 -1.9573 -0.4241
10225TIP3   OH252165   0.906   3.131  14.441 -0.4625 -0.2087  0.5615
10225TIP3    H152166   0.949   3.095  14.519 -1.9864 -0.0346  1.5474
10225TIP3    H252167   0.871   3.054  14.396 -0.0523 -0.2715  0.3515
10226TIP3   OH252168   5.209   2.336   1.865 -0.0235 -0.5878 -0.7442
10226TIP3    H152169   5.163   2.400   1.812  1.0819 -0.0154 -1.0454
10226TIP3    H252170   5.285   2.384   1.899  0.9869 -1.8080 -1.2155
10227TIP3   OH252171   3.461   0.536   2.410 -0.2698 -0.0458 -0.1267
10227TIP3    H152172   3.486   0.464   2.352 -3.1394  0.5170 -2.2597
10227TIP3    H252173   3.441   0.493   2.493 -0.6334 -1.5395 -0.9500
10228TIP3   OH252174   0.068   5.828  16.632  0.1920 -0.0714 -0.9825
10228TIP3    H152175   0.133   5.857  16.569  0.1662  2.2706 -0.0145
10228TIP3    H252176   0.118   5.808  16.711 -0.1980  2.0031 -0.1432
10229TIP3   OH252177   5.329   0.919  13.429  0.4556 -0.5243 -0.0560
10229TIP3    H152178   5.290   0.987  13.374 -0.6429 -0.6506  0.5435
10229TIP3    H252179   5.408   0.960  13.465 -0.0255  0.3264  0.0531
10230TIP3   OH252180   0.063   2.505  12.868 -0.1486  0.3785  0.0944
10230TIP3    H152181   0.041   2.428  12.921 -0.0437  0.7621  0.7114
10230TIP3    H252182   0.126   2.473  12.803  0.0999 -0.0032  0.5171
10231TIP3   OH252183   3.988   3.583   2.731 -0.1435 -0.9668  0.2845
10231TIP3    H152184   4.051   3.648   2.763 -1.6261  0.6995 -0.0124
10231TIP3    H252185   3.981   3.600   2.637 -0.6831 -1.4381  0.2359
10232TIP3   OH252186   4.752   6.048  13.559  0.3048  0.0398 -0.3776
10232TIP3    H152187   4.752   6.131  13.607 -2.8151 -0.0403 -0.0040
10232TIP3    H252188   4.684   5.996  13.602 -0.3582 -1.3026 -2.8463
10233TIP3   OH252189   2.918   2.766  12.665  0.4860 -0.1301  0.3731
10233TIP3    H152190   2.891   2.847  12.622 -0.3746 -0.1369  0.8866
10233TIP3    H252191   2.933   2.791  12.756 -0.7796 -0.7370  0.7661
10234TIP3   OH252192   4.654   6.324   2.678 -0.0471 -0.4731 -0.3630
10234TIP3    H152193   4.655   6.408   2.631  0.3006  0.6268  1.4965
10234TIP3    H252194   4.744   6.292   2.672 -0.0061 -0.3363 -0.4740
10235TIP3   OH252195   0.653   4.235  13.063  0.0641  0.0818  0.7536
10235TIP3    H152196   0.601   4.187  12.998  0.6126 -0.2476  0.5462
10235TIP3    H252197   0.682   4.314  13.017 -3.0085  2.0222  1.8712
10236TIP3   OH252198   0.708   0.964  10.720  0.3628 -1.4341  0.1424
10236TIP3    H152199   0.660   0.974  10.638  0.1680 -1.2414  0.2795
10236TIP3    H252200   0.752   1.048  10.733 -0.3986 -1.1149  0.7333
10237TIP3   OH252201   6.168   5.785   5.092 -0.3960  0.5530 -0.2558
10237TIP3    H152202   6.159   5.692   5.070  2.0591  0.5731 -1.7469
10237TIP3    H252203   6.133   5.831   5.016  1.9756  0.7135 -1.3533
10238TIP3   OH252204   0.645   0.453   6.294  0.6239  0.3672 -0.2002
10238TIP3    H152205   0.600   0.527   6.335  0.3293  0.8194 -1.2969
10238TIP3    H252206   0.703   0.493   6.229  1.1925 -0.3182 -0.1309
10239TIP3   OH252207   0.153   3.785  13.412 -0.3316  0.9263  0.0769
10239TIP3    H152208   0.203   3.866  13.418 -0.3808  0.9585  0.0606
10239TIP3    H252209   0.202   3.731  13.351 -0.6693  1.2191 -0.4629
10240TIP3   OH252210   2.388   1.447  14.506  0.0974  0.2534 -0.1791
10240TIP3    H152211   2.434   1.369  14.537  1.4579  0.3256 -1.8476
10240TIP3    H252212   2.317   1.413  14.452  0.0616  0.1601 -0.0731
10241TIP3   OH252213   4.958   5.781  12.109  0.6827 -0.0763  0.4760
10241TIP3    H152214   4.950   5.696  12.067  0.9861 -0.6891  1.6218
10241TIP3    H252215   5.044   5.813  12.083  0.8554 -0.4340  0.6099
10242TIP3   OH252216   3.920   2.036   2.040  0.4167 -0.0292 -0.2390
10242TIP3    H152217   3.859   2.085   2.094  0.0403 -2.6157  1.9162
10242TIP3    H252218   3.882   2.037   1.952 -1.4835  0.3618  0.5582
10243TIP3   OH252219   5.354   2.923   4.432  0.4004  0.0905 -0.1215
10243TIP3    H152220   5.436   2.928   4.383  1.1074  1.5156  1.0899
10243TIP3    H252221   5.289   2.965   4.376  0.5829 -0.7010 -0.9319
10244TIP3   OH252222   0.020   1.000  11.619 -0.3687 -0.6792 -0.2287
10244TIP3    H152223  -0.060   1.043  11.592 -2.1551 -2.6652  1.5277
10244TIP3    H252224   0.032   0.929  11.557  1.0781  0.6052 -1.5134
10245TIP3   OH252225   4.920   4.029  11.739  0.3109  0.4048 -0.2898
10245TIP3    H152226   4.860   4.104  11.733 -0.0971 -0.0010 -2.0819
10245TIP3    H252227   4.895   3.974  11.665  2.3811 -0.1764 -0.5977
10246TIP3   OH252228   4.424   2.493   1.080  0.3006 -0.2379 -0.6708
10246TIP3    H152229   4.409   2.408   1.038 -1.0779 -0.5351  0.3510
10246TIP3    H252230   4.494   2.533   1.028  0.6865 -1.8070 -1.4342
10247TIP3   OH252231   1.968   1.834  14.378  0.2856  0.8554 -0.2146
10247TIP3    H152232   1.978   1.778  14.301 -0.0331  0.7068 -0.1518
10247TIP3    H252233   1.979   1.923  14.345  4.1599  0.6981  0.2138
10248TIP3   OH252234   6.243   4.289   2.834 -0.2275 -0.1364  0.0791
10248TIP3    H152235   6.196   4.277   2.916  2.1185  1.2883  1.7652
10248TIP3    H252236   6.319   4.231   2.841  0.2129  0.2908 -0.9219
10249TIP3   OH252237   6.417   3.747   2.539 -0.2191  0.2349  0.0260
10249TIP3    H152238   6.387   3.803   2.610  0.5344  0.2882  0.3076
10249TIP3    H252239   6.339   3.735   2.483 -0.8206  0.1857  0.8548
10250TIP3   OH252240   1.437   0.093  12.622  0.0210  0.2989  0.0050
10250TIP3    H152241   1.415   0.055  12.708  1.6377 -1.6443 -0.3851
10250TIP3    H252242   1.478   0.176  12.643 -1.6862  0.9645  0.9813
10251TIP3   OH252243   2.090   3.206  11.590 -0.3215 -0.0925 -0.4036
10251TIP3    H152244   2.001   3.208  11.556 -0.4595 -0.7702 -0.1056
10251TIP3    H252245   2.135   3.143  11.535 -0.3474 -0.6342  0.1795
10252TIP3   OH252246   5.376   6.266  14.525  0.2447  0.3326 -0.8465
10252TIP3    H152247   5.357   6.343  14.471 -3.4863 -0.1231 -0.4262
10252TIP3    H252248   5.392   6.302  14.613  0.0799  0.7099 -0.9692
10253TIP3   OH252249   3.050   1.211  12.403  0.3042  0.1910  0.0336
10253TIP3    H152250   2.986   1.269  12.444 -0.2999  0.7221 -1.6030
10253TIP3    H252251   3.098   1.267  12.342  0.0709 -0.9015 -1.1867
10254TIP3   OH252252   3.961   0.223   4.616 -0.0068 -0.5816  0.3620
10254TIP3    H152253   4.050   0.254   4.599  0.1498 -0.7254  0.8764
10254TIP3    H252254   3.905   0.278   4.562  0.1191  1.7773  2.4334
10255TIP3   OH252255   5.413   4.560   1.436 -0.1967  0.1274 -0.7538
10255TIP3    H152256   5.320   4.550   1.457 -0.0453 -0.3635 -0.2996
10255TIP3    H252257   5.458   4.507   1.501  0.3542 -0.4790 -1.5990
10256TIP3   OH252258   2.451   5.496  10.866  0.1117  0.5000  0.2543
10256TIP3    H152259   2.359   5.467  10.865  0.5927 -1.3276  2.2048
10256TIP3    H252260   2.453   5.569  10.805 -2.9546  1.5398  1.2007
10257TIP3   OH252261   0.130   0.402   3.860 -0.0996  0.2643 -0.0255
10257TIP3    H152262   0.146   0.421   3.953  1.0125  0.9845 -0.3364
10257TIP3    H252263   0.104   0.486   3.823 -2.3840 -0.3904 -0.0359
10258TIP3   OH252264   2.597   2.337  17.195 -0.3550  0.1833 -0.2121
10258TIP3    H152265   2.586   2.410  17.134 -1.2857  1.0268  0.9162
10258TIP3    H252266   2.649   2.373  17.267 -1.0603 -0.1657  0.4916
10259TIP3   OH252267   0.557   2.304  14.679 -0.2606 -0.5216 -0.1970
10259TIP3    H152268   0.497   2.313  14.604  0.2805  1.1464 -0.4560
10259TIP3    H252269   0.594   2.391  14.691  3.2088 -1.7159 -0.9586
10260TIP3   OH252270   3.219   6.374   3.649  0.2342 -0.7477 -0.0771
10260TIP3    H152271   3.162   6.314   3.697  0.3157  0.0354  1.0320
10260TIP3    H252272   3.279   6.409   3.715  0.5283  0.1515 -0.7975
10261TIP3   OH252273   4.573   6.361   1.976 -0.9971 -0.2190  0.0415
10261TIP3    H152274   4.634   6.434   1.988 -1.2482  0.5730 -2.7660
10261TIP3    H252275   4.493   6.389   2.022 -0.5948  0.5905  0.2739
10262TIP3   OH252276   0.500   5.232  16.609  0.5083  0.4304  0.8543
10262TIP3    H152277   0.448   5.177  16.668 -0.7935  0.6405 -0.0520
10262TIP3    H252278   0.562   5.276  16.667 -0.4402  0.3069  2.0188
10263TIP3   OH252279   2.417   5.631   0.959 -0.3188  0.0042  0.2871
10263TIP3    H152280   2.430   5.707   1.016 -1.7216 -0.1688  0.9011
10263TIP3    H252281   2.396   5.669   0.873 -2.3234  0.4027  0.8871
10264TIP3   OH252282   6.247   3.724   1.257  0.0359 -0.1209 -0.3548
10264TIP3    H152283   6.181   3.788   1.229 -0.2404  0.0725  0.7130
10264TIP3    H252284   6.322   3.741   1.199 -0.4213  0.4492 -0.7913
10265TIP3   OH252285   5.053   0.744  11.438 -0.2064 -0.0743 -0.2815
10265TIP3    H152286   5.001   0.707  11.367 -0.4233  0.1009 -0.2119
10265TIP3    H252287   5.099   0.818  11.398  0.1125 -0.3216 -0.3817
10266TIP3   OH252288   1.160   0.052  11.952 -0.1339  0.9474 -0.3555
10266TIP3    H152289   1.190   0.004  12.029 -0.1854  2.3823  0.5981
10266TIP3    H252290   1.240   0.086  11.912 -0.1137  0.2724 -0.9189
10267TIP3   OH252291   3.051   2.728  13.665  0.1886 -0.4370  0.3981
10267TIP3    H152292   3.118   2.714  13.733  0.4341 -2.9115 -0.2678
10267TIP3    H252293   3.058   2.821  13.644  0.0643  0.4719  3.7651
10268TIP3   OH252294   6.140   1.784  15.499 -0.2130 -0.1709  0.4132
10268TIP3    H152295   6.109   1.794  15.409 -1.9334 -3.4279  0.5082
10268TIP3    H252296   6.229   1.819  15.497 -0.2325 -0.0282 -2.5433
10269TIP3   OH252297   0.532   6.130   3.757  0.3012 -0.1820  0.1282
10269TIP3    H152298   0.599   6.193   3.782 -1.9287  1.7501  1.6066
10269TIP3    H252299   0.506   6.156   3.669  1.6281 -1.1097 -0.5606
10270TIP3   OH252300   1.762   6.077  10.466  0.4694 -0.3078 -0.4257
10270TIP3    H152301   1.677   6.042  10.491  0.0039 -0.0950 -1.6274
10270TIP3    H252302   1.766   6.064  10.371  2.2092 -1.2317 -0.2730
10271TIP3   OH252303   1.258   0.751  12.832  0.1082 -0.1591  0.4601
10271TIP3    H152304   1.298   0.833  12.803 -0.2601 -0.2066 -0.2082
10271TIP3    H252305   1.281   0.687  12.765  1.1625 -0.8481  1.4280
10272TIP3   OH252306   3.713   2.602   5.586 -0.4932 -0.0008  0.8345
10272TIP3    H152307   3.730   2.638   5.673  1.1080 -1.7448  1.3346
10272TIP3    H252308   3.661   2.523   5.603 -0.4837 -0.1507  0.1850
10273TIP3   OH252309   5.633   6.794  14.950  0.3116  0.1670 -0.2888
10273TIP3    H152310   5.586   6.862  14.901  1.0168  0.3879 -0.6642
10273TIP3    H252311   5.574   6.773  15.023 -1.1481 -0.7905 -1.6831
10274TIP3   OH252312   3.144   2.827  14.690 -0.4707 -0.0374 -0.8878
10274TIP3    H152313   3.051   2.816  14.710  0.1132  0.9116  3.2502
10274TIP3    H252314   3.153   2.920  14.668 -0.3710  0.2085  0.1224
10275TIP3   OH252315   5.591   4.812   3.576  0.2812 -0.3594 -0.9069
10275TIP3    H152316   5.622   4.724   3.555  0.2504 -0.4982 -0.3875
10275TIP3    H252317   5.571   4.808   3.670 -1.9115 -0.4647 -1.3285
10276TIP3   OH252318   6.312   5.338   2.196 -0.6709  0.0302  0.3715
10276TIP3    H152319   6.342   5.247   2.199 -0.2108  0.1325 -0.7860
10276TIP3    H252320   6.251   5.340   2.122 -1.3249  0.4840  0.9126
10277TIP3   OH252321   1.270   2.510   2.954  0.6845 -0.3913 -0.3190
10277TIP3    H152322   1.353   2.487   2.996  0.7907 -0.3702 -0.5147
10277TIP3    H252323   1.212   2.533   3.026  1.1840  0.7028 -0.2535
10278TIP3   OH252324   6.660   4.072   3.752 -0.0549 -0.0674  0.4355
10278TIP3    H152325   6.655   4.020   3.672 -1.4374  1.4735 -0.5381
10278TIP3    H252326   6.582   4.128   3.750  0.4419  0.7866  2.3181
10279TIP3   OH252327   6.374   2.811  15.591  0.2350 -0.2573 -0.2698
10279TIP3    H152328   6.371   2.798  15.496 -0.1391  2.7457 -0.7451
10279TIP3    H252329   6.305   2.753  15.625  0.6593 -1.7027 -1.7244
10280TIP3   OH252330   3.005   2.155  12.719  0.4938 -0.2320  0.0838
10280TIP3    H152331   2.926   2.148  12.665 -0.1971 -0.6307  1.1000
10280TIP3    H252332   2.978   2.120  12.804  1.2073  1.4082  1.0323
10281TIP3   OH252333   4.224   4.321   0.577 -0.4242 -0.2630 -0.1695
10281TIP3    H152334   4.305   4.298   0.621 -0.7227 -1.6549 -0.3047
10281TIP3    H252335   4.250   4.343   0.488  0.0086  1.1401  0.2806
10282TIP3   OH252336   2.978   1.330  16.065  0.1730 -0.1386  0.2858
10282TIP3    H152337   3.000   1.293  15.979  2.6979  0.3373  0.6500
10282TIP3    H252338   3.019   1.416  16.065 -1.2514  0.5784  1.3785
10283TIP3   OH252339   4.861   5.295  11.447 -0.1942 -0.2456 -0.4500
10283TIP3    H152340   4.874   5.353  11.522  0.3435 -1.3048  0.3037
10283TIP3    H252341   4.862   5.353  11.371  0.4050  0.7167  0.2704
10284TIP3   OH252342   4.972   3.757  15.966 -0.0382  0.3275 -0.5589
10284TIP3    H152343   5.023   3.807  15.902  0.9807  0.8548  0.6062
10284TIP3    H252344   4.881   3.780  15.948 -0.0038 -1.1714 -3.1606
10285TIP3   OH252345   0.065   0.017   4.775 -0.1395 -0.3632  0.3960
10285TIP3    H152346  -0.005  -0.019   4.828 -1.2983  0.5813 -0.4486
10285TIP3    H252347   0.036   0.105   4.752  0.4451 -0.6109 -1.5200
10286TIP3   OH252348   0.334   1.473  14.537 -0.2700  0.3248  0.0009
10286TIP3    H152349   0.262   1.410  14.540 -0.3493  0.4649  1.5035
10286TIP3    H252350   0.345   1.491  14.443 -1.3399 -0.6530 -0.3444
10287TIP3   OH252351   1.308   6.349   3.019 -0.2613  0.2806 -0.4558
10287TIP3    H152352   1.352   6.288   2.961 -0.8543  1.1267 -1.8458
10287TIP3    H252353   1.249   6.399   2.962 -0.6812  1.3255  0.8279
10288TIP3   OH252354   3.258   6.721   3.300 -0.7670  0.4603  0.6205
10288TIP3    H152355   3.182   6.715   3.241  0.3950 -1.6688 -0.8359
10288TIP3    H252356   3.296   6.633   3.297  2.9749  1.9332 -0.4639
10289TIP3   OH252357   2.749   0.093   5.217  0.4656 -0.4001 -0.1823
10289TIP3    H152358   2.670   0.140   5.241  0.3043 -0.0540 -1.3099
10289TIP3    H252359   2.741   0.008   5.260 -1.5520 -1.1738 -1.8982
10290TIP3   OH252360   4.008   2.889  11.462 -0.6657 -0.0632  0.1705
10290TIP3    H152361   4.097   2.895  11.427 -1.2157  0.6826 -1.1868
10290TIP3    H252362   3.990   2.795  11.467 -0.3867 -0.2076 -1.1479
10291TIP3   OH252363   4.199   3.989  16.038  0.0576  0.3156 -0.5850
10291TIP3    H152364   4.262   4.058  16.056  0.2251  0.5772 -2.0339
10291TIP3    H252365   4.117   4.035  16.020  0.1091  0.1467 -1.3060
10292TIP3   OH252366   1.996   4.165   6.394 -0.1637 -0.0688  0.8056
10292TIP3    H152367   2.050   4.121   6.460 -0.9334 -0.2064  1.3587
10292TIP3    H252368   2.029   4.131   6.311  0.7445  0.0150  1.1113
10293TIP3   OH252369   2.815   5.344   3.027  0.6664  0.1480  0.1645
10293TIP3    H152370   2.862   5.291   3.092  1.6523  1.9258  0.9730
10293TIP3    H252371   2.883   5.369   2.963  0.1296  0.1340 -0.4227
10294TIP3   OH252372   3.585   2.919  15.055  0.5628  0.6504  0.5682
10294TIP3    H152373   3.538   2.860  15.114 -0.5115  1.2179  0.2988
10294TIP3    H252374   3.656   2.955  15.108  0.1741  0.4379  1.2395
10295TIP3   OH252375   1.557   6.764  13.779 -0.1856  0.8720  0.4662
10295TIP3    H152376   1.495   6.821  13.824 -1.6758  0.1574 -0.5733
10295TIP3    H252377   1.559   6.684  13.831  1.0715  1.4292  1.3275
10296TIP3   OH252378   1.218   1.145   3.324  0.8444  0.4980  0.2886
10296TIP3    H152379   1.242   1.159   3.415  0.9063 -0.6667  0.4549
10296TIP3    H252380   1.178   1.228   3.297  2.7580  1.6253  0.7257
10297TIP3   OH252381   1.037   2.074  11.707  0.4246  0.0367 -0.4590
10297TIP3    H152382   0.966   2.123  11.666 -1.6095 -1.8277  0.5749
10297TIP3    H252383   1.063   2.128  11.782 -0.6675  0.2800 -0.2376
10298TIP3   OH252384   3.819   3.424  11.579  0.0698 -0.8156  0.1661
10298TIP3    H152385   3.816   3.517  11.556 -2.1159 -0.9819 -0.4077
10298TIP3    H252386   3.912   3.407  11.597  0.6229  1.2916 -0.4145
10299TIP3   OH252387   6.806   1.335   1.824  0.4216  0.2620  0.2317
10299TIP3    H152388   6.884   1.298   1.781  0.3710  1.6557 -1.1540
10299TIP3    H252389   6.735   1.319   1.762  0.3901  2.5431 -0.3822
10300TIP3   OH252390   4.243   6.015  11.242  0.3043  0.5462  0.2659
10300TIP3    H152391   4.297   6.009  11.321 -1.9245  0.2628  1.8437
10300TIP3    H252392   4.198   5.931  11.236 -0.8901  1.1984 -0.3088
10301TIP3   OH252393   1.085   4.435   1.887  0.3770 -0.1643 -0.4521
10301TIP3    H152394   1.151   4.367   1.903  0.5690  0.0561 -0.2956
10301TIP3    H252395   1.135   4.517   1.886  0.0344  0.0586  0.2362
10302TIP3   OH252396   6.545   3.298   3.455  0.2590  0.7324  0.5484
10302TIP3    H152397   6.578   3.224   3.404 -1.4477  0.0371  0.3849
10302TIP3    H252398   6.623   3.350   3.475  1.4085 -0.7271  0.0627
10303TIP3   OH252399   3.684   0.854  15.101 -0.0907 -0.0136  0.4075
10303TIP3    H152400   3.668   0.769  15.143  2.0723 -1.5205 -1.5913
10303TIP3    H252401   3.603   0.872  15.054 -0.7837 -0.6850  1.2910
10304TIP3   OH252402   6.653   1.678   1.216  0.0036 -0.0067 -0.5939
10304TIP3    H152403   6.598   1.639   1.149  1.7918 -2.6061 -0.7049
10304TIP3    H252404   6.714   1.734   1.168 -0.9798  1.0286 -0.6917
10305TIP3   OH252405   6.481   1.757   0.065  0.2714  0.1560 -0.2641
10305TIP3    H152406   6.410   1.820   0.073 -1.0833 -1.1795 -1.1148
10305TIP3    H252407   6.559   1.804   0.095 -0.7501  2.0475 -0.4080
10306TIP3   OH252408   4.718   3.600  17.321  0.2258  0.5271  0.3649
10306TIP3    H152409   4.716   3.594  17.226  1.4170  0.7699  0.3115
10306TIP3    H252410   4.806   3.631  17.342 -0.0790  0.6737  1.5381
10307TIP3   OH252411   6.820   0.932   5.991  0.0511 -0.6641 -0.2555
10307TIP3    H152412   6.816   0.960   6.083 -0.3437  0.9244 -0.7185
10307TIP3    H252413   6.884   0.860   5.991 -0.9143 -1.5888  1.4542
10308TIP3   OH252414   5.934   1.791   2.093  0.9011  0.0615  0.5439
10308TIP3    H152415   5.950   1.720   2.030  3.1315  0.2696  0.8120
10308TIP3    H252416   5.876   1.752   2.158 -1.5458 -0.1340 -1.6076
10309TIP3   OH252417   0.625   2.720   3.236  0.0342 -0.3551  0.2394
10309TIP3    H152418   0.587   2.634   3.222 -1.8220  0.4861 -0.1587
10309TIP3    H252419   0.719   2.707   3.221 -0.2052 -2.2621  0.0994
10310TIP3   OH252420   5.539   0.219  14.830 -0.1673  0.0596  0.4773
10310TIP3    H152421   5.598   0.287  14.798 -1.5319  0.2690 -1.8277
10310TIP3    H252422   5.457   0.264  14.848 -0.9126 -0.8143 -0.5294
10311TIP3   OH252423   6.054   5.892   3.595  0.1824  0.1060  0.1389
10311TIP3    H152424   6.066   5.804   3.561  0.0237  0.1740 -0.0997
10311TIP3    H252425   6.140   5.917   3.629  0.9558  0.8715 -2.2035
10312TIP3   OH252426   4.790   6.751   0.813  0.1963  0.6553 -0.3590
10312TIP3    H152427   4.771   6.662   0.843  0.7502  0.4885 -0.4837
10312TIP3    H252428   4.743   6.808   0.873  1.0554  0.3222  0.6573
10313TIP3   OH252429   3.344   6.741  12.874  0.2488  0.1046  0.3534
10313TIP3    H152430   3.419   6.739  12.934 -0.3678 -1.9001  1.1596
10313TIP3    H252431   3.349   6.826  12.832  2.5015  0.3561  0.9928
10314TIP3   OH252432   0.102   4.801   5.642 -0.2252  0.1373 -0.3581
10314TIP3    H152433   0.121   4.877   5.697  0.8374 -0.0526 -0.4381
10314TIP3    H252434   0.011   4.813   5.616 -1.0141 -0.1425  2.0158
10315TIP3   OH252435   3.529   0.806  10.448 -0.0765 -0.1050 -0.1246
10315TIP3    H152436   3.621   0.812  10.423 -0.5115  0.5061 -1.7746
10315TIP3    H252437   3.499   0.897  10.449 -0.8511 -0.3435 -0.4797
10316TIP3   OH252438   3.741   2.747  17.156  0.3002 -0.2002 -0.5196
10316TIP3    H152439   3.678   2.679  17.131 -0.0567  0.0114 -0.2140
10316TIP3    H252440   3.706   2.827  17.118  0.6467 -0.1580 -0.7597
10317TIP3   OH252441   4.489   0.991  15.657  0.0791 -1.0407  0.1671
10317TIP3    H152442   4.449   1.072  15.626 -0.2993 -0.3443  2.2905
10317TIP3    H252443   4.562   0.976  15.597  0.6568  1.3278  0.1617
10318TIP3   OH252444   1.062   3.441  16.327 -0.6458  0.2396  0.5959
10318TIP3    H152445   1.094   3.375  16.265  1.7144  1.6550  0.1935
10318TIP3    H252446   1.141   3.483  16.359 -2.0521  2.6021  1.1473
10319TIP3   OH252447   2.522   4.812   2.927 -0.3322 -0.3988 -0.4357
10319TIP3    H152448   2.536   4.846   2.838 -1.8621  2.2869  0.2164
10319TIP3    H252449   2.429   4.826   2.943  0.1733  0.7057  2.1009
10320TIP3   OH252450   3.461   3.354  17.315 -0.2673  0.4923  0.3635
10320TIP3    H152451   3.494   3.292  17.249 -0.2159 -1.2180  1.9219
10320TIP3    H252452   3.389   3.307  17.357 -1.6269  2.3369  0.2110
10321TIP3   OH252453   1.784   0.322   3.418 -0.0294 -0.0442 -0.4301
10321TIP3    H152454   1.725   0.250   3.439 -1.1644  0.7176 -0.9187
10321TIP3    H252455   1.758   0.393   3.478  1.9655 -0.4324  1.0000
10322TIP3   OH252456   1.088   0.131  13.045  0.2091 -0.2528  0.0018
10322TIP3    H152457   1.104   0.191  12.973  0.0581 -0.3366 -0.1015
10322TIP3    H252458   0.993   0.129  13.054  0.2428  0.0960  0.4868
10323TIP3   OH252459   1.714   6.234  14.179 -0.0398 -0.2568 -0.2922
10323TIP3    H152460   1.686   6.144  14.162 -0.2480 -0.6985  2.0499
10323TIP3    H252461   1.689   6.250  14.270  1.1966  1.7261 -0.2435
10324TIP3   OH252462   2.722   1.076   5.874  0.2275  0.3019  0.3512
10324TIP3    H152463   2.740   1.070   5.968  1.1001 -0.7584  0.1245
10324TIP3    H252464   2.700   0.987   5.848  2.1889  0.1420 -0.8814
10325TIP3   OH252465   1.309   4.882   4.079 -0.7944  0.5488  0.2694
10325TIP3    H152466   1.338   4.806   4.129 -1.1127  0.3271  0.1164
10325TIP3    H252467   1.387   4.937   4.072  0.2588 -1.0869 -2.1459
10326TIP3   OH252468   6.583   3.278  13.382 -0.2044  0.4040  0.4501
10326TIP3    H152469   6.628   3.363  13.387  1.3074 -0.3645  0.2768
10326TIP3    H252470   6.531   3.275  13.463  1.2050  0.7040  1.4041
10327TIP3   OH252471   5.654   4.188  11.506  0.0360 -0.4624  0.2341
10327TIP3    H152472   5.668   4.232  11.590  0.8640 -1.1605  0.4856
10327TIP3    H252473   5.627   4.099  11.530 -2.4977  0.0872 -0.2533
10328TIP3   OH252474   3.413   0.778  11.670  0.0267 -0.4038  0.4836
10328TIP3    H152475   3.434   0.687  11.651  0.7610  0.2246 -2.2552
10328TIP3    H252476   3.333   0.795  11.620  1.1639  1.0009 -0.9508
10329TIP3   OH252477   1.161   5.152  11.673 -0.5754 -0.0106  0.3118
10329TIP3    H152478   1.241   5.205  11.678 -0.9919  0.6338  0.2780
10329TIP3    H252479   1.176   5.092  11.600 -0.8316  1.3333 -0.8886
10330TIP3   OH252480   3.228   2.831  12.494 -0.1928  0.1338 -0.5045
10330TIP3    H152481   3.283   2.816  12.417 -1.0541 -0.9107 -0.9396
10330TIP3    H252482   3.271   2.783  12.564  1.4639  2.3621  0.1126
10331TIP3   OH252483   3.156   5.418  11.253  0.4253 -0.1480 -0.7679
10331TIP3    H152484   3.111   5.459  11.179  1.0643 -0.9895 -1.6393
10331TIP3    H252485   3.087   5.408  11.320  0.1236  1.8028 -0.7144
10332TIP3   OH252486   6.508   6.131   6.469 -0.5393  0.2087  0.0317
10332TIP3    H152487   6.521   6.056   6.526 -0.0922  0.6059  0.4597
10332TIP3    H252488   6.587   6.135   6.415 -1.2501 -0.5729 -1.1144
10333TIP3   OH252489   4.415   1.562   0.027 -0.3442 -0.2063 -0.7052
10333TIP3    H152490   4.388   1.612   0.104  1.5312  0.2792 -0.3334
10333TIP3    H252491   4.419   1.627  -0.043 -1.2175 -0.4928 -1.0355
10334TIP3   OH252492   1.690   4.891   4.062 -0.3477  0.2252  0.2071
10334TIP3    H152493   1.637   4.970   4.049 -0.3615  0.0850 -0.5994
10334TIP3    H252494   1.763   4.901   4.001 -0.5851 -0.5983 -0.2157
10335TIP3   OH252495   2.285   5.727  15.377 -0.0417  0.7444  0.0974
10335TIP3    H152496   2.290   5.691  15.288  1.7754  1.3693 -0.0880
10335TIP3    H252497   2.195   5.756  15.386 -1.1098 -2.0539 -0.4322
10336TIP3   OH252498   5.976   2.763  16.873 -0.0840 -0.2180 -0.4308
10336TIP3    H152499   6.056   2.795  16.916 -0.6806  1.8313 -0.7629
10336TIP3    H252500   6.008   2.701  16.808  1.1190 -0.5725  0.4479
10337TIP3   OH252501   1.181   0.953  16.743  0.7041  1.2505  0.4168
10337TIP3    H152502   1.101   0.974  16.791 -0.1990  0.3095 -0.6093
10337TIP3    H252503   1.214   1.037  16.713 -0.3788  1.5810  0.1217
10338TIP3   OH252504   5.649   5.232  14.198  0.5880 -0.0987  0.3288
10338TIP3    H152505   5.567   5.254  14.242  0.6769 -0.4578  0.6841
10338TIP3    H252506   5.691   5.317  14.181  1.0317  0.0394  1.8764
10339TIP3   OH252507   6.457   5.450  11.328 -0.4789 -0.9429 -0.5446
10339TIP3    H152508   6.551   5.468  11.331 -0.1771 -2.4845  1.4974
10339TIP3    H252509   6.446   5.390  11.255 -0.0064 -0.2223 -1.2239
10340TIP3   OH252510   6.722   4.978  14.078  0.0857  0.1346 -0.0202
10340TIP3    H152511   6.713   4.959  13.985 -0.9598 -0.3266  0.1603
10340TIP3    H252512   6.802   5.030  14.084  1.1789 -1.3394 -0.9522
10341TIP3   OH252513   5.577   6.120  15.156 -0.0420 -0.2479 -0.1352
10341TIP3    H152514   5.561   6.173  15.234  0.8466 -1.6450  1.0718
10341TIP3    H252515   5.640   6.171  15.105  0.8572 -0.1411  1.0310
10342TIP3   OH252516   1.649   4.534   2.968  0.0332  0.1386  0.5545
10342TIP3    H152517   1.713   4.530   2.897 -0.4050  1.3377  0.0567
10342TIP3    H252518   1.595   4.610   2.947 -4.3753 -3.0717 -1.4289
10343TIP3   OH252519   0.662   4.993  14.838  0.7707 -0.6847 -0.5313
10343TIP3    H152520   0.609   4.921  14.870 -1.4637  1.5925  1.2686
10343TIP3    H252521   0.647   4.994  14.743 -1.8856 -0.6003 -0.1765
10344TIP3   OH252522   1.447   4.198  15.654 -0.7845  0.2096 -0.1429
10344TIP3    H152523   1.517   4.156  15.704 -0.5460 -0.4321 -0.9839
10344TIP3    H252524   1.490   4.273  15.612  0.3674 -1.9686 -3.3125
10345TIP3   OH252525   6.621   3.006   0.467 -0.0540 -0.1336  0.5603
10345TIP3    H152526   6.595   3.098   0.473  1.0703  0.1717  1.0191
10345TIP3    H252527   6.603   2.971   0.554  1.7910  0.3069  1.1691
10346TIP3   OH252528   6.496   5.724  12.254  0.6683  0.6593 -0.4707
10346TIP3    H152529   6.533   5.650  12.205  0.4334 -1.4328  2.2590
10346TIP3    H252530   6.558   5.795  12.240  0.4300  0.3390 -3.9510
10347TIP3   OH252531   5.857   1.223  14.203 -0.1623  0.3057  0.1855
10347TIP3    H152532   5.933   1.223  14.261  0.2096  1.9690 -0.2153
10347TIP3    H252533   5.827   1.133  14.201  0.4705  0.0084  2.0827
10348TIP3   OH252534   5.115   2.945  11.845  0.5371 -0.4549 -0.2147
10348TIP3    H152535   5.074   2.899  11.918  0.4822 -0.9142 -0.5312
10348TIP3    H252536   5.205   2.913  11.844  0.4653 -0.6399 -0.5134
10349TIP3   OH252537   6.287   1.571  16.946 -0.6283 -0.2155 -0.1968
10349TIP3    H152538   6.308   1.663  16.964 -0.9453 -0.1252 -0.2898
10349TIP3    H252539   6.200   1.558  16.984 -1.3988  0.0374 -1.8038
10350TIP3   OH252540   0.061   0.480   5.331 -0.2494  0.8448  0.4315
10350TIP3    H152541   0.003   0.538   5.281 -0.9827 -0.9241 -0.8650
10350TIP3    H252542   0.135   0.464   5.273  0.3077  1.0629  1.0728
10351TIP3   OH252543   3.138   0.177  14.704 -0.4629  0.6880  0.2077
10351TIP3    H152544   3.044   0.188  14.719 -0.5999 -0.5491  0.3837
10351TIP3    H252545   3.169   0.264  14.680 -1.9626  0.7781 -1.5866
10352TIP3   OH252546   5.309   6.349  17.012 -0.5290  0.3056 -0.5222
10352TIP3    H152547   5.343   6.428  16.970 -0.6266  0.5474 -0.1561
10352TIP3    H252548   5.317   6.367  17.106 -0.2888 -0.2335 -0.4330
10353TIP3   OH252549   1.962   5.318   0.345 -0.4250 -0.5388 -0.0570
10353TIP3    H152550   1.920   5.346   0.427  0.9462  0.1818  0.4346
10353TIP3    H252551   2.016   5.244   0.370 -0.2500 -0.5209 -0.3824
10354TIP3   OH252552   0.378   5.239  14.748  0.1169  0.0068 -0.1668
10354TIP3    H152553   0.461   5.241  14.701 -0.7140 -0.4486 -1.7385
10354TIP3    H252554   0.346   5.149  14.736 -0.8698  0.3336 -0.1165
10355TIP3   OH252555   0.913   2.112   6.378 -0.2989  0.2930 -0.2326
10355TIP3    H152556   0.963   2.189   6.404 -1.3410  0.4619  1.4730
10355TIP3    H252557   0.876   2.080   6.460  0.8994 -2.6317 -0.6956
10356TIP3   OH252558   6.016   6.532  10.941 -0.0253  0.3257 -0.3579
10356TIP3    H152559   5.941   6.586  10.917 -0.1835  0.0725 -0.4377
10356TIP3    H252560   5.978   6.448  10.969  0.1978  0.3860  0.1323
10357TIP3   OH252561   3.611   4.360  16.902  0.2411 -0.2199  0.3393
10357TIP3    H152562   3.653   4.398  16.980  1.5031 -1.2467  0.1861
10357TIP3    H252563   3.671   4.291  16.874  1.2652  1.8244 -3.1580
10358TIP3   OH252564   4.550   2.205   3.865  0.3527 -0.0122 -0.3320
10358TIP3    H152565   4.605   2.176   3.793  0.1706 -1.4977  0.0905
10358TIP3    H252566   4.494   2.129   3.884 -1.4113  1.2287 -0.3353
10359TIP3   OH252567   2.799   2.058  12.544  0.2275  0.1720  0.5849
10359TIP3    H152568   2.721   2.113  12.550  0.0660  0.1964 -1.0899
10359TIP3    H252569   2.775   1.977  12.590  0.0528  1.0241  2.0413
10360TIP3   OH252570   0.264   3.538   5.047  0.4637  0.5934  0.4078
10360TIP3    H152571   0.224   3.560   4.962  0.8431  0.9317  0.3128
10360TIP3    H252572   0.236   3.608   5.105  0.3347  0.4462  0.5235
10361TIP3   OH252573   6.672   0.337   6.339 -0.2506 -0.1185  0.0659
10361TIP3    H152574   6.734   0.405   6.312  0.1625 -0.1406  0.9313
10361TIP3    H252575   6.717   0.255   6.319  0.2520 -0.1385  1.2082
10362TIP3   OH252576   4.254   5.278   4.842 -0.2027  0.4291  0.1011
10362TIP3    H152577   4.215   5.300   4.927 -1.5452  0.5574 -0.5244
10362TIP3    H252578   4.339   5.323   4.843 -0.1772  0.3980  1.3808
10363TIP3   OH252579   0.402   4.142   2.971  0.1763  0.4944  0.0599
10363TIP3    H152580   0.457   4.136   3.049 -0.2825  0.8805  0.4246
10363TIP3    H252581   0.393   4.236   2.956 -0.3129  0.4324 -0.0412
10364TIP3   OH252582   3.040   0.087  15.856 -0.4338 -0.6105 -0.2603
10364TIP3    H152583   3.121   0.126  15.887  0.2844 -0.2649 -2.4492
10364TIP3    H252584   3.003   0.152  15.796 -3.1477 -0.1002  1.7400
10365TIP3   OH252585   1.184   4.106   3.728 -0.0962 -0.4739  0.3434
10365TIP3    H152586   1.218   4.158   3.801  0.4007 -1.1982  0.6406
10365TIP3    H252587   1.227   4.141   3.650  1.3460 -1.3590  0.7051
10366TIP3   OH252588   0.869   0.062   2.762 -0.4493 -0.0579 -0.2369
10366TIP3    H152589   0.785   0.102   2.741 -0.7728 -0.7116 -0.2032
10366TIP3    H252590   0.934   0.126   2.733 -0.9251 -0.1803 -1.6336
10367TIP3   OH252591   0.311   1.408   3.725  0.7892  0.4367  0.3635
10367TIP3    H152592   0.348   1.468   3.790  2.2431  0.3109 -0.2988
10367TIP3    H252593   0.387   1.360   3.691 -0.1739 -0.8333 -0.0827
10368TIP3   OH252594   6.359   1.742  14.110 -0.0589  0.2054 -0.1114
10368TIP3    H152595   6.298   1.727  14.038 -1.3656  0.1875  0.9434
10368TIP3    H252596   6.309   1.718  14.189  1.7974 -1.2218  0.7142
10369TIP3   OH252597   3.398   2.154   2.301  0.5461 -0.7993  0.2527
10369TIP3    H152598   3.374   2.132   2.391  2.4168  0.1376  1.0353
10369TIP3    H252599   3.372   2.245   2.290 -0.9612 -1.3079 -0.6700
10370TIP3   OH252600   0.625   5.929   0.413 -0.0617  0.0086  0.5570
10370TIP3    H152601   0.627   5.957   0.322  0.2454  1.3967  0.9783
10370TIP3    H252602   0.534   5.938   0.440 -0.0797 -0.0331  0.5105
10371TIP3   OH252603   2.817   4.208   1.065  0.0912 -0.1798  0.3765
10371TIP3    H152604   2.900   4.227   1.109 -1.0799 -0.1101  2.7553
10371TIP3    H252605   2.790   4.291   1.026  2.0203 -0.6535 -2.2056
10372TIP3   OH252606   3.081   2.613   0.434  0.0678 -0.6648 -0.4895
10372TIP3    H152607   3.065   2.611   0.528 -0.9217 -0.4416 -0.6497
10372TIP3    H252608   3.130   2.694   0.420 -0.3500 -0.3728 -0.2560
10373TIP3   OH252609   1.783   0.925  12.007 -0.5803 -0.3843 -0.2967
10373TIP3    H152610   1.742   0.997  11.960 -1.2415 -1.3161 -1.2024
10373TIP3    H252611   1.876   0.947  12.009 -0.8333  0.6999 -0.1584
10374TIP3   OH252612   1.347   4.061  12.856  0.4614  0.2212  0.2846
10374TIP3    H152613   1.323   4.154  12.863  0.1605  0.2170 -0.5174
10374TIP3    H252614   1.376   4.051  12.765 -2.0013 -1.0104 -0.4635
10375TIP3   OH252615   1.602   1.624   0.600 -0.5783 -0.1767  0.2294
10375TIP3    H152616   1.569   1.664   0.520  0.1269 -0.1721 -0.0730
10375TIP3    H252617   1.588   1.530   0.587  3.1776 -0.6658 -1.7627
10376TIP3   OH252618   2.480   5.042  13.405  0.0674 -0.4841 -0.1467
10376TIP3    H152619   2.485   5.045  13.310  0.5275 -0.8746 -0.1353
10376TIP3    H252620   2.567   5.068  13.435  0.2810 -1.5200  0.1490
10377TIP3   OH252621   4.904   4.181  14.547 -0.7960 -0.3240 -0.0351
10377TIP3    H152622   4.903   4.257  14.605  0.9983 -0.8799  0.7904
10377TIP3    H252623   4.813   4.171  14.519 -1.3956  1.0023  1.3119
10378TIP3   OH252624   0.075   1.851  14.526 -0.1838 -0.0326  0.3549
10378TIP3    H152625   0.162   1.812  14.531  0.7054  1.7874 -0.0432
10378TIP3    H252626   0.076   1.920  14.593 -0.3559  1.7310 -1.3658
10379TIP3   OH252627   1.807   6.185   2.155  0.0810  0.4056 -0.2146
10379TIP3    H152628   1.816   6.259   2.095  1.5550 -0.2896 -0.9013
10379TIP3    H252629   1.818   6.108   2.099 -2.0864 -0.3982  0.3679
10380TIP3   OH252630   5.845   0.107  14.247  0.2336  0.7572 -0.1497
10380TIP3    H152631   5.902   0.034  14.272 -0.3613  0.6466  0.9607
10380TIP3    H252632   5.892   0.152  14.177  1.1188 -0.0396 -0.0840
10381TIP3   OH252633   0.482   2.225  13.549 -0.5447  0.3498  0.3020
10381TIP3    H152634   0.425   2.232  13.625 -0.1523  0.0980  0.6263
10381TIP3    H252635   0.464   2.139  13.512  0.9168 -0.5050  1.4818
10382TIP3   OH252636   5.063   6.081  12.970 -0.4684  0.2939  0.1484
10382TIP3    H152637   5.083   6.022  13.042  0.4351 -1.4158 -1.4028
10382TIP3    H252638   4.972   6.061  12.947 -0.5912  0.4735  0.4717
10383TIP3   OH252639   3.184   1.936  11.411 -0.1195  0.9538 -0.1036
10383TIP3    H152640   3.201   1.897  11.325  1.9730  1.7710 -0.1078
10383TIP3    H252641   3.174   2.029  11.393  0.5999  1.1657  0.5544
10384TIP3   OH252642   3.442   6.285  15.523 -0.3064 -0.3939 -0.2493
10384TIP3    H152643   3.530   6.320  15.537 -0.1807 -1.0166  0.5613
10384TIP3    H252644   3.408   6.336  15.449  1.0290 -0.6910 -1.1161
10385TIP3   OH252645   3.229   5.267   2.415  0.3831 -0.2903  0.1151
10385TIP3    H152646   3.199   5.192   2.364  1.3606 -1.3714  1.0644
10385TIP3    H252647   3.161   5.280   2.481 -0.3072  0.3661 -0.6951
10386TIP3   OH252648   0.765   6.570  13.996 -0.1174 -0.1292 -0.7242
10386TIP3    H152649   0.754   6.486  14.039  1.0820 -0.3709 -0.8568
10386TIP3    H252650   0.762   6.550  13.903 -1.4224  0.2183 -0.7872
10387TIP3   OH252651   2.034   2.483  14.002  0.0743  0.2622  0.4902
10387TIP3    H152652   1.939   2.481  13.996  0.0327  0.0639  1.2028
10387TIP3    H252653   2.053   2.482  14.095  0.7832  0.1162  0.3520
10388TIP3   OH252654   1.863   6.493   3.770 -0.1358 -0.1732 -0.1046
10388TIP3    H152655   1.813   6.575   3.779 -2.1536 -1.3571  0.1286
10388TIP3    H252656   1.825   6.435   3.836 -0.4267 -2.0702 -1.8341
10389TIP3   OH252657   1.149   6.539  11.404  0.4387  0.3702 -0.2967
10389TIP3    H152658   1.060   6.506  11.412  0.2104  1.4597  2.8152
10389TIP3    H252659   1.203   6.460  11.400 -0.4754 -0.3378  0.8920
10390TIP3   OH252660   5.339   2.167   0.361  0.1246  0.0535  0.1386
10390TIP3    H152661   5.414   2.134   0.411 -0.5906 -2.2644 -0.2024
10390TIP3    H252662   5.346   2.123   0.276 -2.3094 -1.2484  0.5337
10391TIP3   OH252663   2.647   1.424   3.599  0.1775  0.4849 -0.1945
10391TIP3    H152664   2.659   1.408   3.693 -0.2030 -0.5608 -0.3034
10391TIP3    H252665   2.736   1.438   3.565  0.3398  0.6160  0.2783
10392TIP3   OH252666   5.552   5.942   3.470  0.3791 -0.1336  0.4302
10392TIP3    H152667   5.646   5.926   3.472  0.2527 -1.2140  3.6019
10392TIP3    H252668   5.542   6.031   3.502  0.3275 -0.0763  0.2538
10393TIP3   OH252669   5.192   5.146  14.755 -0.4374  0.4072  0.4214
10393TIP3    H152670   5.253   5.095  14.702 -0.5833 -0.1092  0.7455
10393TIP3    H252671   5.134   5.187  14.691  0.4116  1.1333  0.0896
10394TIP3   OH252672   0.600   3.328   3.113  0.4242  0.5212 -0.0229
10394TIP3    H152673   0.643   3.363   3.034  0.0893  2.0554  0.4495
10394TIP3    H252674   0.667   3.334   3.181  0.5605 -0.3690 -0.0648
10395TIP3   OH252675   4.825   6.356  12.218 -0.0190  0.3507  0.0546
10395TIP3    H152676   4.774   6.430  12.186  0.1269 -0.2793 -1.7271
10395TIP3    H252677   4.895   6.396  12.269  0.3495  1.5002 -1.2782
10396TIP3   OH252678   4.382   3.560   1.206 -0.5257  0.3194 -0.2897
10396TIP3    H152679   4.360   3.469   1.225 -0.5120  0.3665 -0.0371
10396TIP3    H252680   4.477   3.560   1.193 -0.3855  0.4455  0.6370
10397TIP3   OH252681   3.925   0.364   2.306 -0.4224  0.0374 -0.1304
10397TIP3    H152682   3.950   0.325   2.389  1.7372  0.3975 -0.5577
10397TIP3    H252683   3.874   0.296   2.261 -0.3968 -0.6750  0.8953
10398TIP3   OH252684   6.734   1.789  14.992 -1.0334  0.1427 -0.1203
10398TIP3    H152685   6.688   1.838  14.924  0.2313  1.4508 -0.0743
10398TIP3    H252686   6.767   1.856  15.052 -0.5450 -0.8691  0.7694
10399TIP3   OH252687   0.005   1.119   1.506  0.4669  0.0446 -0.4465
10399TIP3    H152688  -0.066   1.171   1.543 -0.7594 -1.9238  0.0879
10399TIP3    H252689   0.022   1.159   1.421 -1.1148  0.7229 -0.4774
10400TIP3   OH252690   0.198   5.947   6.139  0.2880  0.1476 -0.0986
10400TIP3    H152691   0.231   6.009   6.204 -1.4459  0.9421  0.0720
10400TIP3    H252692   0.258   5.957   6.065  1.4958  0.2025  0.8358
10401TIP3   OH252693   5.414   1.472  11.194  0.4399 -0.4458  0.9600
10401TIP3    H152694   5.392   1.381  11.171 -1.3246 -0.2190  1.5845
10401TIP3    H252695   5.347   1.497  11.257 -0.1917  1.8653 -0.5301
10402TIP3   OH252696   5.450   6.403  11.379 -0.1404  0.0881 -0.2410
10402TIP3    H152697   5.444   6.470  11.447 -1.6537  0.2477 -0.4924
10402TIP3    H252698   5.464   6.452  11.298  1.8368 -0.1102 -0.0729
10403TIP3   OH252699   1.445   3.322  13.373 -0.1926 -0.2829  0.3882
10403TIP3    H152700   1.524   3.324  13.427  1.7782 -1.4468 -2.2184
10403TIP3    H252701   1.430   3.229  13.355 -1.3083  0.0156 -0.3307
10404TIP3   OH252702   6.611   5.922   2.591 -0.0416  0.7112 -0.2701
10404TIP3    H152703   6.601   5.899   2.683 -1.1291  2.4769  0.0926
10404TIP3    H252704   6.656   6.006   2.592  2.4997 -0.5099 -1.4950
10405TIP3   OH252705   2.769   5.410   6.476 -0.0049 -0.3571  0.2311
10405TIP3    H152706   2.677   5.410   6.504 -0.3633  0.6467 -0.8694
10405TIP3    H252707   2.795   5.502   6.480  0.2389 -0.3062 -1.6261
10406TIP3   OH252708   1.439   1.593   1.763  0.5546  0.4359  0.6082
10406TIP3    H152709   1.418   1.639   1.844 -1.6731  1.4936 -0.4862
10406TIP3    H252710   1.418   1.655   1.693  1.0064 -0.9439 -0.8255
10407TIP3   OH252711   6.493   1.442   2.145 -0.1894  0.4047 -0.3744
10407TIP3    H152712   6.405   1.456   2.112 -0.2610  1.7540  0.3007
10407TIP3    H252713   6.485   1.368   2.205 -1.1448  1.3099  0.6518
10408TIP3   OH252714   3.144   0.354  10.998 -0.2378 -0.1154  0.5179
10408TIP3    H152715   3.100   0.371  10.914  1.2207  1.6944  0.0269
10408TIP3    H252716   3.179   0.266  10.989 -0.8977 -0.3033 -0.4158
10409TIP3   OH252717   6.614   6.420   6.555  0.3950 -0.0081 -0.3829
10409TIP3    H152718   6.565   6.483   6.607  1.4444  1.0161 -0.5936
10409TIP3    H252719   6.617   6.341   6.609 -0.3241  0.3453  0.1840
10410TIP3   OH252720   2.838   2.168  17.166  0.2545 -0.0288 -0.1549
10410TIP3    H152721   2.760   2.161  17.221  1.9262  0.7614  2.4966
10410TIP3    H252722   2.859   2.077  17.143 -1.1184 -0.2848 -0.4911
10411TIP3   OH252723   1.463   3.117   4.621  0.0305 -0.3480 -0.4357
10411TIP3    H152724   1.518   3.085   4.693 -1.7246 -1.0184  0.6644
10411TIP3    H252725   1.502   3.201   4.597  1.0424 -0.4126  0.8755
10412TIP3   OH252726   4.034   1.227   6.209 -0.2070  0.1322  0.0786
10412TIP3    H152727   4.128   1.214   6.218 -0.1700  0.6520  0.5251
10412TIP3    H252728   3.995   1.148   6.246  0.0488  0.1231  0.3287
10413TIP3   OH252729   1.822   4.244  11.523  0.0352 -0.1865 -0.0554
10413TIP3    H152730   1.740   4.289  11.545  0.8186  1.5712 -0.5602
10413TIP3    H252731   1.880   4.263  11.596 -0.4527 -2.8493  1.1398
10414TIP3   OH252732   3.917   1.289   5.976  0.3462 -0.1195 -0.5769
10414TIP3    H152733   3.936   1.260   6.065 -1.2354 -1.5921 -0.6711
10414TIP3    H252734   3.884   1.378   5.987 -0.2979 -0.4600  0.3782
10415TIP3   OH252735   6.063   3.860  12.288 -0.2070  0.4911  0.5086
10415TIP3    H152736   6.149   3.900  12.275  0.2927 -0.5536  0.4494
10415TIP3    H252737   6.031   3.844  12.199  0.7925 -1.6398  0.4517
10416TIP3   OH252738   0.538   5.176  11.745  0.2925 -0.2214  0.1173
10416TIP3    H152739   0.515   5.243  11.681 -0.8109 -1.1142 -0.4646
10416TIP3    H252740   0.535   5.094  11.696  1.0018 -0.7679  0.9529
10417TIP3   OH252741   0.240   3.518  16.099  0.9195  0.1101  0.0778
10417TIP3    H152742   0.193   3.469  16.166  0.8407 -1.1447 -0.8582
10417TIP3    H252743   0.325   3.536  16.138  0.6899 -0.1362  0.7056
10418TIP3   OH252744   2.098   0.444  16.332  0.0592  0.2097  0.3780
10418TIP3    H152745   2.103   0.506  16.259  1.1222  1.5881  1.5662
10418TIP3    H252746   2.016   0.465  16.376 -0.4089 -0.3880 -0.1823
10419TIP3   OH252747   1.911   1.824   1.509  0.5507  0.0385 -0.0478
10419TIP3    H152748   1.874   1.737   1.522  1.0490 -0.2268 -0.3657
10419TIP3    H252749   1.894   1.844   1.417 -2.3367  1.6080  0.6979
10420TIP3   OH252750   2.188   0.407   5.089  0.1140  0.1143  0.0506
10420TIP3    H152751   2.180   0.462   5.167  2.2794  0.5689  0.0131
10420TIP3    H252752   2.239   0.460   5.028 -0.0751 -0.9055 -1.0144
10421TIP3   OH252753   0.924   2.278  13.118  0.4074 -0.3049  0.1719
10421TIP3    H152754   0.975   2.344  13.070  0.4306  1.6327  2.6324
10421TIP3    H252755   0.990   2.226  13.163  0.3371 -1.2151 -0.7485
10422TIP3   OH252756   0.030   6.807   1.293 -0.1844  0.1646 -0.2374
10422TIP3    H152757  -0.047   6.753   1.277 -0.8197  1.0289 -0.1883
10422TIP3    H252758   0.001   6.896   1.274  0.6369  0.5748  0.3496
10423TIP3   OH252759   0.094   3.021  11.418 -0.2388  0.1621 -0.1029
10423TIP3    H152760   0.103   3.056  11.507 -0.2755  1.4245 -0.5740
10423TIP3    H252761   0.070   2.930  11.431 -0.7350  0.4459  1.1943
10424TIP3   OH252762   5.096   2.628  13.126  0.5951  0.1481  0.0148
10424TIP3    H152763   5.065   2.616  13.216  0.7038  2.3561  0.3880
10424TIP3    H252764   5.031   2.684  13.085  0.9706 -0.1773 -1.0656
10425TIP3   OH252765   4.493   0.849   5.097  0.6056 -0.0808 -0.1872
10425TIP3    H152766   4.554   0.919   5.073  0.3067  0.7469  1.3194
10425TIP3    H252767   4.459   0.817   5.014  2.5345 -0.0790 -1.0257
10426TIP3   OH252768   3.630   5.295   5.047 -0.0329  0.0248  0.3458
10426TIP3    H152769   3.593   5.332   5.127 -1.4802 -0.8306  0.1185
10426TIP3    H252770   3.580   5.215   5.033  1.8004 -1.0840 -0.1440
10427TIP3   OH252771   5.733   0.214  15.447 -0.4419 -0.3319  0.2772
10427TIP3    H152772   5.789   0.287  15.419 -3.0430  1.1297 -1.5967
10427TIP3    H252773   5.735   0.152  15.374 -0.8822 -0.4693  0.3769
10428TIP3   OH252774   6.529   0.226  11.696 -0.3835  0.2102 -0.7316
10428TIP3    H152775   6.612   0.217  11.744 -0.3022  0.1470 -0.8830
10428TIP3    H252776   6.555   0.237  11.605 -0.5128  1.0989 -0.6663
10429TIP3   OH252777   2.153   4.826   1.360 -0.5538 -0.0621  0.2089
10429TIP3    H152778   2.124   4.788   1.278 -0.7860 -0.2947  0.3983
10429TIP3    H252779   2.126   4.918   1.354  0.2598  0.1446 -0.3649
10430TIP3   OH252780   0.688   5.508  14.719  0.4070 -0.3406  0.1203
10430TIP3    H152781   0.697   5.572  14.649  2.8513 -1.4683 -0.7122
10430TIP3    H252782   0.647   5.432  14.677  1.0589 -0.7004  0.1329
10431TIP3   OH252783   5.177   4.802   1.640 -0.0246 -0.0887  0.1049
10431TIP3    H152784   5.200   4.720   1.684  0.1015 -0.4908 -0.6756
10431TIP3    H252785   5.255   4.823   1.588 -0.7512 -0.5600 -1.2554
10432TIP3   OH252786   4.027   2.689   5.571 -0.1917  0.7995  0.0801
10432TIP3    H152787   3.939   2.663   5.599 -0.1023  0.5601  0.1435
10432TIP3    H252788   4.013   2.745   5.495 -0.4722  1.8673  0.8815
10433TIP3   OH252789   0.417   4.390   3.139  0.2249  0.6292 -0.8037
10433TIP3    H152790   0.468   4.390   3.221  1.6639 -0.3591 -1.6550
10433TIP3    H252791   0.350   4.324   3.153  1.8003 -1.1322 -1.1525
10434TIP3   OH252792   5.499   2.972  16.130 -0.0051  0.5480 -0.2478
10434TIP3    H152793   5.442   2.914  16.079  0.3733  0.4525 -0.5714
10434TIP3    H252794   5.449   3.052  16.140 -0.0901  0.5658 -0.7691
10435TIP3   OH252795   4.968   1.343  15.333  0.0057  0.0583  0.1753
10435TIP3    H152796   4.980   1.433  15.303 -2.4822  0.3123 -0.2395
10435TIP3    H252797   4.935   1.351  15.422  2.2823 -0.5716  1.1455
10436TIP3   OH252798   5.293   1.120  12.102 -0.1468  0.4789 -0.4920
10436TIP3    H152799   5.277   1.161  12.187  0.3642 -1.1323  0.4237
10436TIP3    H252800   5.284   1.026  12.119  1.4453  0.0386 -1.8761
10437TIP3   OH252801   4.682   4.480   0.523 -0.1206  0.5722 -0.0694
10437TIP3    H152802   4.618   4.430   0.573  0.1754  0.2954  0.0326
10437TIP3    H252803   4.753   4.498   0.584  0.7936 -0.7800 -0.6712
10438TIP3   OH252804   4.997   1.007   6.580  0.1267  0.4158  0.2273
10438TIP3    H152805   5.069   1.057   6.542 -0.8901  2.4995  0.8682
10438TIP3    H252806   4.931   1.002   6.511 -1.0991  2.8896  1.1066
10439TIP3   OH252807   6.174   3.343   5.140 -0.2595  0.1089 -0.0656
10439TIP3    H152808   6.179   3.420   5.197 -0.9052  0.5985 -0.6505
10439TIP3    H252809   6.158   3.270   5.200 -0.6430  0.5757  0.4098
10440TIP3   OH252810   4.084   0.422  11.995 -0.4885 -0.2830 -0.2700
10440TIP3    H152811   4.170   0.460  12.016 -0.9959  1.2599 -0.8746
10440TIP3    H252812   4.102   0.330  11.978  0.9647 -0.0983  0.1391
10441TIP3   OH252813   6.355   3.271   2.644  0.2061 -0.2748  0.2701
10441TIP3    H152814   6.413   3.284   2.719  1.7942 -0.8439 -0.8081
10441TIP3    H252815   6.359   3.353   2.595 -1.8325  0.5845  1.3827
10442TIP3   OH252816   6.066   6.805  10.711 -0.1160  0.0026 -0.5570
10442TIP3    H152817   6.016   6.812  10.792 -0.1400 -0.0182 -0.5700
10442TIP3    H252818   6.042   6.719  10.675  1.2132 -0.7713  0.3041
10443TIP3   OH252819   3.641   5.610   2.266 -0.3745  0.3954  0.0465
10443TIP3    H152820   3.683   5.691   2.235  2.2902 -0.5834  0.8139
10443TIP3    H252821   3.571   5.594   2.202 -1.1435  3.3502 -0.0317
10444TIP3   OH252822   0.962   2.561   5.075  0.0547 -0.3087 -0.1482
10444TIP3    H152823   1.021   2.486   5.069 -0.5180 -0.9435  1.4432
10444TIP3    H252824   0.999   2.616   5.144 -0.6186 -0.1519  0.0962
10445TIP3   OH252825   5.061   2.150   5.271  0.9067 -0.0765  0.4352
10445TIP3    H152826   5.109   2.144   5.354  0.3293  2.2673  1.0103
10445TIP3    H252827   5.103   2.223   5.224 -1.1914  1.1933  0.3995
10446TIP3   OH252828   3.700   0.784   4.228  0.1322 -0.0899 -0.0620
10446TIP3    H152829   3.726   0.761   4.317  0.6734  1.7904  0.3094
10446TIP3    H252830   3.732   0.712   4.174 -0.0481 -1.1721  1.2355
10447TIP3   OH252831   5.826   4.641   1.358  0.2314 -0.7288 -0.3045
10447TIP3    H152832   5.910   4.664   1.396 -0.3821 -0.3952  0.9008
10447TIP3    H252833   5.823   4.545   1.361  0.5923 -0.7419 -0.4066
10448TIP3   OH252834   2.770   4.711   6.327  0.7063  0.2543 -0.3289
10448TIP3    H152835   2.865   4.700   6.325  0.5891 -1.2724  0.5386
10448TIP3    H252836   2.743   4.670   6.410 -0.6973  0.7320 -0.5242
10449TIP3   OH252837   0.944   4.270  15.371 -0.2486 -0.0032 -0.5395
10449TIP3    H152838   0.925   4.229  15.455  1.9574  0.0211  0.0186
10449TIP3    H252839   0.858   4.301  15.340 -1.4783 -2.1212  0.5238
10450TIP3   OH252840   3.923   0.024   0.283 -0.4131  0.1641  0.1939
10450TIP3    H152841   3.854   0.039   0.218  0.1436 -0.4214 -0.5432
10450TIP3    H252842   3.891  -0.050   0.335 -0.3541 -0.0812 -0.1220
10451TIP3   OH252843   2.099   0.175   1.507  0.3171 -0.1367  0.1408
10451TIP3    H152844   2.091   0.265   1.539  0.8658  0.2523 -0.7821
10451TIP3    H252845   2.190   0.152   1.524  0.7719  0.2700 -1.5730
10452TIP3   OH252846   0.057   0.801  16.176  0.4000 -0.3152 -0.2692
10452TIP3    H152847   0.002   0.877  16.154 -0.3912 -0.5586  0.8226
10452TIP3    H252848   0.033   0.735  16.111  0.3150 -0.0022 -0.5635
10453TIP3   OH252849   4.529   0.816  14.877  0.4361  0.1133 -0.6396
10453TIP3    H152850   4.615   0.812  14.919  0.0339 -2.1096  0.1137
10453TIP3    H252851   4.510   0.910  14.870  2.3068  0.6273  0.4377
10454TIP3   OH252852   0.449   5.899  12.644 -0.1350  0.7151  0.2615
10454TIP3    H152853   0.368   5.851  12.660 -0.4823  0.9007 -0.8400
10454TIP3    H252854   0.454   5.963  12.715  0.0375 -0.5444  1.4220
10455TIP3   OH252855   3.939   2.616  15.492  0.0684  0.6179  0.2995
10455TIP3    H152856   3.959   2.700  15.451  1.6969  0.7616  1.3303
10455TIP3    H252857   4.024   2.575  15.507 -0.6291 -0.6272  1.0279
10456TIP3   OH252858   5.404   5.905   5.298  0.8481 -0.1061  0.3005
10456TIP3    H152859   5.495   5.912   5.268  1.2931  0.2173  1.6555
10456TIP3    H252860   5.402   5.953   5.380 -0.2307 -1.2377  0.9733
10457TIP3   OH252861   2.966   0.654   6.614  0.9883  0.1473 -0.1767
10457TIP3    H152862   3.036   0.716   6.634  0.7326  0.2338  0.4905
10457TIP3    H252863   2.886   0.702   6.633  0.7689 -0.1744 -0.2897
10458TIP3   OH252864   0.232   2.563  14.204  0.0221  0.2204  0.1082
10458TIP3    H152865   0.297   2.496  14.183 -0.8379 -0.5719 -0.0839
10458TIP3    H252866   0.247   2.632  14.139  1.1967  0.4225  0.5765
10459TIP3   OH252867   4.882   2.197   3.466 -0.6216  0.4640 -0.0959
10459TIP3    H152868   4.836   2.166   3.544  0.8183 -0.4050  0.4544
10459TIP3    H252869   4.970   2.216   3.496  0.6030 -1.8721 -1.8334
10460TIP3   OH252870   1.032   1.889   6.263 -0.9712 -0.6978 -0.3730
10460TIP3    H152871   1.126   1.895   6.278 -0.7386 -3.1099 -0.4723
10460TIP3    H252872   0.997   1.972   6.296  0.8464 -0.9914  2.6593
10461TIP3   OH252873   4.477   6.280  12.115  0.5328  0.3148 -0.3626
10461TIP3    H152874   4.481   6.368  12.152 -0.7723 -0.2883  1.3846
10461TIP3    H252875   4.557   6.271  12.064 -0.3610  3.3113 -2.5526
10462TIP3   OH252876   0.722   4.291   2.280 -0.0347  0.0885 -0.2699
10462TIP3    H152877   0.774   4.344   2.218  0.0227  1.2471  0.7375
10462TIP3    H252878   0.660   4.245   2.224  1.1782 -0.2815 -1.3770
10463TIP3   OH252879   2.470   4.511  13.776  0.4772 -0.3656  0.2490
10463TIP3    H152880   2.453   4.494  13.684 -0.0964  0.3350  0.2179
10463TIP3    H252881   2.384   4.523  13.815  0.6550 -1.5920  1.0748
10464TIP3   OH252882   6.458   2.682  11.425 -0.4827  0.0040  0.1181
10464TIP3    H152883   6.463   2.601  11.375 -1.1576  0.1200 -0.1410
10464TIP3    H252884   6.366   2.708  11.421 -0.0206  1.5999 -1.1044
10465TIP3   OH252885   6.585   6.362  12.114 -0.5377 -0.1840 -0.1676
10465TIP3    H152886   6.535   6.436  12.148  0.3809 -0.4221  1.8008
10465TIP3    H252887   6.520   6.308  12.068 -1.2368  1.7670 -1.6312
10466TIP3   OH252888   2.926   5.216  13.946 -0.3630 -0.0309 -0.3499
10466TIP3    H152889   2.875   5.135  13.948 -0.8507  0.2927  0.4731
10466TIP3    H252890   2.871   5.278  13.898  0.3330 -0.3821 -1.6577
10467TIP3   OH252891   3.622   3.003  16.038 -0.2243  0.2263 -0.0861
10467TIP3    H152892   3.570   2.973  16.113  1.5857 -0.6973  0.8831
10467TIP3    H252893   3.587   3.090  16.018 -2.3546 -0.4885  0.2460
10468TIP3   OH252894   1.689   0.601  11.401 -0.3504  0.0032 -0.0855
10468TIP3    H152895   1.660   0.581  11.490 -0.0630  0.1677  0.0501
10468TIP3    H252896   1.620   0.655  11.364 -1.2259 -1.3553 -0.5213
10469TIP3   OH252897   5.035   5.549   2.637  0.0799 -0.2323  0.2376
10469TIP3    H152898   5.115   5.591   2.669 -0.7480  1.4318  0.2349
10469TIP3    H252899   4.987   5.525   2.716 -0.1112  0.1841  0.2522
10470TIP3   OH252900   2.852   5.332   1.519  0.2885 -0.1260  0.1666
10470TIP3    H152901   2.938   5.338   1.560  0.7830  2.8818 -0.9752
10470TIP3    H252902   2.849   5.408   1.461 -3.4434  0.3247  0.7189
10471TIP3   OH252903   0.950   5.145   3.032  0.5016 -0.3764 -0.6290
10471TIP3    H152904   1.021   5.084   3.054  1.0308  0.3693 -0.2267
10471TIP3    H252905   0.944   5.203   3.108 -0.9507 -0.7884 -0.3896
10472TIP3   OH252906   5.500   3.661   1.610  0.1357  0.1776 -0.1222
10472TIP3    H152907   5.443   3.597   1.653 -1.4826  1.1998 -0.6388
10472TIP3    H252908   5.440   3.730   1.582  1.9403  2.6405  1.6676
10473TIP3   OH252909   3.389   1.020   1.997  0.5192 -0.2517  0.0538
10473TIP3    H152910   3.305   0.985   1.968  0.3482  1.1612 -1.3291
10473TIP3    H252911   3.370   1.111   2.018  1.9163  0.4734 -1.5673
10474TIP3   OH252912   4.745   2.644   1.230 -0.4500  0.6458 -0.1319
10474TIP3    H152913   4.734   2.735   1.259  1.2310  0.6649  0.5779
10474TIP3    H252914   4.840   2.632   1.227 -0.6523 -1.3046  0.4149
10475TIP3   OH252915   3.171   5.388  13.748 -0.2883 -0.3635 -0.2488
10475TIP3    H152916   3.154   5.415  13.839 -1.1802 -0.5895 -0.3415
10475TIP3    H252917   3.266   5.396  13.739 -0.1791 -0.3790  0.7163
10476TIP3   OH252918   5.964   6.674   2.908  0.0425  0.1332  0.2664
10476TIP3    H152919   5.978   6.579   2.918  1.6149  0.3273  0.1308
10476TIP3    H252920   5.977   6.690   2.815 -1.6973  0.2825  0.0272
10477TIP3   OH252921   4.340   1.286   0.269  0.3377  0.9094 -0.2726
10477TIP3    H152922   4.398   1.277   0.193  1.9171 -0.2583  0.9865
10477TIP3    H252923   4.356   1.207   0.321 -0.9016  1.5321  1.1415
10478TIP3   OH252924   5.524   4.704   3.120 -0.0942 -0.3695  0.6402
10478TIP3    H152925   5.476   4.743   3.047 -1.1015 -1.9947  0.3750
10478TIP3    H252926   5.474   4.626   3.143  2.1221 -1.8875  0.6918
10479TIP3   OH252927   2.419   0.789  10.920  0.0239 -0.5760  0.1061
10479TIP3    H152928   2.406   0.715  10.861  1.0937  0.6255 -1.7309
10479TIP3    H252929   2.366   0.768  10.998 -2.8453 -1.4737 -1.9215
10480TIP3   OH252930   4.462   0.601   0.736 -0.4107 -0.2337 -0.1467
10480TIP3    H152931   4.442   0.520   0.781  0.6519 -0.2631  0.3142
10480TIP3    H252932   4.447   0.582   0.643 -0.0770 -0.9887 -0.0524
10481TIP3   OH252933   2.884   0.394  12.934 -0.1835  0.2707 -1.1346
10481TIP3    H152934   2.838   0.377  13.017 -0.6437  0.8243 -1.2679
10481TIP3    H252935   2.833   0.346  12.868  0.4626 -0.5748 -1.0447
10482TIP3   OH252936   3.705   0.092  13.694 -0.1550 -0.5558  0.3494
10482TIP3    H152937   3.685   0.023  13.630 -0.1693 -0.9654  0.7839
10482TIP3    H252938   3.691   0.050  13.779 -1.2345  0.3146  0.6193
10483TIP3   OH252939   1.255   1.904   2.947 -0.4078  0.3172  0.2385
10483TIP3    H152940   1.256   1.999   2.961 -1.7750  0.0657  2.5170
10483TIP3    H252941   1.198   1.870   3.017  0.4440 -2.2414 -0.2170
10484TIP3   OH252942   6.001   0.971  13.785  0.0300 -0.5403 -0.1438
10484TIP3    H152943   5.909   0.971  13.810  0.5183  0.6409  1.8449
10484TIP3    H252944   6.033   0.885  13.810 -0.2410 -0.4929  0.3833
10485TIP3   OH252945   3.694   2.878  12.613  0.1502  0.4657 -0.2097
10485TIP3    H152946   3.747   2.801  12.637 -0.2024  0.2857  0.0019
10485TIP3    H252947   3.623   2.842  12.560 -0.9740  0.3861  1.2512
10486TIP3   OH252948   3.797   4.107   2.041 -0.2382 -0.1146 -0.0573
10486TIP3    H152949   3.824   4.056   2.118 -0.3029  0.1747  0.1576
10486TIP3    H252950   3.716   4.065   2.012 -0.5992  0.2173  0.4643
10487TIP3   OH252951   1.870   6.455   3.451  0.0471  0.1542  0.6770
10487TIP3    H152952   1.805   6.513   3.411  0.8678  0.3328 -0.4314
10487TIP3    H252953   1.827   6.422   3.530 -0.6645  1.7936  1.0228
10488TIP3   OH252954   6.410   4.605   1.150 -0.1119 -0.6713  0.1622
10488TIP3    H152955   6.420   4.510   1.156  0.8478 -0.5099  1.5560
10488TIP3    H252956   6.497   4.636   1.127 -0.3195 -0.0895  0.1572
10489TIP3   OH252957   1.838   4.031   1.875 -0.4381  0.1291  0.5259
10489TIP3    H152958   1.783   3.974   1.928  0.0807 -2.4910 -1.5562
10489TIP3    H252959   1.779   4.102   1.847 -1.9961 -1.0527  0.6717
10490TIP3   OH252960   4.297   6.430  11.053  0.3485 -0.4343  0.0336
10490TIP3    H152961   4.355   6.364  11.090 -1.0435 -0.5597  2.1877
10490TIP3    H252962   4.235   6.381  11.000 -0.7645 -0.9387  1.7385
10491TIP3   OH252963   5.301   0.975  16.144  0.7859 -0.1933  0.0484
10491TIP3    H152964   5.265   1.057  16.111 -0.2422  0.4815  2.6077
10491TIP3    H252965   5.229   0.912  16.135  1.0234 -0.4050 -0.3978
10492TIP3   OH252966   3.800   1.034  13.040 -0.0279 -0.0651  0.1110
10492TIP3    H152967   3.785   1.042  13.134 -1.1908 -0.3070 -0.0441
10492TIP3    H252968   3.793   0.940  13.023 -0.1564  0.0123 -0.2665
10493TIP3   OH252969   1.545   0.075  13.028  0.0932  0.4049 -0.4882
10493TIP3    H152970   1.474   0.042  12.971 -0.1536 -0.3241  0.2201
10493TIP3    H252971   1.503   0.140  13.084 -0.3004 -0.8219  0.6929
10494TIP3   OH252972   0.565   0.919  14.054 -0.1759  0.2483 -0.1207
10494TIP3    H152973   0.577   0.834  14.095 -1.0243  0.4318  0.5354
10494TIP3    H252974   0.481   0.950  14.087 -0.4134  0.8437 -1.2457
10495TIP3   OH252975   5.799   0.842   0.542 -0.2040  0.0411 -0.9855
10495TIP3    H152976   5.792   0.748   0.529 -0.6543  0.0682 -0.9372
10495TIP3    H252977   5.719   0.878   0.504 -0.0279  0.4082 -1.0179
10496TIP3   OH252978   6.143   2.830   6.315  0.2553 -0.0667  0.7056
10496TIP3    H152979   6.066   2.784   6.282 -0.2290  1.2689 -0.0937
10496TIP3    H252980   6.130   2.835   6.410 -1.3228  1.3320  0.4412
10497TIP3   OH252981   6.681   3.887   6.086  0.3598  0.6837 -0.2577
10497TIP3    H152982   6.703   3.851   6.172 -1.2241  2.3878  0.9354
10497TIP3    H252983   6.754   3.945   6.065  0.7640  0.2476 -0.0864
10498TIP3   OH252984   5.407   0.822  13.783 -0.6551 -0.0240 -0.3326
10498TIP3    H152985   5.313   0.839  13.794 -0.8806 -1.1418 -0.3315
10498TIP3    H252986   5.417   0.806  13.689  0.0309  2.6938 -0.7816
10499TIP3   OH252987   2.837   1.027  13.271 -0.1970  0.2031 -0.2913
10499TIP3    H152988   2.804   1.021  13.182 -1.1385  1.5020 -0.0617
10499TIP3    H252989   2.910   1.089  13.266  0.9077 -1.0586 -0.4307
10500TIP3   OH252990   3.817   4.550  15.580 -0.1956  0.5728  0.2238
10500TIP3    H152991   3.900   4.519  15.544 -0.4306 -0.8561  0.8497
10500TIP3    H252992   3.835   4.640  15.608  0.4530  1.1589 -1.8762
10501TIP3   OH252993   1.753   4.025   6.062  0.0384 -0.0705 -0.5175
10501TIP3    H152994   1.723   4.105   6.018 -0.5131  0.1347  0.2209
10501TIP3    H252995   1.677   3.994   6.111  0.6643 -0.2420  0.3735
10502TIP3   OH252996   1.899   4.602   1.440  0.1975 -0.1229 -0.4159
10502TIP3    H152997   1.809   4.586   1.413  0.3036  0.6860 -1.2969
10502TIP3    H252998   1.952   4.584   1.361  0.8586 -0.9554  0.1882
10503TIP3   OH252999   1.681   6.612   2.532 -0.1550  0.1782 -0.2741
10503TIP3    H153000   1.720   6.656   2.456 -0.0560  1.4897  0.5053
10503TIP3    H253001   1.594   6.585   2.502 -0.2661  1.0253 -0.7363
10504TIP3   OH253002   4.241   4.043   0.891 -0.2277  0.1214  0.3435
10504TIP3    H153003   4.168   3.992   0.855  0.3116 -0.1017 -0.4467
10504TIP3    H253004   4.199   4.105   0.951 -1.3493  1.5363 -1.7838
10505TIP3   OH253005   5.101   1.498  14.220 -0.2541 -0.2729  0.2448
10505TIP3    H153006   5.154   1.568  14.259  1.1122 -1.4460  0.5641
10505TIP3    H253007   5.055   1.459  14.293  0.9041 -1.2853  0.4713
10506TIP3   OH253008   0.608   4.577  13.223  0.3181  0.2068 -0.0247
10506TIP3    H153009   0.630   4.503  13.280 -0.7725 -0.9872 -1.0949
10506TIP3    H253010   0.606   4.653  13.282  2.0178 -0.4838  1.0099
10507TIP3   OH253011   3.564   6.755  15.514 -0.1542  0.3402 -0.3059
10507TIP3    H153012   3.621   6.807  15.571 -1.5851  2.0078 -0.3357
10507TIP3    H253013   3.490   6.731  15.570  0.7404 -2.2948 -0.1046
10508TIP3   OH253014   1.542   4.799   3.192  0.0729  0.0087 -0.4190
10508TIP3    H153015   1.619   4.804   3.136 -1.5083 -0.3200 -2.7969
10508TIP3    H253016   1.486   4.872   3.162 -1.2120 -0.7117  0.1291
10509TIP3   OH253017   6.297   2.433  16.202  0.0860  0.0604 -0.4687
10509TIP3    H153018   6.238   2.419  16.128  0.2235  1.4968 -0.8793
10509TIP3    H253019   6.265   2.513  16.244 -0.3504 -1.0176  1.4209
10510TIP3   OH253020   4.816   5.132   3.997  0.1857 -0.6224  0.4106
10510TIP3    H153021   4.854   5.046   4.017  1.1035 -0.1875  0.6158
10510TIP3    H253022   4.859   5.191   4.060  0.4174  0.1717 -0.4796
10511TIP3   OH253023   3.783   3.151  17.155 -0.2784  0.3051  0.1727
10511TIP3    H153024   3.737   3.210  17.215 -0.3716  0.0249  0.3761
10511TIP3    H253025   3.862   3.125  17.202  0.6492  1.6200 -0.5796
10512TIP3   OH253026   4.694   1.470  14.307 -0.1951  0.9368 -0.4309
10512TIP3    H153027   4.754   1.534  14.270  2.3546 -1.5817 -1.0286
10512TIP3    H253028   4.627   1.458  14.239 -0.5230  2.5909 -0.4526
10513TIP3   OH253029   4.482   5.478   2.080 -0.5122  0.5424 -0.0663
10513TIP3    H153030   4.485   5.572   2.063  0.3380  0.2073 -2.0744
10513TIP3    H253031   4.558   5.443   2.033 -0.4984 -1.0923  1.0973
10514TIP3   OH253032   4.094   0.345   3.451 -0.1982 -0.4420 -0.4675
10514TIP3    H153033   4.059   0.426   3.487 -0.5708 -0.3334 -1.0682
10514TIP3    H253034   4.072   0.278   3.515  0.3523 -0.0330  0.1688
10515TIP3   OH253035   5.086   0.347  13.592  0.0513 -0.4114  0.1660
10515TIP3    H153036   5.050   0.261  13.570 -0.9604 -0.0746  0.4526
10515TIP3    H253037   5.032   0.408  13.542  0.2361  0.1069  0.5981
10516TIP3   OH253038   3.795   5.428  12.249  0.5933 -0.1835  0.1012
10516TIP3    H153039   3.741   5.429  12.169  1.1716  2.9093 -0.4008
10516TIP3    H253040   3.881   5.458  12.220  1.9234 -2.4842  1.3514
10517TIP3   OH253041   2.933   2.821  13.227 -0.6077 -0.1970 -0.1538
10517TIP3    H153042   2.880   2.797  13.151 -1.2358 -0.6074  0.4009
10517TIP3    H253043   2.926   2.746  13.286  0.6625 -0.2902 -0.0900
10518TIP3   OH253044   3.972   2.347  13.841  0.4715  0.1576 -0.4016
10518TIP3    H153045   3.980   2.328  13.747  2.2662 -0.6333 -0.1208
10518TIP3    H253046   4.041   2.410  13.859  0.7371 -0.3816  0.5436
10519TIP3   OH253047   2.071   6.435  14.289 -0.1421 -0.5910  0.2088
10519TIP3    H153048   2.133   6.397  14.350 -0.3445 -1.1104  0.0932
10519TIP3    H253049   2.092   6.394  14.205 -0.3222 -0.4055  0.0727
10520TIP3   OH253050   5.263   2.225   0.767 -0.0066  0.0645  0.2675
10520TIP3    H153051   5.270   2.267   0.853 -0.8090  1.4136 -0.2950
10520TIP3    H253052   5.179   2.180   0.770 -0.6097  1.1267 -0.2156
10521TIP3   OH253053   6.462   1.449   3.907  0.2392 -1.1970  0.5104
10521TIP3    H153054   6.472   1.430   4.001  0.9087  2.4773  1.3284
10521TIP3    H253055   6.371   1.476   3.898 -0.0884 -2.4224 -0.1711
10522TIP3   OH253056   6.045   1.924   4.461  0.2148 -0.5895 -0.2592
10522TIP3    H153057   5.986   1.931   4.386 -0.5218 -0.8272  0.2851
10522TIP3    H253058   6.079   2.013   4.472 -1.0211 -0.1338  0.1736
10523TIP3   OH253059   6.600   2.951  17.006 -0.1411  0.2757 -0.2229
10523TIP3    H153060   6.574   2.870  16.962 -0.6776  1.0514 -1.3780
10523TIP3    H253061   6.524   2.975  17.059  0.1376 -0.1326  0.3724
10524TIP3   OH253062   6.806   4.264   1.452  0.1661 -0.2338  0.1349
10524TIP3    H153063   6.733   4.205   1.470  0.2563  0.1683  2.0030
10524TIP3    H253064   6.809   4.270   1.357 -1.4956 -1.1653 -0.0103
10525TIP3   OH253065   1.557   5.450   6.293 -0.3185  0.6510 -0.0983
10525TIP3    H153066   1.534   5.538   6.319 -0.9407  0.6062 -0.4879
10525TIP3    H253067   1.623   5.422   6.358 -0.9744  0.9612  0.7158
10526TIP3   OH253068   0.122   1.390  14.981  0.0831  0.0426 -0.0462
10526TIP3    H153069   0.114   1.467  14.925  1.0495 -0.7009 -1.2648
10526TIP3    H253070   0.131   1.426  15.069 -0.2237  1.2946 -0.5016
10527TIP3   OH253071   1.523   0.837  11.004 -0.1192 -0.8712 -0.5479
10527TIP3    H153072   1.598   0.844  11.063 -0.3381  0.7391 -0.4191
10527TIP3    H253073   1.480   0.756  11.030  1.6288 -1.8995 -0.7098
10528TIP3   OH253074   3.534   2.884   0.874  0.5067  0.0688  0.8933
10528TIP3    H153075   3.446   2.871   0.910  0.2531  1.0833  0.6826
10528TIP3    H253076   3.526   2.965   0.823  1.3130 -0.3709  0.0520
10529TIP3   OH253077   4.420   3.885   4.490 -0.0576 -0.0119  0.1596
10529TIP3    H153078   4.350   3.940   4.524  1.0200  0.3847  1.8682
10529TIP3    H253079   4.500   3.936   4.504  0.6507 -0.7012 -1.1782
10530TIP3   OH253080   0.908   3.597   5.877 -0.3815 -0.2034 -0.1886
10530TIP3    H153081   0.961   3.543   5.819  0.1169 -0.5848  0.6015
10530TIP3    H253082   0.963   3.673   5.897  1.7148 -2.4634  3.8883
10531TIP3   OH253083   4.961   2.295  14.154 -0.0032 -0.2749 -0.3594
10531TIP3    H153084   4.959   2.363  14.086 -0.9915  1.4570  1.2913
10531TIP3    H253085   4.871   2.264  14.159 -0.3836  0.9607  1.3617
10532TIP3   OH253086   1.083   1.371   3.673 -0.3264  0.1254  0.0601
10532TIP3    H153087   1.166   1.413   3.695 -0.4566  0.0667  0.6924
10532TIP3    H253088   1.017   1.439   3.689 -0.3276  0.5014 -1.4135
10533TIP3   OH253089   3.099   4.774   4.893  0.0908  0.1536  0.7446
10533TIP3    H153090   3.046   4.832   4.948 -2.3994 -1.6946  0.4633
10533TIP3    H253091   3.103   4.692   4.941  0.7923 -0.4461 -0.2960
10534TIP3   OH253092   5.338   6.590   3.987 -0.1928 -0.5704 -0.1003
10534TIP3    H153093   5.348   6.518   3.925 -0.7798 -1.8684  1.2445
10534TIP3    H253094   5.425   6.600   4.026  0.2787  0.5187 -1.3751
10535TIP3   OH253095   5.853   4.574   2.318 -0.4583  0.1541 -0.1247
10535TIP3    H153096   5.804   4.521   2.256  0.5949  0.3355 -1.1334
10535TIP3    H253097   5.901   4.637   2.264  1.7895 -0.7458  0.7272
10536TIP3   OH253098   2.008   2.935  15.121 -0.3070 -0.1530 -0.1620
10536TIP3    H153099   2.061   2.878  15.065  0.6245  0.5358 -0.0078
10536TIP3    H253100   1.973   2.877  15.188  1.2623 -0.4324  0.4578
10537TIP3   OH253101   6.324   4.491   5.687 -0.2398 -0.9768  0.1906
10537TIP3    H153102   6.359   4.493   5.776  1.4071  0.1769 -0.4425
10537TIP3    H253103   6.274   4.572   5.679  2.1674  0.5005 -0.8526
10538TIP3   OH253104   3.842   6.603  12.269 -0.3133  0.7362  0.0796
10538TIP3    H153105   3.913   6.646  12.222 -0.4384 -0.2625 -1.0539
10538TIP3    H253106   3.835   6.516  12.231 -2.3393  0.8985 -0.0734
10539TIP3   OH253107   2.422   1.766  15.188 -0.2111 -0.3633 -0.2448
10539TIP3    H153108   2.408   1.745  15.280 -0.5032 -0.4046 -0.3004
10539TIP3    H253109   2.428   1.681  15.144 -0.3800 -0.3397 -0.3122
10540TIP3   OH253110   1.651   2.192  16.439 -0.5090 -0.0879 -0.8860
10540TIP3    H153111   1.736   2.162  16.405 -0.1413 -2.2531  1.6356
10540TIP3    H253112   1.595   2.115  16.434 -1.3785  0.4380  0.3740
10541TIP3   OH253113   1.604   0.755   3.338 -0.5350 -0.2780 -0.5333
10541TIP3    H153114   1.558   0.801   3.268 -2.5004 -1.5982 -0.1775
10541TIP3    H253115   1.591   0.662   3.318 -0.0145 -0.6779  0.8724
10542TIP3   OH253116   2.948   3.924  16.179 -0.3089 -0.3239  0.0440
10542TIP3    H153117   2.981   3.892  16.264  0.7618 -1.9616 -0.9191
10542TIP3    H253118   2.961   4.019  16.183  0.7292 -0.4782  1.3192
10543TIP3   OH253119   2.437   4.126   5.516  0.5527 -0.0959  0.1678
10543TIP3    H153120   2.447   4.031   5.521  1.0822  0.0053  2.0367
10543TIP3    H253121   2.479   4.158   5.597  0.4742  1.7267 -0.4733
10544TIP3   OH253122   3.279   1.301  12.703  0.0605 -0.1521 -0.1114
10544TIP3    H153123   3.199   1.256  12.675 -0.2124 -0.6545  1.4023
10544TIP3    H253124   3.330   1.235  12.749  1.7952 -0.0681 -1.7979
10545TIP3   OH253125   6.573   0.770  12.197 -0.6494 -0.0487  0.1226
10545TIP3    H153126   6.530   0.687  12.220  1.4437 -0.8248  1.4330
10545TIP3    H253127   6.523   0.801  12.121 -3.4098 -0.9386  1.4218
10546TIP3   OH253128   1.123   0.944  11.698  0.4776  0.0180 -0.0647
10546TIP3    H153129   1.154   0.880  11.633  0.5605  0.0110 -0.0189
10546TIP3    H253130   1.101   1.022  11.647 -2.6342 -1.0410 -0.5445
10547TIP3   OH253131   1.233   6.199  16.507  0.0549  0.1270 -0.1420
10547TIP3    H153132   1.145   6.234  16.492 -0.4713 -0.7816  0.7142
10547TIP3    H253133   1.275   6.264  16.563 -0.1271  0.4822 -0.4147
10548TIP3   OH253134   6.533   5.893   4.500 -0.1652  0.0076  0.5237
10548TIP3    H153135   6.557   5.831   4.432 -0.4661  0.1017  0.3293
10548TIP3    H253136   6.485   5.962   4.454 -0.3532  0.0804  0.8258
10549TIP3   OH253137   0.612   2.191   4.915  0.6105 -0.4059  0.3724
10549TIP3    H153138   0.542   2.129   4.937  1.0127 -0.1092  2.7181
10549TIP3    H253139   0.571   2.277   4.921  1.0938 -0.2353  1.6667
10550TIP3   OH253140   3.913   2.282  16.270  0.2965 -0.0604  0.0793
10550TIP3    H153141   3.966   2.206  16.246  0.5971  0.0838  0.2804
10550TIP3    H253142   3.895   2.270  16.363 -1.8001 -1.1911 -0.4137
10551TIP3   OH253143   1.841   6.391  14.817  0.4425 -0.1823  0.0905
10551TIP3    H153144   1.818   6.313  14.766 -0.1003  0.5709 -0.8520
10551TIP3    H253145   1.775   6.455  14.793 -0.0042  0.1286  1.9892
10552TIP3   OH253146   5.040   2.491  15.828 -0.5633 -0.2060 -0.3183
10552TIP3    H153147   5.134   2.474  15.818 -0.4432  0.5516 -0.5386
10552TIP3    H253148   5.017   2.447  15.910  0.6493  2.1006  1.3607
10553TIP3   OH253149   2.016   1.946  15.321  0.9984  0.2962  0.1930
10553TIP3    H153150   2.104   1.908  15.327  0.4738 -0.8159  1.3628
10553TIP3    H253151   1.984   1.948  15.411 -0.9542 -1.2706 -0.3884
10554TIP3   OH253152   2.670   5.206   1.212 -0.4207  0.1972 -0.5351
10554TIP3    H153153   2.617   5.270   1.260  0.3535 -0.1181  0.7853
10554TIP3    H253154   2.756   5.211   1.253 -0.4749 -2.0451 -0.0291
10555TIP3   OH253155   4.784   5.221   0.163  0.0373  0.3027  0.0605
10555TIP3    H153156   4.774   5.316   0.159  0.8093  0.5544  2.3356
10555TIP3    H253157   4.800   5.202   0.256  1.3509 -1.8996 -0.5195
10556TIP3   OH253158   1.481   0.109  10.571  0.8830  0.1895  0.0915
10556TIP3    H153159   1.484   0.198  10.536  0.3165 -0.4370 -1.6897
10556TIP3    H253160   1.562   0.068  10.541  0.5764 -0.2372 -0.1876
10557TIP3   OH253161   4.753   0.485   0.567 -0.7151  0.0415 -0.0531
10557TIP3    H153162   4.709   0.411   0.608 -2.2710 -0.6187 -2.6959
10557TIP3    H253163   4.685   0.552   0.560  0.5130  1.5608  1.7417
10558TIP3   OH253164   2.260   5.582  12.217  0.3169 -0.0346  0.5242
10558TIP3    H153165   2.170   5.612  12.220  1.1108  2.5774  0.1957
10558TIP3    H253166   2.271   5.547  12.128 -0.3532 -0.4460  0.5924
10559TIP3   OH253167   6.153   1.800  14.295 -0.2461 -0.2397 -0.0391
10559TIP3    H153168   6.098   1.796  14.373  1.3496  1.1938  1.2419
10559TIP3    H253169   6.107   1.858  14.235 -0.0412  1.1941  1.1383
10560TIP3   OH253170   1.185   6.273  15.774 -0.4327 -0.2644  0.6587
10560TIP3    H153171   1.277   6.300  15.781 -0.0762 -0.7771 -1.2848
10560TIP3    H253172   1.137   6.343  15.817  0.8372  0.2457  1.3238
10561TIP3   OH253173   6.712   1.967  16.134  0.3165 -0.0992  0.1987
10561TIP3    H153174   6.688   2.051  16.172 -0.3379 -0.9824  1.8117
10561TIP3    H253175   6.659   1.903  16.181  1.1283 -1.4625 -0.6822
10562TIP3   OH253176   4.612   5.950   0.994  0.0723 -0.4333  0.1227
10562TIP3    H153177   4.639   5.934   1.085 -1.0117 -3.6047  0.0020
10562TIP3    H253178   4.533   5.898   0.982 -0.2445  0.4739 -2.4691
10563TIP3   OH253179   3.602   5.463  11.987  0.5998  0.2380 -0.1204
10563TIP3    H153180   3.524   5.509  11.957  1.1828  0.5104 -1.2802
10563TIP3    H253181   3.675   5.507  11.943  1.3120 -0.8049 -0.0347
10564TIP3   OH253182   4.364   3.078  16.878  0.3078  0.0284  0.1245
10564TIP3    H153183   4.328   3.058  16.792  0.7732  3.1335 -0.9117
10564TIP3    H253184   4.289   3.109  16.929  0.5648  1.5141 -0.3492
10565TIP3   OH253185   3.727   5.521  15.683 -0.4075  0.0419  0.3944
10565TIP3    H153186   3.817   5.494  15.702 -0.2258  1.6943  2.1531
10565TIP3    H253187   3.734   5.613  15.659 -1.6449  0.2497  0.7781
10566TIP3   OH253188   2.355   1.692   1.163 -0.1179  0.5986 -0.1427
10566TIP3    H153189   2.357   1.746   1.242  0.8108 -2.5117  2.1804
10566TIP3    H253190   2.446   1.671   1.145 -0.1122  2.7031 -3.3058
10567TIP3   OH253191   0.667   5.215  15.409 -0.3399 -0.5777 -0.0849
10567TIP3    H153192   0.627   5.238  15.326  0.2250  2.3338  0.3597
10567TIP3    H253193   0.594   5.204  15.469 -0.6800 -0.9967 -0.5716
10568TIP3   OH253194   4.353   2.273  12.815 -0.1409 -0.1069  0.0676
10568TIP3    H153195   4.403   2.297  12.738 -0.4449  0.3760  0.0214
10568TIP3    H253196   4.271   2.237  12.781 -0.0930 -0.3050  0.1581
10569TIP3   OH253197   6.264   6.284  14.786  0.3823  0.2707  0.0520
10569TIP3    H153198   6.231   6.346  14.721 -0.1992 -0.4921 -0.4039
10569TIP3    H253199   6.185   6.241  14.819  0.8365 -0.9791 -0.4293
10570TIP3   OH253200   6.077   5.500  16.714 -0.1144 -0.0112 -0.2845
10570TIP3    H153201   6.036   5.579  16.680  0.0498 -0.4525 -1.5673
10570TIP3    H253202   6.005   5.449  16.750 -0.2626  0.5865  0.2727
10571TIP3   OH253203   2.836   5.222   2.283 -0.1551  0.1663 -0.3668
10571TIP3    H153204   2.908   5.169   2.249  0.1157  0.2403  0.0833
10571TIP3    H253205   2.841   5.212   2.378 -1.0826 -0.2758 -0.3490
10572TIP3   OH253206   3.754   3.363   0.009 -0.4540 -0.3957 -0.2064
10572TIP3    H153207   3.730   3.352   0.101 -1.0922  0.8161 -0.2093
10572TIP3    H253208   3.763   3.458  -0.002  1.4191 -0.6165 -0.9543
10573TIP3   OH253209   1.615   5.943  14.470  0.2663 -0.4018 -0.2510
10573TIP3    H153210   1.635   5.860  14.514 -0.4006  0.3154  1.4813
10573TIP3    H253211   1.701   5.979  14.448  0.7224 -0.1977  1.6526
10574TIP3   OH253212   0.628   4.961  14.577  0.3380  0.0679  0.6262
10574TIP3    H153213   0.587   5.007  14.503  0.6513 -0.4377  0.1320
10574TIP3    H253214   0.610   4.869  14.560  0.1159 -0.0282  1.3711
10575TIP3   OH253215   5.414   3.144   6.320  0.2109 -0.0962 -0.2423
10575TIP3    H153216   5.364   3.173   6.244  0.8044 -0.3468 -0.7324
10575TIP3    H253217   5.500   3.121   6.285  1.7235  3.1092  0.9432
10576TIP3   OH253218   3.921   2.832   5.380 -0.0930 -0.1077 -0.3288
10576TIP3    H153219   3.885   2.916   5.352 -2.0245 -0.7239  0.1986
10576TIP3    H253220   3.861   2.766   5.347  0.8916 -1.2496  0.0410
10577TIP3   OH253221   5.963   0.498  11.383  0.0636  0.1644 -0.4797
10577TIP3    H153222   5.883   0.536  11.345  0.7250  1.2030 -0.8763
10577TIP3    H253223   5.982   0.421  11.330 -0.3347  0.2607 -0.7621
10578TIP3   OH253224   2.848   0.030   3.665  0.1240  0.0454  0.4893
10578TIP3    H153225   2.862   0.123   3.646 -1.8038  0.0951 -1.0152
10578TIP3    H253226   2.869  -0.015   3.583 -2.0647 -0.4548  0.1319
10579TIP3   OH253227   6.103   5.048   2.286 -0.0144  0.4910  0.3790
10579TIP3    H153228   6.131   5.123   2.338  0.1353  1.2941 -0.8167
10579TIP3    H253229   6.055   5.086   2.212  2.4556 -0.3060 -1.8069
10580TIP3   OH253230   5.787   5.051  15.625  0.4367 -0.0279  0.0077
10580TIP3    H153231   5.779   5.144  15.648  0.1595 -0.5383  2.2090
10580TIP3    H253232   5.804   5.051  15.531 -2.9522  2.1156 -0.7799
10581TIP3   OH253233   6.040   4.480   3.065 -0.0445 -0.2045 -0.4239
10581TIP3    H153234   6.077   4.394   3.084  0.3032  0.0622  0.1165
10581TIP3    H253235   5.945   4.466   3.068 -0.0000 -0.7526 -1.2048
10582TIP3   OH253236   2.583   0.006   3.781 -0.4442 -0.1674 -0.1992
10582TIP3    H153237   2.509   0.028   3.724 -0.3177  0.4527 -0.1260
10582TIP3    H253238   2.660   0.014   3.724 -0.4608 -1.4159 -0.4481
10583TIP3   OH253239   4.732   4.843   0.335  0.4191  0.3277  0.1678
10583TIP3    H153240   4.734   4.885   0.421  1.1346  2.5742 -0.8672
10583TIP3    H253241   4.824   4.825   0.315  0.4598  1.6740 -0.9531
10584TIP3   OH253242   0.592   1.810   6.761  0.3040  0.9733 -0.1308
10584TIP3    H153243   0.563   1.733   6.810 -0.9173 -0.5714 -3.0812
10584TIP3    H253244   0.684   1.793   6.742  0.1499  0.4442 -0.4098
10585TIP3   OH253245   3.831   0.687  11.575  0.6677  0.4395 -0.2976
10585TIP3    H153246   3.884   0.650  11.645 -0.1625 -2.2210 -0.9519
10585TIP3    H253247   3.866   0.646  11.495  0.2700  1.8143 -1.1987
10586TIP3   OH253248   2.429   5.795   5.424  0.2479  0.7481 -0.2948
10586TIP3    H153249   2.520   5.825   5.415  0.4384 -0.0348 -1.2266
10586TIP3    H253250   2.419   5.778   5.518  1.2839  0.2291 -0.2581
10587TIP3   OH253251   0.482   6.571  14.478  0.1064 -0.6743 -0.0155
10587TIP3    H153252   0.465   6.477  14.478  0.1665 -0.6944  0.7168
10587TIP3    H253253   0.544   6.584  14.550  0.5354 -0.1485 -0.4710
10588TIP3   OH253254   4.499   1.275  12.872 -0.1703  0.5571  0.1732
10588TIP3    H153255   4.582   1.283  12.918 -0.2384  0.2895  0.3415
10588TIP3    H253256   4.475   1.183  12.880  0.2490  0.3037 -1.1395
10589TIP3   OH253257   3.856   3.840  16.019  0.0639  0.2097 -0.0228
10589TIP3    H153258   3.799   3.790  15.961 -0.7510  1.4438 -0.3209
10589TIP3    H253259   3.895   3.907  15.963 -1.7827  2.2991  1.0336
10590TIP3   OH253260   2.408   3.067  12.361  0.3974  0.2705  0.3744
10590TIP3    H153261   2.370   3.152  12.336 -1.9332 -0.5521  0.8844
10590TIP3    H253262   2.413   3.071  12.457  1.1786  0.1811  0.3404
10591TIP3   OH253263   4.406   1.117   3.094  0.6350 -0.0627  0.1453
10591TIP3    H153264   4.344   1.189   3.085 -0.1576 -0.9359 -1.9238
10591TIP3    H253265   4.484   1.146   3.047 -0.3620 -1.2039 -2.3836
10592TIP3   OH253266   6.277   4.988   3.582 -0.9513 -0.0285  0.8491
10592TIP3    H153267   6.267   5.023   3.494 -1.6448 -1.0965  0.4777
10592TIP3    H253268   6.341   4.917   3.572 -0.5632  0.2472  1.3299
10593TIP3   OH253269   6.145   6.264  15.453 -0.1303  0.1737 -0.4066
10593TIP3    H153270   6.189   6.217  15.383  0.6890  0.9193 -0.4181
10593TIP3    H253271   6.073   6.207  15.479  0.2045 -0.5970 -1.1160
10594TIP3   OH253272   4.768   4.547   3.352  0.1681  0.0207  0.3015
10594TIP3    H153273   4.859   4.517   3.343 -0.4267 -1.7630 -0.3137
10594TIP3    H253274   4.764   4.584   3.440  1.6785  0.8799  0.0454
10595TIP3   OH253275   4.814   5.865  14.156 -0.0954  0.0366  0.3107
10595TIP3    H153276   4.854   5.882  14.242 -0.4233  2.1441  0.0961
10595TIP3    H253277   4.720   5.866  14.173 -0.1370 -1.3606  0.2161
10596TIP3   OH253278   6.124   5.763  11.874  0.0494 -0.1529 -0.3503
10596TIP3    H153279   6.094   5.831  11.934  1.2725  0.6855 -0.6568
10596TIP3    H253280   6.045   5.736  11.828 -0.6805  0.1266  0.6939
10597TIP3   OH253281   4.935   2.485   1.971  0.2730  0.3356  0.6752
10597TIP3    H153282   4.867   2.429   2.010  1.1479 -0.9727  0.3819
10597TIP3    H253283   4.910   2.492   1.879  1.3344 -1.4670  0.2031
10598TIP3   OH253284   1.708   5.845   3.249 -0.2161  0.0269 -0.5245
10598TIP3    H153285   1.778   5.890   3.296 -0.5668 -1.0167  1.0885
10598TIP3    H253286   1.628   5.891   3.274 -0.3011  0.1250 -0.9632
10599TIP3   OH253287   3.028   2.859   5.253  0.1238 -0.3117 -0.5495
10599TIP3    H153288   3.032   2.856   5.348  0.3028 -1.6523 -0.5835
10599TIP3    H253289   3.034   2.952   5.232 -1.3274  0.1289  0.7938
10600TIP3   OH253290   2.160   3.551  16.779 -0.3382  0.1362 -0.2904
10600TIP3    H153291   2.243   3.529  16.737 -1.0616 -1.7265 -0.8453
10600TIP3    H253292   2.184   3.616  16.846  1.3358  0.6418 -1.3102
10601TIP3   OH253293   4.636   5.180   5.244 -0.4535 -0.7789  0.4404
10601TIP3    H153294   4.729   5.165   5.227 -0.3742 -0.1781  0.3158
10601TIP3    H253295   4.623   5.154   5.335  0.1339  0.4140  0.8815
10602TIP3   OH253296   2.506   0.126  14.769  0.5490  0.2293  0.1684
10602TIP3    H153297   2.571   0.114  14.700  0.5143 -1.0195  0.3239
10602TIP3    H253298   2.461   0.041  14.774 -4.2026  2.1590 -2.9772
10603TIP3   OH253299   2.908   3.155  16.088 -0.3981 -0.0848 -0.1406
10603TIP3    H153300   2.964   3.197  16.022  1.0200 -0.7332  0.6226
10603TIP3    H253301   2.944   3.067  16.098 -0.3280  0.1386  1.8005
10604TIP3   OH253302   1.761   2.554  13.955  0.0182 -0.0507 -0.0833
10604TIP3    H153303   1.693   2.487  13.947 -1.3036  1.2235  0.2082
10604TIP3    H253304   1.781   2.579  13.864 -0.2414 -0.0951 -0.1522
10605TIP3   OH253305   0.787   3.312   0.226  0.3738 -0.9408  0.1014
10605TIP3    H153306   0.733   3.243   0.265  0.9460 -1.2460  0.3678
10605TIP3    H253307   0.745   3.331   0.142 -0.7518 -0.4232  0.7673
10606TIP3   OH253308   1.100   3.706  13.094 -0.3273  0.0560  0.0267
10606TIP3    H153309   1.154   3.782  13.075 -1.3464  0.9271  0.5320
10606TIP3    H253310   1.092   3.704  13.189 -2.9310  1.2534 -0.0795
10607TIP3   OH253311   0.935   2.866   3.083 -0.1633  0.0693  0.2626
10607TIP3    H153312   1.010   2.919   3.056 -1.2342  1.1517 -0.7271
10607TIP3    H253313   0.859   2.919   3.059 -1.3218 -2.1686 -1.4119
10608TIP3   OH253314   2.972   2.666   4.370 -0.0848 -0.1007  0.6057
10608TIP3    H153315   3.042   2.718   4.331 -0.6229 -0.3878 -0.7996
10608TIP3    H253316   2.958   2.706   4.456  0.3691  1.2938  0.0652
10609TIP3   OH253317   3.464   3.760   0.598 -0.1191  0.0079 -0.7118
10609TIP3    H153318   3.478   3.850   0.626  0.8507 -0.2644 -0.2516
10609TIP3    H253319   3.516   3.707   0.659 -3.3995 -1.2110  1.2862
10610TIP3   OH253320   4.307   0.693   6.142 -0.0387 -0.7473  0.2118
10610TIP3    H153321   4.215   0.721   6.143  0.0268  0.2587 -3.6004
10610TIP3    H253322   4.341   0.721   6.227 -2.6697  1.0886  0.8100
10611TIP3   OH253323   1.445   1.371   1.946  0.1184  0.3972 -0.4472
10611TIP3    H153324   1.424   1.400   1.857  0.1240 -1.2193 -1.0028
10611TIP3    H253325   1.538   1.389   1.956 -0.0302  1.2324 -0.5019
10612TIP3   OH253326   1.558   4.360  14.335  0.0554 -0.0480 -0.6896
10612TIP3    H153327   1.630   4.297  14.323  0.8679  0.4060  1.4358
10612TIP3    H253328   1.602   4.443  14.355 -1.0495  0.8262 -1.7188
10613TIP3   OH253329   3.161   4.922   3.609 -0.9316  0.8859  0.2597
10613TIP3    H153330   3.222   4.984   3.648  2.2478 -1.2478 -0.9771
10613TIP3    H253331   3.203   4.895   3.527 -3.0761 -1.4574 -0.1946
10614TIP3   OH253332   0.083   2.113  11.339  0.0507 -0.0984  0.0889
10614TIP3    H153333   0.113   2.188  11.389  0.9278 -0.5142  0.1939
10614TIP3    H253334   0.127   2.121  11.254  0.4602 -0.6944  0.2362
10615TIP3   OH253335   5.484   5.566   3.849 -0.0602  0.5342 -0.1547
10615TIP3    H153336   5.417   5.566   3.917  0.1816 -0.9471  0.1168
10615TIP3    H253337   5.563   5.598   3.893 -0.3209  1.2642 -0.2049
10616TIP3   OH253338   4.823   1.316   0.878 -0.1162 -0.0871  0.2599
10616TIP3    H153339   4.774   1.397   0.866  0.7497  0.2546 -1.1232
10616TIP3    H253340   4.789   1.257   0.810  2.1291  0.5521 -1.5351
10617TIP3   OH253341   3.142   2.327  12.566  0.5691 -0.2724 -0.0575
10617TIP3    H153342   3.089   2.272  12.624  0.0219 -0.1271 -0.4166
10617TIP3    H253343   3.187   2.265  12.509 -0.0428 -0.3570 -0.4585
10618TIP3   OH253344   3.588   5.634  16.554 -0.6215  0.2568 -0.2428
10618TIP3    H153345   3.545   5.693  16.492 -1.3614  0.5589  0.5387
10618TIP3    H253346   3.540   5.552  16.545 -0.7240  0.2986 -0.0824
10619TIP3   OH253347   5.336   6.484  12.995  0.4377 -0.4080  0.4436
10619TIP3    H153348   5.408   6.484  13.059  0.4007 -1.1254  0.4849
10619TIP3    H253349   5.374   6.446  12.916 -0.0353 -1.2954  0.6285
10620TIP3   OH253350   4.890   0.258  14.242 -0.3347 -0.6754 -0.1390
10620TIP3    H153351   4.976   0.296  14.258 -1.2597  2.4431 -1.8301
10620TIP3    H253352   4.830   0.332  14.245 -2.7840 -2.5082 -0.6041
10621TIP3   OH253353   2.359   3.012   1.368 -0.2773 -0.2988 -0.2408
10621TIP3    H153354   2.433   2.998   1.308 -0.5400  0.8820 -0.8768
10621TIP3    H253355   2.391   3.078   1.430  0.2065 -1.9524  1.3527
10622TIP3   OH253356   3.988   0.180   3.647  0.4310 -0.2464 -0.1822
10622TIP3    H153357   3.894   0.173   3.631  0.2547 -1.7805  1.3096
10622TIP3    H253358   4.014   0.094   3.679  2.6008 -0.2385 -1.6596
10623TIP3   OH253359   3.657   6.091  13.491 -0.5740  0.2624 -0.3327
10623TIP3    H153360   3.635   6.182  13.468  0.1874  0.7106  0.6304
10623TIP3    H253361   3.582   6.060  13.542  0.1600  1.1853  1.4052
10624TIP3   OH253362   1.172   5.027   3.897 -0.3045  0.2951  0.1873
10624TIP3    H153363   1.217   4.978   3.966 -2.4863 -1.2873  0.6160
10624TIP3    H253364   1.178   5.118   3.925  1.1480 -0.0262  1.0580
10625TIP3   OH253365   3.465   1.574   0.991 -0.0597 -0.0395 -0.3418
10625TIP3    H153366   3.390   1.628   0.967  0.9919  0.4929 -2.6474
10625TIP3    H253367   3.486   1.525   0.912  1.7228 -0.5486  0.3968
10626TIP3   OH253368   0.659   3.707  14.678  0.2185  0.4176 -0.2895
10626TIP3    H153369   0.599   3.697  14.752 -1.2871  2.4707 -1.1379
10626TIP3    H253370   0.620   3.654  14.608  0.8322 -0.3192 -0.0890
10627TIP3   OH253371   6.018   0.281   5.164 -0.3254 -0.2314  0.4128
10627TIP3    H153372   6.067   0.353   5.204 -0.1676 -0.3299  0.3983
10627TIP3    H253373   6.043   0.204   5.216  0.8531 -0.5960 -0.6419
10628TIP3   OH253374   6.810   5.551  13.307  0.4644  0.3064 -0.1777
10628TIP3    H153375   6.867   5.481  13.276 -0.2491 -1.6216  2.4611
10628TIP3    H253376   6.815   5.546  13.403 -0.8957  2.8348  0.1332
10629TIP3   OH253377   4.837   5.668   5.460 -0.2543  0.6140  0.3622
10629TIP3    H153378   4.880   5.628   5.384 -1.2099 -0.9473  0.6165
10629TIP3    H253379   4.895   5.649   5.534 -0.9649 -0.8577  0.5787
10630TIP3   OH253380   5.727   3.849   5.465 -0.5650 -0.4079 -0.4388
10630TIP3    H153381   5.763   3.788   5.400  1.0801 -2.0052  1.8241
10630TIP3    H253382   5.789   3.922   5.466 -0.8043 -0.1918 -0.8991
10631TIP3   OH253383   4.191   6.518  12.921 -0.2150 -0.1273  0.4274
10631TIP3    H153384   4.225   6.604  12.947 -0.1419 -0.0736  0.1520
10631TIP3    H253385   4.265   6.475  12.878 -0.2868 -0.2855  0.4596
10632TIP3   OH253386   4.427   0.780   3.292  0.1457  0.0460 -0.2635
10632TIP3    H153387   4.485   0.770   3.368  0.9367  0.8982 -0.7357
10632TIP3    H253388   4.388   0.867   3.304  1.5494  0.9230 -1.6493
10633TIP3   OH253389   5.356   2.959  14.583 -0.0889 -0.3148  0.5221
10633TIP3    H153390   5.391   2.872  14.565  3.7631  1.2740 -0.8119
10633TIP3    H253391   5.356   2.966  14.678  1.7805 -1.0581  0.6187
10634TIP3   OH253392   1.270   0.096  16.520 -0.0044 -0.1165  0.4682
10634TIP3    H153393   1.300   0.022  16.573  1.1603 -0.9016 -1.2114
10634TIP3    H253394   1.339   0.162  16.531  0.0113 -0.1012  0.2695
10635TIP3   OH253395   4.450   0.664  12.598  0.2651 -0.1356 -0.2049
10635TIP3    H153396   4.425   0.641  12.508  0.4221  1.1980 -0.6201
10635TIP3    H253397   4.545   0.673  12.595  0.2052  0.5939 -0.0862
10636TIP3   OH253398   0.042   1.883   0.078 -0.0889  0.0361 -0.9474
10636TIP3    H153399   0.051   1.788   0.084 -0.5817  0.0480  2.3386
10636TIP3    H253400  -0.044   1.897   0.040  0.1114 -0.8174 -1.7301
10637TIP3   OH253401   4.955   3.740  17.010 -0.1608 -0.1008  0.4200
10637TIP3    H153402   4.939   3.828  17.042 -0.7636 -0.0177 -0.0979
10637TIP3    H253403   4.919   3.739  16.921  0.4025 -0.6803  0.1812
10638TIP3   OH253404   1.774   5.766   1.745 -0.0437 -0.1516  0.0508
10638TIP3    H153405   1.816   5.841   1.703 -2.3542  1.2615  0.1319
10638TIP3    H253406   1.751   5.797   1.832 -1.3420 -0.8039 -0.0339
10639TIP3   OH253407   2.693   1.870  11.362  0.0598  0.3865 -0.0472
10639TIP3    H153408   2.760   1.919  11.410  0.9593 -1.5001  0.7275
10639TIP3    H253409   2.679   1.921  11.282  0.9517  1.8765  0.7067
10640TIP3   OH253410   3.609   6.206  17.217  0.3232 -0.2033  0.3030
10640TIP3    H153411   3.693   6.160  17.220  1.0997  1.1937  1.3886
10640TIP3    H253412   3.573   6.196  17.305  0.0375  0.3888  0.2632
10641TIP3   OH253413   2.663   3.761  12.878 -0.3716 -0.5327 -0.1087
10641TIP3    H153414   2.695   3.705  12.808  2.5068 -0.4941  1.0425
10641TIP3    H253415   2.650   3.847  12.838  0.6725 -0.6530 -0.7182
10642TIP3   OH253416   4.598   5.608   3.739  0.1359  0.0903 -0.2131
10642TIP3    H153417   4.550   5.556   3.675  2.5642  0.6598 -2.7169
10642TIP3    H253418   4.599   5.697   3.702  1.0675  0.5890  0.9359
10643TIP3   OH253419   4.258   3.031  11.163 -0.7163 -0.3510  0.1507
10643TIP3    H153420   4.323   3.061  11.098 -2.4853  0.4519 -1.3364
10643TIP3    H253421   4.269   3.091  11.237 -0.6829  0.6881 -0.6659
10644TIP3   OH253422   2.055   6.707   1.486  0.2668  0.6516 -0.1994
10644TIP3    H153423   2.059   6.752   1.571  0.3498  1.5208 -0.6570
10644TIP3    H253424   2.030   6.775   1.424  2.2014  0.4998 -1.2149
10645TIP3   OH253425   4.854   2.836   3.946 -0.6534 -0.2685  0.7001
10645TIP3    H153426   4.874   2.746   3.972  0.8639  0.1425  1.0890
10645TIP3    H253427   4.885   2.842   3.856  0.2936  0.1576  1.0425
10646TIP3   OH253428   3.851   1.184   4.809 -0.2796 -0.2403  0.0838
10646TIP3    H153429   3.936   1.164   4.769 -1.0801  1.0909 -2.4395
10646TIP3    H253430   3.870   1.255   4.871  0.8242 -1.7504  1.5832
10647TIP3   OH253431   2.271   6.787   2.504 -0.0204 -0.0963  0.2450
10647TIP3    H153432   2.282   6.700   2.465  0.4778 -0.9098  2.0467
10647TIP3    H253433   2.257   6.845   2.430  1.1020 -1.4849 -1.1446
10648TIP3   OH253434   4.553   6.661  15.159  0.0284  0.0007  0.5908
10648TIP3    H153435   4.501   6.637  15.083 -0.1889 -1.9027  1.2691
10648TIP3    H253436   4.606   6.583  15.178 -1.0253 -0.1874  3.2533
10649TIP3   OH253437   3.831   6.792  16.799 -0.3713  0.3473 -0.6455
10649TIP3    H153438   3.791   6.714  16.762  1.3544 -0.7877 -0.2326
10649TIP3    H253439   3.832   6.855  16.727 -0.1540 -0.6392 -1.5303
10650TIP3   OH253440   5.930   1.236  13.645 -0.1407  0.3357 -0.3554
10650TIP3    H153441   5.949   1.147  13.675 -0.6653  0.4291  0.2652
10650TIP3    H253442   5.850   1.260  13.691  1.0454  1.8691  1.0214
10651TIP3   OH253443   0.308   2.697  17.130 -0.2113  0.0768 -0.0638
10651TIP3    H153444   0.382   2.710  17.189 -0.5466  0.8921  0.2005
10651TIP3    H253445   0.344   2.707  17.042 -0.1839  1.6007  0.0856
10652TIP3   OH253446   3.967   1.177  11.860  0.1341  0.0493  0.1440
10652TIP3    H153447   3.970   1.184  11.955 -3.7306 -0.9566  0.4872
10652TIP3    H253448   3.946   1.086  11.842 -0.7666  0.5452 -1.5997
10653TIP3   OH253449   1.324   1.963   2.445  0.6588  0.0844 -0.1338
10653TIP3    H153450   1.387   1.982   2.514 -0.4254 -0.3095  1.0187
10653TIP3    H253451   1.273   1.889   2.479  0.1020 -0.1378 -1.3700
10654TIP3   OH253452   2.485   6.591   6.402 -0.1262  0.3489  0.1761
10654TIP3    H153453   2.400   6.635   6.398 -0.9177 -1.0568  0.9431
10654TIP3    H253454   2.535   6.643   6.466 -0.1577  1.5453 -0.7321
10655TIP3   OH253455   2.390   3.047   4.706 -0.1851 -0.0036  0.1778
10655TIP3    H153456   2.379   3.071   4.614  1.1889  1.4518  0.3521
10655TIP3    H253457   2.454   3.110   4.740  0.4502 -1.4359  1.7592
10656TIP3   OH253458   3.108   4.104   5.121 -0.4331  0.0468 -0.1955
10656TIP3    H153459   3.164   4.057   5.059 -0.1822  0.2709 -0.1394
10656TIP3    H253460   3.151   4.189   5.132 -1.6972  0.8955 -1.4756
10657TIP3   OH253461   4.508   4.145   2.556  0.6807  0.2872  0.6547
10657TIP3    H153462   4.462   4.224   2.527  0.4217  0.8782  2.5338
10657TIP3    H253463   4.574   4.129   2.488 -0.7585  0.7634 -0.9280
10658TIP3   OH253464   4.420   1.887  15.764 -0.3072  0.4407  0.4253
10658TIP3    H153465   4.449   1.961  15.818 -0.8866 -0.1615  1.6018
10658TIP3    H253466   4.416   1.922  15.675 -1.4386  2.0766  1.0809
10659TIP3   OH253467   0.925   2.665  11.153  0.1344 -0.5438  0.0825
10659TIP3    H153468   0.860   2.692  11.218  1.3748 -0.4352  1.3242
10659TIP3    H253469   0.885   2.589  11.110 -2.6601  1.9704 -2.2369
10660TIP3   OH253470   0.851   3.299   2.352  0.4558 -0.8701 -0.5356
10660TIP3    H153471   0.940   3.263   2.358  0.0296 -1.6849  1.3185
10660TIP3    H253472   0.816   3.292   2.440 -1.1207  0.3772 -1.0200
10661TIP3   OH253473   1.103   4.909  16.104 -0.2382 -0.3932  1.2463
10661TIP3    H153474   1.138   4.842  16.045  1.3400  0.9765  0.5373
10661TIP3    H253475   1.009   4.908  16.089  0.0922 -0.2482 -1.1584
10662TIP3   OH253476   3.300   4.063  12.535  0.0736  0.6576  0.1472
10662TIP3    H153477   3.286   4.063  12.441  0.8284  1.0416  0.0306
10662TIP3    H253478   3.270   4.150  12.563 -0.7455  0.3163  0.3603
10663TIP3   OH253479   0.629   6.714  16.755  0.2026  0.1148  0.5756
10663TIP3    H153480   0.635   6.771  16.832 -2.1438  0.0829  0.8582
10663TIP3    H253481   0.591   6.770  16.687 -1.3259 -0.8034  0.6122
10664TIP3   OH253482   0.651   2.526   1.329 -0.8045 -0.1098 -0.5365
10664TIP3    H153483   0.644   2.541   1.423 -0.9509 -0.1740 -0.5367
10664TIP3    H253484   0.697   2.442   1.321  2.3838  1.4809 -0.5549
10665TIP3   OH253485   4.615   1.502  15.896  0.4181 -0.2200  0.2686
10665TIP3    H153486   4.612   1.552  15.978  1.2380  0.5666 -0.1693
10665TIP3    H253487   4.707   1.504  15.870  0.4263 -1.7703  0.1167
10666TIP3   OH253488   6.562   1.077  11.913  0.1706 -0.1696 -0.5994
10666TIP3    H153489   6.567   1.172  11.906  1.4554 -0.1590  0.2974
10666TIP3    H253490   6.643   1.051  11.955  0.6913 -1.8536 -2.4743
10667TIP3   OH253491   1.190   5.327   1.821  0.1922  1.0330  0.4889
10667TIP3    H153492   1.269   5.366   1.783  0.8026 -0.3282  0.2917
10667TIP3    H253493   1.223   5.277   1.896 -0.6324  1.3259  1.0559
10668TIP3   OH253494   6.396   0.936  12.957  0.0040  0.0925  0.0315
10668TIP3    H153495   6.389   1.030  12.973 -0.1769  0.0764  0.0486
10668TIP3    H253496   6.305   0.906  12.948  0.0103 -0.2639  1.0807
10669TIP3   OH253497   6.333   4.787  12.873  0.4889  0.1300  0.1777
10669TIP3    H153498   6.258   4.744  12.913  1.9415 -0.9091  1.9373
10669TIP3    H253499   6.310   4.792  12.780 -1.4770 -0.6929  0.5594
10670TIP3   OH253500   2.467   3.069   4.165 -0.1509  0.7356 -0.2458
10670TIP3    H153501   2.444   2.976   4.161  0.7692  0.5303 -1.0185
10670TIP3    H253502   2.500   3.081   4.254  1.4926 -0.1184 -0.7081
10671TIP3   OH253503   3.199   5.767   5.981  0.4072 -0.4001  0.1392
10671TIP3    H153504   3.260   5.696   6.003 -0.2102 -1.3551 -1.0918
10671TIP3    H253505   3.228   5.799   5.896 -0.9579 -1.0939 -0.6276
10672TIP3   OH253506   0.857   1.317  13.697 -0.2713 -0.6169 -0.5722
10672TIP3    H153507   0.947   1.309  13.728 -0.3287  1.4755  0.2990
10672TIP3    H253508   0.853   1.261  13.619  1.8427 -0.5742 -0.7653
10673TIP3   OH253509   2.000   6.640   2.464  0.5318 -0.0810 -0.5544
10673TIP3    H153510   2.083   6.660   2.421  0.7067  0.6830  0.1244
10673TIP3    H253511   1.938   6.703   2.428  0.2324 -0.6554 -1.0662
10674TIP3   OH253512   1.685   6.011  11.228 -0.1336 -0.0236 -0.8088
10674TIP3    H153513   1.673   5.961  11.147  0.3528  0.6476 -1.3187
10674TIP3    H253514   1.626   5.971  11.291 -0.4149 -0.6539 -1.4610
10675TIP3   OH253515   4.497   3.475   3.986 -0.1468  0.0207 -0.4591
10675TIP3    H153516   4.420   3.528   3.965 -0.2064 -0.4999 -1.5786
10675TIP3    H253517   4.542   3.525   4.055 -0.6265  1.1207 -0.9251
10676TIP3   OH253518   1.195   5.182   2.797  0.4541 -0.3816 -0.0299
10676TIP3    H153519   1.214   5.115   2.863 -0.0282 -1.2198 -0.7145
10676TIP3    H253520   1.174   5.132   2.718  0.8837  0.6001 -0.7867
10677TIP3   OH253521   2.460   5.604   2.344 -0.3279  0.1197 -0.2233
10677TIP3    H153522   2.504   5.689   2.340 -1.1809  0.5137 -2.0679
10677TIP3    H253523   2.529   5.541   2.322 -0.1586  0.5310 -0.9103
10678TIP3   OH253524   6.437   2.356   3.834 -0.3153  0.4548 -0.1376
10678TIP3    H153525   6.434   2.264   3.861 -2.3550  0.4614 -0.1656
10678TIP3    H253526   6.519   2.365   3.785 -0.0866 -1.3393 -0.1355
10679TIP3   OH253527   3.784   3.176   2.273 -0.0289  0.5172 -0.3653
10679TIP3    H153528   3.873   3.186   2.237  0.9965 -2.0779  1.1607
10679TIP3    H253529   3.780   3.084   2.301 -3.1958  0.5820 -0.2766
10680TIP3   OH253530   0.296   5.055   1.367  0.1420  0.3411  0.4762
10680TIP3    H153531   0.317   4.974   1.414  1.8626 -0.8038 -2.0503
10680TIP3    H253532   0.282   5.120   1.436 -0.1718 -1.8180  2.5737
10681TIP3   OH253533   6.433   6.620   6.639  0.9325  0.1126 -0.0145
10681TIP3    H153534   6.415   6.713   6.654  0.2310 -0.0171  0.0061
10681TIP3    H253535   6.350   6.586   6.606  0.9948 -0.6404  0.5980
10682TIP3   OH253536   3.512   5.264  12.469  0.8147  0.7470  0.3585
10682TIP3    H153537   3.607   5.271  12.456  0.6691  1.8313 -0.1828
10682TIP3    H253538   3.473   5.296  12.388 -0.0357 -1.0417 -0.0005
10683TIP3   OH253539   6.343   6.652   3.927 -0.3481 -0.4365  0.4008
10683TIP3    H153540   6.368   6.578   3.983 -0.0540 -1.1260 -0.6132
10683TIP3    H253541   6.288   6.613   3.859 -1.0016  0.4470  0.3997
10684TIP3   OH253542   2.768   0.951  10.809  0.3114 -0.5406  0.5635
10684TIP3    H153543   2.824   1.017  10.850 -1.2720  0.4694  1.1765
10684TIP3    H253544   2.830   0.887  10.774  1.8728  0.8661  0.5973
10685TIP3   OH253545   3.733   0.247   5.439  0.4877  0.3340 -0.1566
10685TIP3    H153546   3.818   0.288   5.458  1.3648 -0.6215 -1.7952
10685TIP3    H253547   3.752   0.185   5.370 -1.3809 -0.7077  0.2144
10686TIP3   OH253548   0.867   4.262   5.759 -0.0532 -0.3955  0.0386
10686TIP3    H153549   0.899   4.173   5.776  1.1557  0.1334  0.6561
10686TIP3    H253550   0.858   4.301   5.846 -2.3954 -0.4728 -0.0859
10687TIP3   OH253551   0.112   2.787   1.703  0.8715 -0.8091 -0.7577
10687TIP3    H153552   0.096   2.703   1.747 -2.6285 -0.7007 -1.5545
10687TIP3    H253553   0.178   2.767   1.637  0.5595 -2.7890 -0.5384
10688TIP3   OH253554   3.606   5.954  12.843 -0.0039  0.2193 -0.0281
10688TIP3    H153555   3.531   5.934  12.898  0.6768 -0.6342  0.6177
10688TIP3    H253556   3.573   6.017  12.779 -1.5172 -0.8926 -0.3942
10689TIP3   OH253557   6.396   0.014  15.001  0.6604 -0.3351  0.2809
10689TIP3    H153558   6.316   0.053  14.968  1.2140 -0.7305 -1.6443
10689TIP3    H253559   6.377  -0.006  15.093 -1.7323 -1.2036 -0.3291
10690TIP3   OH253560   4.820   0.992   6.353 -0.3723  0.3273  0.5491
10690TIP3    H153561   4.792   1.059   6.291  2.1919 -1.5756 -3.0211
10690TIP3    H253562   4.760   0.918   6.337  0.1160 -0.0775  0.5676
10691TIP3   OH253563   0.029   4.656   1.968  0.6365  0.1334 -0.7681
10691TIP3    H153564   0.063   4.589   2.027 -1.6550 -1.1678 -0.7867
10691TIP3    H253565  -0.047   4.692   2.014  1.8555  2.8818 -0.7154
10692TIP3   OH253566   1.347   3.469  11.627  0.3605 -0.0943 -0.2529
10692TIP3    H153567   1.369   3.509  11.711 -0.2870 -0.7149  0.2206
10692TIP3    H253568   1.402   3.391  11.623  1.2287  0.5355 -0.9339
10693TIP3   OH253569   6.211   2.561  16.761 -0.7394 -0.4677  0.2372
10693TIP3    H153570   6.266   2.636  16.738 -0.3567 -0.5704  0.8064
10693TIP3    H253571   6.264   2.510  16.822 -0.5480 -1.7675 -0.9519
10694TIP3   OH253572   3.874   4.332   4.769 -0.0978  0.3172 -0.4857
10694TIP3    H153573   3.830   4.260   4.723 -2.0210 -0.0984  1.8076
10694TIP3    H253574   3.896   4.395   4.700 -0.4476 -1.4019 -2.2593
10695TIP3   OH253575   2.376   2.541  13.776  0.0855 -0.2416 -0.0201
10695TIP3    H153576   2.436   2.550  13.703 -1.2033  0.7486 -1.0052
10695TIP3    H253577   2.289   2.539  13.736 -0.7015  1.1595  1.5131
10696TIP3   OH253578   4.374   4.501  15.659 -0.3979 -0.4495  0.4416
10696TIP3    H153579   4.445   4.440  15.678  0.2760 -0.3993 -1.7245
10696TIP3    H253580   4.295   4.456  15.689  0.1136 -2.2780 -0.8300
10697TIP3   OH253581   5.488   0.819  12.291  0.0457  0.2294  0.4203
10697TIP3    H153582   5.515   0.729  12.273  1.0798  0.4760  0.6932
10697TIP3    H253583   5.570   0.868  12.296 -0.5710  1.4491 -1.0749
10698TIP3   OH253584   0.546   2.695   4.468  0.2308  0.0342 -0.2536
10698TIP3    H153585   0.534   2.706   4.374 -0.3843 -0.7666 -0.2727
10698TIP3    H253586   0.494   2.764   4.508 -0.5969 -0.4578 -0.4703
10699TIP3   OH253587   0.471   2.206  11.358  0.4707  0.2545 -0.3309
10699TIP3    H153588   0.555   2.174  11.326  0.6345  1.4775 -1.1875
10699TIP3    H253589   0.406   2.170  11.297  0.5830  0.9533 -0.8694
10700TIP3   OH253590   2.702   1.371   5.865 -0.4243 -0.2297 -0.5252
10700TIP3    H153591   2.702   1.376   5.960  0.2835 -0.4063 -0.5098
10700TIP3    H253592   2.726   1.280   5.846  0.6567  0.1162 -0.8711
10701TIP3   OH253593   1.143   4.885  12.014  0.0985  0.2297  0.2581
10701TIP3    H153594   1.048   4.888  12.030  0.3261  1.0215  1.6404
10701TIP3    H253595   1.169   4.798  12.047 -0.3896 -0.7920 -1.8779
10702TIP3   OH253596   1.073   1.776   2.541 -0.5079  0.4032  0.3557
10702TIP3    H153597   1.156   1.747   2.578 -0.1888 -0.3678 -0.9384
10702TIP3    H253598   1.027   1.695   2.518 -0.2981  0.8300 -1.7779
10703TIP3   OH253599   6.568   3.474  13.004  0.2335 -0.0602 -0.3887
10703TIP3    H153600   6.625   3.529  13.058  0.2259  0.2473 -0.6886
10703TIP3    H253601   6.626   3.408  12.966  0.1265 -0.7141  0.5434
10704TIP3   OH253602   4.114   5.484   3.708  0.2778  0.2739 -0.3925
10704TIP3    H153603   4.125   5.570   3.667  1.1728  0.7562  0.7985
10704TIP3    H253604   4.191   5.474   3.763  0.0733 -1.2100 -0.3382
10705TIP3   OH253605   2.406   3.958   5.834  0.0917  0.7559 -0.8100
10705TIP3    H153606   2.379   3.871   5.802 -0.7370  0.3578  0.8759
10705TIP3    H253607   2.326   4.011   5.830 -0.1346  0.5891  0.8818
10706TIP3   OH253608   2.845   6.610   5.224 -0.9664  0.5685 -0.4916
10706TIP3    H153609   2.752   6.587   5.226 -0.9327  0.4707 -0.0634
10706TIP3    H253610   2.861   6.654   5.307 -0.1768 -1.2259  0.3796
10707TIP3   OH253611   6.593   5.788  14.488 -0.2095  0.4092  0.1805
10707TIP3    H153612   6.617   5.707  14.442 -0.7286  0.1988  0.2693
10707TIP3    H253613   6.672   5.842  14.484  0.3429 -0.3400  0.6355
10708TIP3   OH253614   5.461   1.682  14.896  0.5802  0.1446 -0.0080
10708TIP3    H153615   5.367   1.665  14.910  0.0947  0.9064 -2.0102
10708TIP3    H253616   5.492   1.607  14.846  0.8475  0.2780 -0.0444
10709TIP3   OH253617   5.667   4.715   1.827 -0.5020 -0.5461 -0.3617
10709TIP3    H153618   5.704   4.627   1.823  2.4868  0.6108 -0.6662
10709TIP3    H253619   5.700   4.759   1.749  0.7690  1.7757  1.3626
10710TIP3   OH253620   4.311   4.225  16.409 -0.0478 -0.2104  0.7806
10710TIP3    H153621   4.336   4.150  16.355  0.4191  0.5364 -0.0465
10710TIP3    H253622   4.375   4.293  16.389  0.4795 -0.0923  2.6994
10711TIP3   OH253623   3.951   2.681   5.096  0.2697 -0.3262 -0.0965
10711TIP3    H153624   3.956   2.706   5.188  0.8611 -1.0438  0.0747
10711TIP3    H253625   4.037   2.703   5.060 -0.1585  0.5082 -0.6284
10712TIP3   OH253626   3.265   2.219   1.268 -0.1879 -0.0733  0.6368
10712TIP3    H153627   3.347   2.265   1.256  0.0230 -0.4040  0.7930
10712TIP3    H253628   3.203   2.264   1.211 -0.0729  0.6247  1.0465
10713TIP3   OH253629   2.002   1.413  16.122  0.2834  0.0437 -0.2956
10713TIP3    H153630   2.031   1.432  16.211 -0.5498 -3.2014  0.7896
10713TIP3    H253631   1.907   1.425  16.124  0.4295  1.8727 -1.3821
10714TIP3   OH253632   3.546   3.254  15.300 -0.1148  0.8937  0.8332
10714TIP3    H153633   3.507   3.243  15.214  1.8165 -1.3367  0.1215
10714TIP3    H253634   3.521   3.175  15.348  3.4759 -0.8553  0.2106
10715TIP3   OH253635   1.476   1.018  16.034 -0.3927 -0.4587  0.2040
10715TIP3    H153636   1.389   0.980  16.051 -0.6581 -0.3130 -0.7621
10715TIP3    H253637   1.458   1.100  15.988  0.2141  0.3738  1.4264
10716TIP3   OH253638   5.063   4.007   2.132  0.3523 -0.7800 -0.3274
10716TIP3    H153639   5.057   3.915   2.156  0.8969 -0.6264  0.4260
10716TIP3    H253640   5.046   4.055   2.213 -0.6223 -0.2005 -0.8622
10717TIP3   OH253641   1.449   1.258  15.895  0.8984  0.1091  0.0081
10717TIP3    H153642   1.533   1.303  15.887 -0.3777  2.6394 -0.0284
10717TIP3    H253643   1.404   1.302  15.967 -0.6073 -0.8306 -0.3005
10718TIP3   OH253644   2.500   3.631  14.501  0.6240 -0.2457  0.0858
10718TIP3    H153645   2.433   3.653  14.565 -0.6030  0.2216 -1.3149
10718TIP3    H253646   2.554   3.565  14.546  0.4836  0.8418  1.9753
10719TIP3   OH253647   1.399   6.263   0.811  0.1901 -0.2816 -0.5052
10719TIP3    H153648   1.338   6.196   0.842 -0.4242  0.0865 -0.8958
10719TIP3    H253649   1.439   6.225   0.733 -0.9547  0.1950 -1.3668
10720TIP3   OH253650   5.662   2.023   6.651  0.7945  0.3236  0.0241
10720TIP3    H153651   5.726   2.018   6.722  0.7699  0.5267  0.0629
10720TIP3    H253652   5.592   2.079   6.686 -0.1212 -1.0985  0.5262
10721TIP3   OH253653   4.735   0.287  17.022  0.0114  0.2551  0.2274
10721TIP3    H153654   4.765   0.208  17.067 -2.1630 -0.0538  1.2680
10721TIP3    H253655   4.660   0.258  16.969 -0.6642  1.5447  0.4394
10722TIP3   OH253656   5.298   0.349  12.147  0.1363 -0.4492 -0.2791
10722TIP3    H153657   5.243   0.292  12.200  0.0666  1.2511  1.5924
10722TIP3    H253658   5.270   0.333  12.057 -1.9218 -1.1930  0.4435
10723TIP3   OH253659   5.387   2.631   0.680 -0.5549  0.0189  0.7547
10723TIP3    H153660   5.396   2.541   0.650 -0.1295  0.3994 -0.3201
10723TIP3    H253661   5.293   2.647   0.681 -0.6773 -0.7088  1.8267
10724TIP3   OH253662   4.784   2.676   6.028 -0.2622  0.1496  0.0043
10724TIP3    H153663   4.701   2.705   5.990 -0.1111 -0.6240 -0.9603
10724TIP3    H253664   4.811   2.748   6.085 -0.9912  0.9226 -0.6043
10725TIP3   OH253665   3.925   2.850   1.893 -0.1467 -0.3825  0.0676
10725TIP3    H153666   3.892   2.774   1.846  0.4271  0.0167 -1.0151
10725TIP3    H253667   3.848   2.885   1.939 -0.8201 -0.5546 -0.9064
10726TIP3   OH253668   3.962   1.264  13.062 -0.0499  0.1836  0.2464
10726TIP3    H153669   3.934   1.172  13.068  0.7869 -0.0890  0.1484
10726TIP3    H253670   3.891   1.308  13.017 -0.3831 -0.4611  0.1270
10727TIP3   OH253671   0.428   3.836   0.681 -0.0048 -0.4798  0.0010
10727TIP3    H153672   0.406   3.832   0.588 -1.6794 -0.3159  0.3561
10727TIP3    H253673   0.344   3.855   0.725  0.9425  0.5817  1.4484
10728TIP3   OH253674   0.665   0.709   1.643  0.4113  1.0002 -0.4377
10728TIP3    H153675   0.677   0.763   1.721  0.1889 -0.3766  0.5974
10728TIP3    H253676   0.570   0.699   1.635  0.2316  3.3740 -2.5485
10729TIP3   OH253677   5.730   2.999  13.190  0.1291  0.2341 -0.4063
10729TIP3    H153678   5.643   3.039  13.196 -0.0168 -0.1497  0.1193
10729TIP3    H253679   5.744   2.987  13.097 -0.1625  0.7794 -0.5260
10730TIP3   OH253680   2.811   4.601  14.974  0.3919 -0.1436  0.3997
10730TIP3    H153681   2.774   4.513  14.974  0.0733 -0.0178 -0.4728
10730TIP3    H253682   2.890   4.594  14.920  0.0973  0.2089 -0.0800
10731TIP3   OH253683   6.202   2.636   5.027 -0.1902 -0.9573  0.0515
10731TIP3    H153684   6.205   2.609   5.119  1.5138 -1.7653 -0.2104
10731TIP3    H253685   6.111   2.622   5.001 -0.4908 -1.5919  1.3682
10732TIP3   OH253686   1.648   0.164   5.699  0.0825 -0.1596 -0.2433
10732TIP3    H153687   1.605   0.091   5.743  0.9828 -0.4517  0.1856
10732TIP3    H253688   1.680   0.127   5.616  1.8959 -0.7186  0.6399
10733TIP3   OH253689   5.372   2.490  16.250  0.6233 -0.4316 -0.2363
10733TIP3    H153690   5.310   2.481  16.322  1.0888 -2.1351  0.0081
10733TIP3    H253691   5.350   2.573  16.209 -0.2274  0.1524  1.3216
10734TIP3   OH253692   4.728   1.146   1.737  0.3338 -0.8212  0.6500
10734TIP3    H153693   4.741   1.087   1.662 -0.5979 -1.0626  0.6618
10734TIP3    H253694   4.790   1.217   1.723 -0.7563 -0.1477 -1.0971
10735TIP3   OH253695   4.497   3.808  17.308 -0.1730  0.2384 -0.1122
10735TIP3    H153696   4.546   3.752  17.368  1.1901  0.1594 -1.2412
10735TIP3    H253697   4.507   3.896  17.344 -0.6527  0.0139  0.5904
10736TIP3   OH253698   1.490   5.546  14.841 -0.5498  0.1290  0.2226
10736TIP3    H153699   1.435   5.473  14.812 -1.1193  0.5277  0.2881
10736TIP3    H253700   1.480   5.546  14.937 -0.0500 -0.0986  0.2767
10737TIP3   OH253701   4.368   5.721   2.760  0.0062 -0.2360  0.1916
10737TIP3    H153702   4.414   5.644   2.727 -0.2992 -1.2519  2.0712
10737TIP3    H253703   4.357   5.777   2.682  2.1744 -1.0652 -0.7846
10738TIP3   OH253704   0.966   3.665   1.713 -0.1344  0.5867  0.2176
10738TIP3    H153705   1.012   3.645   1.631 -0.0275 -2.7369  0.9252
10738TIP3    H253706   0.874   3.652   1.693 -0.2595  1.4165  0.2343
10739TIP3   OH253707   6.281   4.586   2.275  0.3309  0.6093  0.0121
10739TIP3    H153708   6.284   4.493   2.254 -0.0109  0.7935 -0.8714
10739TIP3    H253709   6.206   4.620   2.226 -0.8283  0.9662  1.9115
10740TIP3   OH253710   5.459   2.123  14.876 -0.3469  0.4198  0.0238
10740TIP3    H153711   5.446   2.060  14.805  0.6575 -0.0207  0.2167
10740TIP3    H253712   5.524   2.185  14.842  1.6078 -0.8724  1.1730
10741TIP3   OH253713   2.966   3.769  15.624 -0.4618 -0.5055  0.4755
10741TIP3    H153714   3.040   3.709  15.624  0.9608  1.1747 -0.3466
10741TIP3    H253715   2.902   3.729  15.565  0.7700 -0.8676 -0.6616
10742TIP3   OH253716   3.221   3.609   4.616  0.4604 -0.1653  0.5331
10742TIP3    H153717   3.276   3.616   4.538  0.2870  0.6982  0.4828
10742TIP3    H253718   3.232   3.518   4.645  0.5247 -0.5003 -0.4982
10743TIP3   OH253719   4.000   6.155   4.424 -0.4930 -0.0308  0.1492
10743TIP3    H153720   3.956   6.223   4.372 -0.6852 -0.3900 -0.1609
10743TIP3    H253721   3.965   6.073   4.390 -0.5471 -0.2729  0.7822
10744TIP3   OH253722   0.343   5.592   4.407  0.1214 -0.3043  0.7191
10744TIP3    H153723   0.396   5.670   4.423 -0.4395 -0.0947  1.6092
10744TIP3    H253724   0.304   5.571   4.492  0.1223 -1.4547  0.4464
10745TIP3   OH253725   3.935   3.282  12.078 -0.2446 -0.6117  0.1393
10745TIP3    H153726   3.903   3.198  12.045  2.4250 -1.3841 -0.7445
10745TIP3    H253727   3.990   3.259  12.153 -0.0012  0.4123  0.2926
10746TIP3   OH253728   4.816   2.393  12.360 -0.1999  0.0536 -0.2438
10746TIP3    H153729   4.776   2.479  12.363 -0.3857  0.2195 -3.5106
10746TIP3    H253730   4.910   2.411  12.357 -0.2063  0.0940 -0.2076
10747TIP3   OH253731   5.639   3.262  11.281 -0.2288  0.0554 -0.3151
10747TIP3    H153732   5.621   3.287  11.190 -0.4832  1.1834  0.0319
10747TIP3    H253733   5.623   3.342  11.331  0.8590 -0.2874  0.6108
10748TIP3   OH253734   0.230   3.836   0.445  0.0764 -0.3256  0.0887
10748TIP3    H153735   0.158   3.788   0.485 -1.2712  0.1093 -1.6954
10748TIP3    H253736   0.203   3.928   0.449  0.5007 -0.1594 -0.6342
10749TIP3   OH253737   4.228   1.710  14.166  0.2626  0.3833  0.2974
10749TIP3    H153738   4.135   1.735  14.170  0.6417  1.8186  1.6485
10749TIP3    H253739   4.267   1.774  14.106  0.3999 -0.1792 -0.2181
10750TIP3   OH253740   5.021   2.571  14.780  0.2109 -0.4366  0.4541
10750TIP3    H153741   5.115   2.584  14.772  0.0608 -0.1122 -1.2315
10750TIP3    H253742   5.004   2.573  14.874  1.6110  1.5273  0.7300
10751TIP3   OH253743   4.443   1.812  11.572 -0.3665 -0.4877 -1.0222
10751TIP3    H153744   4.516   1.830  11.513  2.8487 -0.9933  2.3913
10751TIP3    H253745   4.440   1.716  11.576 -0.3725 -0.4605 -0.2492
10752TIP3   OH253746   0.824   6.086   4.017 -0.5364 -0.4591  1.0776
10752TIP3    H153747   0.860   6.174   4.027  1.9489 -1.3009  0.0980
10752TIP3    H253748   0.900   6.030   4.006 -2.0602 -2.7647  1.6153
10753TIP3   OH253749   0.076   5.744   1.638  0.2841  0.1461  0.2418
10753TIP3    H153750   0.058   5.728   1.731 -1.6915 -1.0486 -0.2822
10753TIP3    H253751   0.167   5.717   1.626 -0.2555 -2.4426  1.2900
10754TIP3   OH253752   2.956   2.897  14.415  0.0242  0.1531  0.4607
10754TIP3    H153753   2.906   2.903  14.333 -0.3767  0.0119  0.6931
10754TIP3    H253754   3.047   2.902  14.387 -0.1100  0.1903  0.0112
10755TIP3   OH253755   1.283   1.331  12.876  0.1394  0.3193 -0.1883
10755TIP3    H153756   1.236   1.402  12.832  1.0362  0.9111 -0.2319
10755TIP3    H253757   1.216   1.265  12.895 -0.5708  0.8365 -0.8475
10756TIP3   OH253758   1.889   1.314  13.851  0.6055 -0.2700  0.2934
10756TIP3    H153759   1.872   1.244  13.914  1.0450 -0.7234 -0.0788
10756TIP3    H253760   1.980   1.299  13.823  0.5059  0.0900 -0.2357
10757TIP3   OH253761   0.333   5.459  14.213 -0.4471  0.3674 -0.4203
10757TIP3    H153762   0.373   5.504  14.139  0.8452 -0.9456 -0.5641
10757TIP3    H253763   0.345   5.366  14.193 -2.2422 -0.0480  0.2864
10758TIP3   OH253764   1.443   2.613   0.637 -0.0448  0.0407  0.0939
10758TIP3    H153765   1.440   2.704   0.666 -2.2801  0.0579 -0.0272
10758TIP3    H253766   1.387   2.610   0.560 -1.2187 -1.6847  0.9502
10759TIP3   OH253767   0.794   4.707  14.949  0.1769  0.2137 -0.1140
10759TIP3    H153768   0.703   4.695  14.921  1.0960 -2.4974 -2.4290
10759TIP3    H253769   0.790   4.713  15.044 -2.4602  1.1861 -0.2130
10760TIP3   OH253770   3.856   1.892  13.474 -0.0076  0.4537  0.2023
10760TIP3    H153771   3.824   1.954  13.409  1.1200  1.4928  0.6102
10760TIP3    H253772   3.777   1.858  13.517 -0.7144  0.4199 -1.0751
10761TIP3   OH253773   3.051   3.606   1.054 -0.3052  0.0986 -0.3054
10761TIP3    H153774   3.025   3.662   0.981  2.1630  0.2499 -1.1803
10761TIP3    H253775   3.111   3.660   1.106  0.4698 -1.0111  0.0135
10762TIP3   OH253776   4.170   4.697  13.276  0.0020  0.5384  0.5613
10762TIP3    H153777   4.092   4.751  13.266 -0.3918 -0.4088 -2.7497
10762TIP3    H253778   4.146   4.633  13.343 -0.3871  2.8670  2.7732
10763TIP3   OH253779   2.901   1.955   2.233  0.2803  0.5247 -0.2614
10763TIP3    H153780   2.818   1.928   2.193  0.4815  1.0991 -1.0814
10763TIP3    H253781   2.942   2.011   2.167  0.0145  2.6193  1.2599
10764TIP3   OH253782   2.824   5.672   3.455 -0.1453  0.5368 -0.4704
10764TIP3    H153783   2.830   5.762   3.424 -0.4668  1.2477  1.4214
10764TIP3    H253784   2.737   5.666   3.494  0.1727 -0.3496  0.1321
10765TIP3   OH253785   1.408   0.037   4.157 -0.0071  0.4390 -0.2153
10765TIP3    H153786   1.387   0.090   4.080  0.3700  1.0877  0.1238
10765TIP3    H253787   1.328  -0.012   4.175 -0.9749  2.2292  0.5415
10766TIP3   OH253788   3.247   6.476   0.607  0.1454  0.2265 -0.6612
10766TIP3    H153789   3.232   6.545   0.672 -0.1779 -0.6211  0.1925
10766TIP3    H253790   3.177   6.487   0.543 -0.3054  0.2796 -0.1616
10767TIP3   OH253791   6.180   3.355   2.393 -0.7626 -0.4244 -0.5365
10767TIP3    H153792   6.211   3.403   2.316 -0.2728 -3.0431 -2.0946
10767TIP3    H253793   6.171   3.422   2.460  2.4823  1.4832 -1.7373
10768TIP3   OH253794   3.765   4.168  12.110  0.2697  0.1876 -0.1879
10768TIP3    H153795   3.757   4.237  12.044  0.3445 -0.1352 -0.5386
10768TIP3    H253796   3.791   4.091  12.060 -0.0414 -0.1511  0.1724
10769TIP3   OH253797   2.739   2.604   3.119 -0.1055  1.0221 -0.2288
10769TIP3    H153798   2.796   2.592   3.043  1.1019  0.5483  0.7246
10769TIP3    H253799   2.746   2.697   3.140 -2.6151  1.7989 -2.3151
10770TIP3   OH253800   6.741   0.690   5.238 -0.3520 -0.5859 -0.0788
10770TIP3    H153801   6.662   0.703   5.291  0.0286 -0.5630  0.5020
10770TIP3    H253802   6.737   0.758   5.171 -1.1797 -1.0296 -0.4908
10771TIP3   OH253803   6.443   2.049   1.125  0.6577 -0.1910  0.1368
10771TIP3    H153804   6.530   2.017   1.101 -0.1527 -2.0003 -0.5059
10771TIP3    H253805   6.396   2.058   1.042 -0.0200  0.0083  0.5291
10772TIP3   OH253806   0.577   1.929   1.168 -0.3337 -0.4495 -0.1087
10772TIP3    H153807   0.643   1.911   1.101 -1.4709 -1.5611 -0.9695
10772TIP3    H253808   0.626   1.926   1.251  0.7978 -0.6889 -0.7600
10773TIP3   OH253809   4.974   2.673  14.484 -0.2012 -0.6932  0.2074
10773TIP3    H153810   4.948   2.702  14.571  1.2763 -0.9171  0.7503
10773TIP3    H253811   5.061   2.635  14.496  0.1344 -0.5161 -1.4054
10774TIP3   OH253812   5.176   2.065   4.456  0.1188  0.0840  0.2348
10774TIP3    H153813   5.222   2.091   4.376 -1.9146  0.7974 -0.7584
10774TIP3    H253814   5.095   2.116   4.455 -2.5702 -3.7683 -0.1284
10775TIP3   OH253815   1.351   0.685  13.079  0.0398  0.0236 -0.4350
10775TIP3    H153816   1.303   0.694  12.997 -0.0659 -1.2213 -0.5341
10775TIP3    H253817   1.442   0.670  13.052  0.1692  0.5446 -0.2965
10776TIP3   OH253818   5.645   5.989  15.905 -0.4792  0.0549  0.6526
10776TIP3    H153819   5.676   5.962  15.818 -0.4731  0.5752  0.4876
10776TIP3    H253820   5.566   5.937  15.919  0.0494 -0.7441  0.7569
10777TIP3   OH253821   0.428   5.224  14.110 -0.2929 -0.4569  0.2504
10777TIP3    H153822   0.440   5.157  14.177 -0.4769 -0.6871  0.0564
10777TIP3    H253823   0.445   5.179  14.028  0.0315 -0.1506  0.1461
10778TIP3   OH253824   5.817   2.654  17.267  0.1335 -0.4464  0.4702
10778TIP3    H153825   5.818   2.674  17.361 -0.4090 -2.9919  1.1049
10778TIP3    H253826   5.866   2.572  17.260 -0.2851 -0.5757 -1.4043
10779TIP3   OH253827   2.790   0.736   5.689  0.4003 -0.4599 -0.1671
10779TIP3    H153828   2.795   0.738   5.784  1.7335 -0.4983 -0.2096
10779TIP3    H253829   2.855   0.671   5.663  1.1823  0.6636 -1.1572
10780TIP3   OH253830   1.778   4.549  11.652  0.2800 -0.2754  0.0064
10780TIP3    H153831   1.761   4.476  11.711 -1.5650  0.6679  0.7378
10780TIP3    H253832   1.873   4.556  11.650  0.5240 -2.7941 -0.2692
10781TIP3   OH253833   1.156   6.572   5.954  0.4308  0.2776  0.0056
10781TIP3    H153834   1.202   6.656   5.958 -0.6616  0.8641  1.1811
10781TIP3    H253835   1.093   6.576   6.026 -1.6562 -0.3374 -1.6534
10782TIP3   OH253836   3.922   4.478   4.991 -0.1542  0.4525  0.2512
10782TIP3    H153837   3.916   4.411   4.923  2.0470  0.9820 -0.5403
10782TIP3    H253838   3.891   4.558   4.948 -0.2287  0.4862  0.3670
10783TIP3   OH253839   3.385   1.574  17.265 -0.1100  0.1755 -0.0324
10783TIP3    H153840   3.395   1.657  17.311  0.4679 -0.6692  1.4103
10783TIP3    H253841   3.292   1.570  17.242 -0.4478  0.5753  1.1941
10784TIP3   OH253842   1.814   1.689   5.161 -0.0380  0.0084 -0.0674
10784TIP3    H153843   1.872   1.636   5.216 -1.8157  0.7195  2.7238
10784TIP3    H253844   1.873   1.746   5.112  1.8813 -3.5089 -2.2701
10785TIP3   OH253845   4.796   4.760  12.426 -0.2302  0.4265  0.0701
10785TIP3    H153846   4.742   4.838  12.422 -0.0809  0.5462  0.3275
10785TIP3    H253847   4.761   4.710  12.500  1.0843  1.3307  1.3522
10786TIP3   OH253848   6.622   0.947  16.282  0.1027 -0.0217 -0.0578
10786TIP3    H153849   6.668   1.004  16.343  1.1207  0.4393 -1.2202
10786TIP3    H253850   6.542   0.995  16.260 -0.6810 -0.5422  1.4689
10787TIP3   OH253851   6.738   5.494   1.736 -0.2388 -0.7722 -0.3218
10787TIP3    H153852   6.661   5.474   1.790 -1.8025  1.5611 -1.5286
10787TIP3    H253853   6.713   5.466   1.648  1.2846 -2.1472 -0.3792
10788TIP3   OH253854   1.562   4.804  16.781 -0.3960  0.6870  0.4258
10788TIP3    H153855   1.640   4.796  16.836  0.5703 -0.5689 -1.0191
10788TIP3    H253856   1.538   4.714  16.760 -1.0190  1.1048 -0.7865
10789TIP3   OH253857   6.217   1.059  14.579 -0.1284 -0.5208  0.2074
10789TIP3    H153858   6.311   1.044  14.586 -0.0963 -0.1139  0.7073
10789TIP3    H253859   6.190   1.004  14.505  0.7422  0.4254 -0.8672
10790TIP3   OH253860   2.873   5.654   2.789  0.3859 -1.1208  0.9251
10790TIP3    H153861   2.905   5.564   2.791 -1.6181 -1.8830  1.0501
10790TIP3    H253862   2.885   5.686   2.878 -0.4275 -1.8669  1.3180
10791TIP3   OH253863   3.883   4.984  13.998  0.0013  0.1263 -0.1345
10791TIP3    H153864   3.814   5.029  14.047  0.3566  1.6930 -1.0214
10791TIP3    H253865   3.958   4.984  14.058 -0.5411 -0.9987  0.5813
10792TIP3   OH253866   0.026   4.420   4.856 -0.2803 -0.2514 -0.3757
10792TIP3    H153867   0.112   4.417   4.897 -0.3941  2.4550  0.2697
10792TIP3    H253868   0.045   4.435   4.763 -0.0638 -1.1317 -0.4800
10793TIP3   OH253869   0.006   2.853   2.673  0.0206 -0.4832  0.4439
10793TIP3    H153870   0.005   2.830   2.766 -0.1005  0.2011  0.6137
10793TIP3    H253871   0.097   2.839   2.646  0.4086  0.7367  1.0354
10794TIP3   OH253872   5.767   3.858   5.795  0.0562 -0.5825  0.3768
10794TIP3    H153873   5.710   3.922   5.752  0.5469 -0.6933 -0.4808
10794TIP3    H253874   5.730   3.846   5.882  0.1221  1.0875  0.6555
10795TIP3   OH253875   2.153   4.331  11.045 -0.5508  0.3472 -0.1027
10795TIP3    H153876   2.201   4.264  10.997 -0.2864  0.6891 -0.3204
10795TIP3    H253877   2.174   4.315  11.137 -0.4071  0.1966 -0.1624
10796TIP3   OH253878   0.792   5.736  10.674 -0.7430 -0.3064 -0.2166
10796TIP3    H153879   0.768   5.687  10.596 -0.3024 -2.3436  0.8558
10796TIP3    H253880   0.888   5.735  10.675 -0.7337 -1.4727  0.9905
10797TIP3   OH253881   0.875   5.882   5.420  0.4206  0.2509 -0.0909
10797TIP3    H153882   0.950   5.905   5.475 -0.4237  1.8540  0.4469
10797TIP3    H253883   0.816   5.835   5.480 -0.3552  1.7136  0.3250
10798TIP3   OH253884   5.856   3.625   2.264  0.7076  0.2806 -0.1345
10798TIP3    H153885   5.799   3.699   2.241  0.2937 -0.1982 -0.6803
10798TIP3    H253886   5.944   3.661   2.261  0.4311  1.0647  0.8477
10799TIP3   OH253887   0.850   0.143   0.697 -0.5576 -0.1676 -0.4240
10799TIP3    H153888   0.907   0.180   0.629 -0.3649 -0.8970 -0.6651
10799TIP3    H253889   0.874   0.051   0.700 -1.5197 -0.4186 -0.3132
10800TIP3   OH253890   6.274   2.350   2.553 -0.0477  0.6732 -0.0215
10800TIP3    H153891   6.365   2.330   2.529 -0.3399 -0.2325 -0.4256
10800TIP3    H253892   6.281   2.399   2.635  0.8268  1.0252 -0.2981
10801TIP3   OH253893   0.022   2.326  15.344  0.1445 -0.1033  0.0503
10801TIP3    H153894  -0.027   2.356  15.421 -0.6004  1.0075 -0.8183
10801TIP3    H253895  -0.025   2.364  15.269  1.1914 -0.6631 -0.9243
10802TIP3   OH253896   4.327   5.884  16.835 -0.1359  0.1673  0.2871
10802TIP3    H153897   4.255   5.824  16.854 -1.1848  1.1883 -0.3618
10802TIP3    H253898   4.369   5.847  16.757 -0.5591  0.0965  0.0941
10803TIP3   OH253899   3.356   2.607   1.350  0.4265  0.2853 -0.5786
10803TIP3    H153900   3.349   2.576   1.440 -1.3831 -0.4521 -0.9269
10803TIP3    H253901   3.390   2.532   1.301 -1.0773 -0.2126 -0.9142
10804TIP3   OH253902   5.821   5.180  13.554 -0.2997  0.7353  0.4202
10804TIP3    H153903   5.823   5.197  13.648  0.2991  0.9519  0.3705
10804TIP3    H253904   5.774   5.255  13.517 -1.6746  0.0380  0.6612
10805TIP3   OH253905   6.704   5.834  14.038 -0.2900  0.4820 -0.4612
10805TIP3    H153906   6.749   5.754  14.064 -0.3299  0.9305  1.1125
10805TIP3    H253907   6.773   5.899  14.029 -0.3233  0.4383 -1.1437
10806TIP3   OH253908   2.983   5.374   2.598  0.4070  0.0241 -0.0278
10806TIP3    H153909   2.918   5.306   2.615  0.0894  0.5222  0.8585
10806TIP3    H253910   2.933   5.449   2.565  0.2707  0.8959  1.9550
10807TIP3   OH253911   0.160   5.222  16.707  0.6511  0.1387 -0.1709
10807TIP3    H153912   0.172   5.268  16.625  1.1726  0.6181  0.1681
10807TIP3    H253913   0.069   5.241  16.732  0.5758  0.2108 -0.4992
10808TIP3   OH253914   5.706   3.028  14.684 -0.2059  0.1923  0.3495
10808TIP3    H153915   5.664   3.086  14.747 -0.4818 -0.6396  0.9540
10808TIP3    H253916   5.712   2.944  14.729 -0.9859 -0.6004 -0.9414
10809TIP3   OH253917   2.328   2.388   2.886  0.4615 -0.1114 -0.3103
10809TIP3    H153918   2.323   2.359   2.795 -0.2160  1.2046 -0.7156
10809TIP3    H253919   2.365   2.313   2.933  2.4223 -0.2670 -1.9268
10810TIP3   OH253920   0.336   5.433  16.491 -0.0236  0.2002  0.1482
10810TIP3    H153921   0.390   5.354  16.490 -1.5408 -0.9463 -2.4535
10810TIP3    H253922   0.399   5.504  16.500  1.7319 -1.1648 -0.4859
10811TIP3   OH253923   2.376   6.811  16.262  0.4258  0.5206 -0.0485
10811TIP3    H153924   2.411   6.830  16.175 -1.5881 -0.5226 -1.1555
10811TIP3    H253925   2.412   6.725  16.284 -1.4668 -0.6541 -1.2831
10812TIP3   OH253926   3.688   1.901   6.553 -0.3717 -0.0500 -0.0398
10812TIP3    H153927   3.750   1.862   6.615  0.4572 -0.4583 -1.0988
10812TIP3    H253928   3.638   1.964   6.606  1.9469  1.4056  0.5765
10813TIP3   OH253929   5.220   0.724  15.820 -0.3746 -1.0480 -0.1955
10813TIP3    H153930   5.305   0.767  15.823 -0.1718 -1.4641  0.2452
10813TIP3    H253931   5.221   0.665  15.895 -1.9750  0.6582  1.2839
10814TIP3   OH253932   0.490   2.294  11.623 -0.6869 -0.0398  0.4609
10814TIP3    H153933   0.467   2.270  11.533  1.0248 -0.7903  0.1759
10814TIP3    H253934   0.540   2.219  11.655 -1.9532 -0.1410  2.3539
10815TIP3   OH253935   6.025   3.941   0.766  0.3245 -0.0774 -0.1179
10815TIP3    H153936   6.042   3.857   0.724  2.4684 -0.6739  1.7443
10815TIP3    H253937   5.980   3.919   0.847 -2.1139  0.9042 -1.1257
10816TIP3   OH253938   1.323   6.809  12.870  0.2586  0.4273 -0.3003
10816TIP3    H153939   1.338   6.723  12.831  1.9670  0.3062  0.5525
10816TIP3    H253940   1.230   6.809  12.893  0.5250 -1.8048  1.1010
10817TIP3   OH253941   2.667   0.852  11.277  0.2511 -0.0531 -0.2443
10817TIP3    H153942   2.688   0.833  11.185 -1.4277  1.1249 -0.9252
10817TIP3    H253943   2.712   0.934  11.295  1.8925 -1.0642  0.5500
10818TIP3   OH253944   2.879   4.262   2.868  0.1311  0.0071  0.2783
10818TIP3    H153945   2.811   4.197   2.882 -0.7462  0.1637 -2.7098
10818TIP3    H253946   2.915   4.243   2.782  1.5888  1.9683  0.3623
10819TIP3   OH253947   3.192   4.604  12.468 -0.0478 -0.4895  0.5545
10819TIP3    H153948   3.172   4.677  12.527  0.1139  1.4168 -1.6121
10819TIP3    H253949   3.272   4.566  12.505  1.6388  2.3866  0.1875
10820TIP3   OH253950   4.736   3.135  15.263 -0.5766 -0.7604 -0.1184
10820TIP3    H153951   4.717   3.136  15.357  0.3650 -1.5072  0.1039
10820TIP3    H253952   4.819   3.182  15.256 -0.1974 -1.4615 -0.4498
10821TIP3   OH253953   2.988   2.929   2.151  0.2021  0.0126 -0.2747
10821TIP3    H153954   2.966   2.982   2.227 -0.6738  0.8963 -1.1179
10821TIP3    H253955   2.905   2.914   2.107  0.5572 -1.3438 -0.5346
10822TIP3   OH253956   0.629   0.433   2.555 -0.5036  0.1716  0.3884
10822TIP3    H153957   0.640   0.505   2.493 -0.1000  1.5406  1.9740
10822TIP3    H253958   0.551   0.387   2.525 -1.0941  1.6092 -0.3490
10823TIP3   OH253959   2.396   4.094   2.870 -0.3313  0.2500 -0.4691
10823TIP3    H153960   2.338   4.166   2.897 -0.8142 -0.3565  0.1258
10823TIP3    H253961   2.342   4.016   2.877 -0.0094 -0.1121 -1.7607
10824TIP3   OH253962   6.632   6.660   0.870 -0.0193 -0.1884 -0.0099
10824TIP3    H153963   6.538   6.674   0.866  0.1875  2.0561  1.4218
10824TIP3    H253964   6.642   6.570   0.899 -1.7263 -0.3953  0.0228
10825TIP3   OH253965   2.534   0.863   4.426 -0.0702  0.5553 -0.0060
10825TIP3    H153966   2.620   0.839   4.459 -1.0131 -0.2180  1.9956
10825TIP3    H253967   2.498   0.782   4.390  0.2963  1.0423 -1.5560
10826TIP3   OH253968   5.032   5.972   5.009  0.2976 -0.2268  0.0673
10826TIP3    H153969   5.078   5.889   4.998  1.6663  0.5716 -0.4488
10826TIP3    H253970   4.984   5.963   5.091  0.3862 -1.5294 -0.0046
10827TIP3   OH253971   4.863   6.099  12.681 -0.4313  0.1042 -0.1462
10827TIP3    H153972   4.915   6.019  12.694 -0.9345 -0.2637 -0.3604
10827TIP3    H253973   4.773   6.067  12.670 -1.0670  0.8566  2.3681
10828TIP3   OH253974   3.647   4.455   6.124 -0.4538  0.4109 -0.4947
10828TIP3    H153975   3.641   4.387   6.057  0.5189  0.0422 -0.2193
10828TIP3    H253976   3.639   4.408   6.207 -3.7891  1.0741 -0.2976
10829TIP3   OH253977   2.891   0.808  10.609 -0.0713 -0.4699 -0.0352
10829TIP3    H153978   2.838   0.750  10.553  1.9443 -1.2189 -1.2857
10829TIP3    H253979   2.921   0.877  10.550  1.6013 -0.9373  0.2244
10830TIP3   OH253980   4.359   1.156   2.656 -0.1073  0.1274  0.0261
10830TIP3    H153981   4.319   1.136   2.572 -0.5308 -1.3052  0.5358
10830TIP3    H253982   4.289   1.143   2.720  0.3948  0.4938  0.6666
10831TIP3   OH253983   2.511   3.073   5.187  0.1010 -0.0953 -0.1496
10831TIP3    H153984   2.464   2.990   5.196  0.8260 -0.2997  2.5114
10831TIP3    H253985   2.510   3.111   5.274  3.3731  0.6985 -0.3447
10832TIP3   OH253986   1.318   2.877   2.184  0.1877 -0.1119 -0.3016
10832TIP3    H153987   1.243   2.871   2.125 -0.0661  0.8183 -0.0899
10832TIP3    H253988   1.384   2.819   2.146 -1.0977 -2.0091  0.2284
10833TIP3   OH253989   6.672   0.378   3.353  0.0508  1.0355  0.8918
10833TIP3    H153990   6.738   0.350   3.290  0.1430  1.3988  0.8280
10833TIP3    H253991   6.602   0.313   3.344 -0.9454  2.2876 -1.1715
10834TIP3   OH253992   0.238   5.581   3.734 -0.8454 -0.0841 -0.5929
10834TIP3    H153993   0.256   5.647   3.801 -0.5960 -0.1662 -0.5798
10834TIP3    H253994   0.143   5.580   3.727 -0.9619 -1.1265  0.8137
10835TIP3   OH253995   5.118   1.534  10.738  0.7310  0.1702  0.9601
10835TIP3    H153996   5.186   1.531  10.671  1.3853 -0.0558  1.6219
10835TIP3    H253997   5.087   1.444  10.745  0.3127  0.2878  0.6040
10836TIP3   OH253998   4.921   6.226   5.596  0.1429  0.3143 -0.5854
10836TIP3    H153999   4.878   6.308   5.622  1.7203  0.5385  1.6264
10836TIP3    H254000   4.857   6.158   5.616 -0.1812  0.8200  0.1329
10837TIP3   OH254001   1.536   1.484  17.139 -0.9789 -0.0398  0.5568
10837TIP3    H154002   1.611   1.431  17.167 -2.4671 -3.2969 -1.1034
10837TIP3    H254003   1.474   1.477  17.212 -1.6437 -1.7411 -0.1145
10838TIP3   OH254004   0.503   0.823   1.267  0.7389 -0.1953 -0.2006
10838TIP3    H154005   0.466   0.742   1.302  1.3617 -0.9303 -1.1930
10838TIP3    H254006   0.433   0.859   1.213  0.7490 -0.5199 -0.4352
10839TIP3   OH254007   0.538   1.329  16.456 -0.3866 -0.4036 -0.2023
10839TIP3    H154008   0.506   1.418  16.469 -1.0726 -0.5904 -0.6076
10839TIP3    H254009   0.515   1.283  16.537  1.1857  0.1216  0.5882
10840TIP3   OH254010   0.840   3.557  13.157 -0.3105 -0.0343 -0.4459
10840TIP3    H154011   0.899   3.622  13.119 -0.5380  0.8568  0.6591
10840TIP3    H254012   0.889   3.519  13.230 -0.0353 -1.4100 -1.3179
10841TIP3   OH254013   4.414   0.042   3.152 -0.7157 -0.0650  0.0232
10841TIP3    H154014   4.408   0.135   3.132  2.6958  1.2684  3.9077
10841TIP3    H254015   4.345   0.027   3.216 -0.7494  0.0052  0.0035
10842TIP3   OH254016   6.300   3.825   6.670  0.4055 -0.2801  0.0913
10842TIP3    H154017   6.392   3.852   6.672  0.1161  0.6841  1.7017
10842TIP3    H254018   6.259   3.883   6.606  1.0659 -1.3633 -1.3857
10843TIP3   OH254019   0.101   1.728   3.259  0.0207 -0.1412 -0.2729
10843TIP3    H154020   0.031   1.780   3.298 -0.4710 -1.1049  0.1371
10843TIP3    H254021   0.149   1.791   3.204 -0.4988  0.7669  0.2849
10844TIP3   OH254022   5.393   3.412  14.735 -0.5368 -0.2181  0.2851
10844TIP3    H154023   5.444   3.399  14.655  1.5066 -3.7117  1.9252
10844TIP3    H254024   5.309   3.369  14.718 -1.8140  2.6397 -1.2604
10845TIP3   OH254025   2.216   3.285   4.514  0.5803  0.4106  0.4103
10845TIP3    H154026   2.122   3.268   4.506  0.4832  0.7007  0.8682
10845TIP3    H254027   2.224   3.332   4.597  1.0157  1.2022 -0.0724
10846TIP3   OH254028   5.343   3.308   1.477  0.3159 -0.8092  0.2332
10846TIP3    H154029   5.365   3.368   1.548  0.8238 -0.9711  0.2183
10846TIP3    H254030   5.326   3.224   1.520 -1.1707 -0.4753  0.3287
10847TIP3   OH254031   1.601   1.811  14.097  0.1207  0.2424 -0.5876
10847TIP3    H154032   1.653   1.735  14.072  0.6479  0.8302 -1.3179
10847TIP3    H254033   1.512   1.776  14.105  0.5526 -0.7070  0.3842
10848TIP3   OH254034   2.017   5.696  12.516  0.4016  0.0798  0.1440
10848TIP3    H154035   1.954   5.672  12.584  0.5463  0.9361  0.5995
10848TIP3    H254036   1.991   5.644  12.439 -0.4601 -0.0554  0.5129
10849TIP3   OH254037   1.172   4.539   4.677 -0.1741 -0.0440  0.3706
10849TIP3    H154038   1.199   4.537   4.585 -1.3685 -0.9224  0.0092
10849TIP3    H254039   1.087   4.583   4.675 -1.4341 -2.3163  0.6776
10850TIP3   OH254040   0.397   0.351   2.894  0.3710 -0.2719  0.4212
10850TIP3    H154041   0.448   0.431   2.903 -1.7734  1.2946 -0.5533
10850TIP3    H254042   0.342   0.348   2.973  0.5166 -0.8756  0.5102
10851TIP3   OH254043   5.982   0.790   2.751 -0.3714 -0.6570 -0.1777
10851TIP3    H154044   5.896   0.803   2.792  0.5998  1.9464  1.2417
10851TIP3    H254045   5.968   0.813   2.659 -1.1504 -0.0441  0.0849
10852TIP3   OH254046   5.361   5.945  12.620  0.2356  0.1069 -0.8495
10852TIP3    H154047   5.449   5.979  12.636 -0.0113  0.0275  0.9547
10852TIP3    H254048   5.304   6.020  12.630 -0.1374 -0.3858  1.1317
10853TIP3   OH254049   0.262   0.765   3.890  0.0458 -0.0197 -0.1989
10853TIP3    H154050   0.218   0.725   3.815 -1.0445  2.1853 -0.8094
10853TIP3    H254051   0.333   0.705   3.911 -2.3401 -3.0608 -0.0702
10854TIP3   OH254052   3.864   5.789  12.328  0.0926  0.0432  0.2193
10854TIP3    H154053   3.862   5.844  12.250 -0.5921 -1.0120 -0.5413
10854TIP3    H254054   3.885   5.849  12.400 -3.9037  2.0046  0.0088
10855TIP3   OH254055   4.113   2.098   0.877 -0.4671  0.0513 -0.3885
10855TIP3    H154056   4.038   2.082   0.935 -0.1260  0.0381  0.0527
10855TIP3    H254057   4.122   2.017   0.827  0.3584 -0.6461  0.8319
10856TIP3   OH254058   1.498   5.813  15.334 -0.2376  0.6570  0.0160
10856TIP3    H154059   1.455   5.799  15.250  1.1052  0.9023 -0.7445
10856TIP3    H254060   1.592   5.814  15.313  0.0720  3.4141  1.0619
10857TIP3   OH254061   6.223   3.893  15.578  0.3463  0.3644 -0.5153
10857TIP3    H154062   6.248   3.891  15.671  0.4545  1.0651 -0.5214
10857TIP3    H254063   6.211   3.986  15.559 -1.3312  0.1203 -0.7705
10858TIP3   OH254064   6.246   1.095   5.538  0.1856 -0.6869 -0.1127
10858TIP3    H154065   6.234   1.000   5.533  0.6694 -0.7527 -0.0444
10858TIP3    H254066   6.327   1.112   5.489 -0.8896 -0.0934 -1.7712
10859TIP3   OH254067   5.772   6.298  12.715 -0.1987  0.8190  0.2295
10859TIP3    H154068   5.689   6.256  12.692  0.9329 -0.9551 -0.8595
10859TIP3    H254069   5.760   6.389  12.687 -1.1359  0.1657 -1.7581
10860TIP3   OH254070   1.228   3.039  12.804  0.1419  0.0541  0.0628
10860TIP3    H154071   1.156   3.055  12.743  0.0281  0.0267  0.1888
10860TIP3    H254072   1.271   2.960  12.772  0.9314  0.8084 -0.7808
10861TIP3   OH254073   5.315   2.421  12.743 -0.1939  0.1325 -0.0248
10861TIP3    H154074   5.275   2.367  12.812  1.1693 -2.7804 -1.3304
10861TIP3    H254075   5.350   2.497  12.789 -0.9712 -0.7709  2.2025
10862TIP3   OH254076   1.171   4.787  12.366  0.4794  0.0972 -0.1477
10862TIP3    H154077   1.266   4.782  12.353  0.6913  2.5961 -0.0474
10862TIP3    H254078   1.134   4.757  12.283  1.3064 -1.6637  0.0820
10863TIP3   OH254079   2.696   2.540   4.044 -0.5719 -0.5459  0.4518
10863TIP3    H154080   2.697   2.584   4.129 -0.3387 -0.9137  0.6415
10863TIP3    H254081   2.698   2.447   4.065  0.6147 -0.6367  0.0276
10864TIP3   OH254082   3.289   5.957  11.888 -0.1804  0.0630 -0.1654
10864TIP3    H154083   3.255   6.046  11.878  3.2873  1.7794  1.4816
10864TIP3    H254084   3.369   5.956  11.835 -0.5550 -2.4413 -0.8338
10865TIP3   OH254085   3.491   3.613   5.625 -0.0441  0.0960  0.2313
10865TIP3    H154086   3.511   3.699   5.663 -0.3495  0.0224  0.5644
10865TIP3    H254087   3.441   3.633   5.546  0.7238  0.2553 -0.2292
10866TIP3   OH254088   6.205   1.475   2.134 -0.6954 -0.0837  0.2350
10866TIP3    H154089   6.192   1.394   2.184  1.3709 -0.0181  0.9706
10866TIP3    H254090   6.203   1.544   2.199  0.2563  0.1773  0.0046
10867TIP3   OH254091   6.564   0.273  16.560  0.2758 -0.5458 -0.0057
10867TIP3    H154092   6.548   0.284  16.466 -3.2595 -2.2551  0.2246
10867TIP3    H254093   6.575   0.362  16.593 -1.7462  0.3975 -1.6272
10868TIP3   OH254094   3.690   0.438   3.085 -0.3883 -0.3216  0.6639
10868TIP3    H154095   3.775   0.446   3.041 -0.0734  1.4837  1.5206
10868TIP3    H254096   3.633   0.397   3.019  0.4827  0.8083 -0.8613
10869TIP3   OH254097   3.695   4.000   3.794 -0.2901 -0.2788  0.3260
10869TIP3    H154098   3.694   3.911   3.831 -0.4311 -0.2113  0.4843
10869TIP3    H254099   3.658   3.990   3.706  0.2953 -0.4859  0.0947
10870TIP3   OH254100   1.730   0.982   4.358  0.2005 -0.4236  0.6257
10870TIP3    H154101   1.798   0.960   4.422  0.6420  2.7557  1.4005
10870TIP3    H254102   1.656   1.011   4.410  0.9145  3.1987 -0.1182
10871TIP3   OH254103   5.050   6.710   0.786 -0.1229 -0.4215  0.1662
10871TIP3    H154104   4.958   6.719   0.762  0.0168  1.3135  0.1628
10871TIP3    H254105   5.079   6.631   0.740 -1.4889 -0.7706 -0.1548
10872TIP3   OH254106   5.073   1.300  15.011 -0.2357 -0.0299 -0.4599
10872TIP3    H154107   5.018   1.249  15.070 -0.7996  0.1427 -0.8335
10872TIP3    H254108   5.162   1.280  15.039 -0.4842 -0.2680  0.1821
10873TIP3   OH254109   4.396   3.290  13.638  0.5299 -0.7503 -0.0432
10873TIP3    H154110   4.314   3.340  13.640  0.1804 -1.3029  1.8833
10873TIP3    H254111   4.372   3.205  13.602  0.3918 -0.6718 -0.1337
10874TIP3   OH254112   1.024   2.721   0.426  0.0539  0.0483  0.2791
10874TIP3    H154113   0.977   2.638   0.435  0.8959 -0.2655  2.3185
10874TIP3    H254114   1.028   2.736   0.332 -0.7606 -1.8393 -0.1020
10875TIP3   OH254115   0.367   0.034  12.289  0.1308 -0.4185  0.5846
10875TIP3    H154116   0.306  -0.036  12.314  1.0909 -0.9826  1.4168
10875TIP3    H254117   0.395   0.071  12.373  2.3430 -1.3976  0.3462
10876TIP3   OH254118   5.628   5.198  15.830 -0.5600  0.0094 -0.0723
10876TIP3    H154119   5.689   5.270  15.845 -1.3981  0.6583  0.3010
10876TIP3    H254120   5.681   5.129  15.791  0.7375  0.0030  1.6001
10877TIP3   OH254121   1.285   3.935  11.892 -0.1486  0.3699 -0.0578
10877TIP3    H154122   1.341   3.998  11.847 -0.6851 -0.2496 -1.7010
10877TIP3    H254123   1.330   3.915  11.973  0.5081  2.1182  0.0330
10878TIP3   OH254124   2.687   1.853  13.424  0.1880 -0.2096 -0.1542
10878TIP3    H154125   2.718   1.922  13.483 -0.2005  0.8865 -1.1963
10878TIP3    H254126   2.765   1.800  13.405  0.8165  0.8244 -0.5050
10879TIP3   OH254127   6.622   1.564   4.401 -0.1552 -0.0664  0.0681
10879TIP3    H154128   6.639   1.611   4.482 -1.2581 -0.2615  0.4307
10879TIP3    H254129   6.709   1.542   4.367  0.3376  1.0215  0.5933
10880TIP3   OH254130   1.895   6.186  13.183  0.2047  0.1832  0.2716
10880TIP3    H154131   1.851   6.249  13.126 -2.6468 -0.5299  1.4980
10880TIP3    H254132   1.940   6.126  13.123 -1.3342  0.4102 -1.1904
10881TIP3   OH254133   1.406   3.299  16.018  0.7751 -0.8099  0.0938
10881TIP3    H154134   1.485   3.261  16.057  0.8513 -2.1766 -1.2809
10881TIP3    H254135   1.436   3.336  15.935  0.3995  0.9249  0.6972
10882TIP3   OH254136   3.389   3.670   2.284 -0.4221  0.0998  0.1339
10882TIP3    H154137   3.446   3.605   2.244  0.6889  0.0753  1.6683
10882TIP3    H254138   3.334   3.620   2.344  1.3749  0.6086  2.3748
10883TIP3   OH254139   2.361   0.803  15.118  0.2052  0.4933  1.0282
10883TIP3    H154140   2.373   0.710  15.136  1.3699  0.1574 -1.1672
10883TIP3    H254141   2.445   0.832  15.084  0.0180  2.4977  2.1359
10884TIP3   OH254142   5.422   5.717  13.594  0.5622 -0.0020 -0.0695
10884TIP3    H154143   5.474   5.671  13.528  0.8166  0.9133 -0.5215
10884TIP3    H254144   5.476   5.792  13.619  0.3411 -0.1740  0.9674
10885TIP3   OH254145   4.488   2.676  13.684  0.1371 -0.0702 -0.0337
10885TIP3    H154146   4.453   2.609  13.742 -0.0727  1.1075  1.2569
10885TIP3    H254147   4.554   2.630  13.632 -0.8171 -1.5204 -0.0128
10886TIP3   OH254148   0.895   0.213  15.244 -0.0807 -0.5996  0.0503
10886TIP3    H154149   0.946   0.264  15.181 -1.4287 -0.8303 -1.2973
10886TIP3    H254150   0.916   0.252  15.329  0.8777  0.5135 -0.6553
10887TIP3   OH254151   6.814   4.476   3.210  0.4259 -0.0709  0.3046
10887TIP3    H154152   6.840   4.433   3.129 -0.6434  0.1964 -0.1891
10887TIP3    H254153   6.830   4.411   3.278  1.4263 -0.2613 -0.0929
10888TIP3   OH254154   5.058   6.245  15.470 -0.4211 -0.3884  0.0463
10888TIP3    H154155   5.084   6.298  15.546  0.2151 -1.3147  0.4959
10888TIP3    H254156   5.138   6.200  15.444  0.1584  2.0500 -3.0165
10889TIP3   OH254157   0.639   3.224   1.320  0.1853  0.4526 -0.9609
10889TIP3    H154158   0.664   3.282   1.248  1.6220  1.1434  0.0502
10889TIP3    H254159   0.719   3.176   1.341 -0.2961  0.0309 -0.0405
10890TIP3   OH254160   1.350   2.821  16.656  0.0465  0.4091 -0.3469
10890TIP3    H154161   1.360   2.726  16.644  0.8167  0.6236 -1.6419
10890TIP3    H254162   1.440   2.854  16.665 -0.1374  1.1175 -0.9606
10891TIP3   OH254163   1.202   0.810  11.486 -0.7233  0.0229  0.4058
10891TIP3    H154164   1.170   0.732  11.441 -0.8168  1.1056 -1.5290
10891TIP3    H254165   1.291   0.788  11.513  0.5015  0.2225 -2.9804
10892TIP3   OH254166   4.647   5.557  11.641  0.1139 -0.2549 -0.1215
10892TIP3    H154167   4.596   5.503  11.581  1.3534 -2.7947  0.9640
10892TIP3    H254168   4.726   5.580  11.592  1.1826 -2.4286  0.4432
10893TIP3   OH254169   1.134   2.909  16.505 -0.4365  0.1273  0.4274
10893TIP3    H154170   1.195   2.859  16.558 -0.3547 -0.7590 -0.4842
10893TIP3    H254171   1.177   2.994  16.493  0.2793 -0.2296  0.4148
10894TIP3   OH254172   6.595   5.376   2.938 -0.2113 -0.0104  0.0612
10894TIP3    H154173   6.635   5.394   3.023  1.2066 -1.5508 -0.2329
10894TIP3    H254174   6.575   5.282   2.940  1.1244 -0.4031 -1.7640
10895TIP3   OH254175   0.013   5.633   4.786  0.5545  0.2646  0.0661
10895TIP3    H154176  -0.076   5.643   4.752  0.7174  0.4944 -0.3061
10895TIP3    H254177   0.059   5.712   4.756  0.9603  0.0085 -0.0011
10896TIP3   OH254178   1.402   5.714  13.453  0.4141 -0.4621  0.1274
10896TIP3    H154179   1.426   5.723  13.360 -1.4491 -1.9425 -0.5532
10896TIP3    H254180   1.408   5.620  13.470  0.0410 -0.2802  1.3272
10897TIP3   OH254181   0.983   4.527  11.216  0.0358 -0.2456 -0.2241
10897TIP3    H154182   1.047   4.477  11.267 -0.0078 -0.9233 -0.8163
10897TIP3    H254183   0.934   4.460  11.168 -0.3987  0.3410 -0.6005
10898TIP3   OH254184   5.167   2.791  16.466 -0.3103 -0.2117  0.0309
10898TIP3    H154185   5.195   2.844  16.392 -2.0354 -0.6641 -0.9954
10898TIP3    H254186   5.162   2.702  16.432  0.6226 -0.7483  1.2000
10899TIP3   OH254187   2.710   5.843   5.343 -0.3278 -0.4047  0.5889
10899TIP3    H154188   2.764   5.922   5.348 -1.9075  0.6666  2.1527
10899TIP3    H254189   2.730   5.806   5.258 -0.6093  2.5492 -0.9165
10900TIP3   OH254190   3.120   6.375  13.148 -0.2722 -0.3070 -0.0993
10900TIP3    H154191   3.214   6.359  13.157 -0.0412  0.7193 -0.5745
10900TIP3    H254192   3.112   6.470  13.146 -1.4836 -0.3131  1.6299
10901TIP3   OH254193   1.055   1.608   5.244  0.2303 -0.3954  0.3728
10901TIP3    H154194   0.962   1.615   5.265 -0.2604 -1.2391 -1.3571
10901TIP3    H254195   1.093   1.689   5.279 -1.2748  0.3050  0.4796
10902TIP3   OH254196   1.282   4.047  11.238 -0.0754 -0.0601  0.1183
10902TIP3    H154197   1.247   4.116  11.295 -1.3241 -0.4672 -0.1245
10902TIP3    H254198   1.250   4.070  11.150  2.0331  0.7024 -0.5322
10903TIP3   OH254199   0.154   0.797   1.991 -0.2670  0.1422  0.1249
10903TIP3    H154200   0.223   0.860   2.012  0.7578 -1.0338  0.4627
10903TIP3    H254201   0.107   0.785   2.074  0.5593 -0.7086  0.4909
10904TIP3   OH254202   6.753   2.834   3.311 -0.2454  0.2084 -0.1040
10904TIP3    H154203   6.746   2.781   3.391  0.7761  0.9537  0.4997
10904TIP3    H254204   6.846   2.855   3.304 -0.4943  1.1165 -0.8602
10905TIP3   OH254205   2.226   4.314  11.427 -0.3041 -0.4989 -0.5891
10905TIP3    H154206   2.176   4.387  11.391 -1.3346 -2.0990 -2.6921
10905TIP3    H254207   2.315   4.329  11.397 -0.4145  0.1276 -0.6137
10906TIP3   OH254208   4.656   2.389  17.120 -0.0250 -0.1007  0.0874
10906TIP3    H154209   4.623   2.337  17.193  1.4693  0.3384  1.1297
10906TIP3    H254210   4.720   2.332  17.077 -0.7543 -0.2840 -0.7713
10907TIP3   OH254211   3.359   3.119  15.894  0.4734  0.9596 -0.5395
10907TIP3    H154212   3.282   3.078  15.854  1.1161  0.5268 -1.3627
10907TIP3    H254213   3.403   3.163  15.821  0.6652  1.7594  0.0451
10908TIP3   OH254214   5.802   6.752   2.200  0.2341 -0.3269  0.1237
10908TIP3    H154215   5.738   6.682   2.189  0.0534 -0.1450  0.0164
10908TIP3    H254216   5.887   6.708   2.190  0.1430 -0.6634  0.8034
10909TIP3   OH254217   5.642   5.404   3.274  0.7658 -0.1533  0.3961
10909TIP3    H154218   5.699   5.334   3.243  1.7265  0.4945  0.6672
10909TIP3    H254219   5.686   5.439   3.352  0.3416  0.7928  0.2259
10910TIP3   OH254220   3.365   0.015  10.759 -0.0062  0.3349  0.2293
10910TIP3    H154221   3.383  -0.078  10.744 -1.6233  0.1101 -0.4801
10910TIP3    H254222   3.383   0.028  10.852  1.0623 -0.4700  0.1562
10911TIP3   OH254223   2.277   5.714  12.830 -0.0815  0.3576 -0.4551
10911TIP3    H154224   2.344   5.755  12.886 -0.1023 -0.7498  0.4252
10911TIP3    H254225   2.210   5.684  12.892 -0.5869 -0.0144 -1.1781
10912TIP3   OH254226   5.118   0.559  15.588  0.0390  0.5532  0.5086
10912TIP3    H154227   5.095   0.614  15.662  1.7361  1.9622  0.0656
10912TIP3    H254228   5.190   0.505  15.619 -1.9577 -1.9655  1.1139
10913TIP3   OH254229   3.359   2.126   2.598  0.0006 -0.3926 -0.0067
10913TIP3    H154230   3.368   2.208   2.648  0.2986  0.0697 -0.8019
10913TIP3    H254231   3.274   2.091   2.625  1.0761 -1.2991  2.4827
10914TIP3   OH254232   2.050   3.905   3.567 -0.3995  0.0258  0.2520
10914TIP3    H154233   2.073   3.836   3.505 -1.1161  0.6098 -0.6945
10914TIP3    H254234   2.001   3.969   3.514 -2.5800 -0.2854  1.7591
10915TIP3   OH254235   2.200   2.880   5.878 -0.0257  0.5751 -0.2747
10915TIP3    H154236   2.218   2.846   5.966  0.0624  1.0601 -0.1029
10915TIP3    H254237   2.207   2.804   5.821  0.4538  0.3570  0.0711
10916TIP3   OH254238   6.703   4.552  14.845 -0.2330 -1.0249 -0.5085
10916TIP3    H154239   6.750   4.512  14.771 -0.5179 -2.2410 -0.0533
10916TIP3    H254240   6.725   4.497  14.920  0.0954  0.2301  0.3403
10917TIP3   OH254241   0.155   5.426   4.878  0.0648 -0.2553  0.1755
10917TIP3    H154242   0.109   5.344   4.859 -1.3313 -0.1762  2.8133
10917TIP3    H254243   0.116   5.489   4.818 -1.8722 -0.6588  0.9305
10918TIP3   OH254244   3.503   1.581  16.985  0.2886 -0.0745 -0.6902
10918TIP3    H154245   3.486   1.532  17.065  2.3316  0.0084 -0.1437
10918TIP3    H254246   3.441   1.546  16.922  0.0690 -1.6705  0.3488
10919TIP3   OH254247   1.496   5.287  11.133  0.1703  0.0651  0.2010
10919TIP3    H154248   1.552   5.365  11.131  1.6248 -0.8985  0.8932
10919TIP3    H254249   1.492   5.263  11.226  2.1267 -2.2581 -0.2093
10920TIP3   OH254250   1.222   4.298  15.422  0.1749  0.2829 -0.4889
10920TIP3    H154251   1.133   4.302  15.388  0.5267 -0.3779 -1.5556
10920TIP3    H254252   1.228   4.213  15.465  0.1089  0.5874  0.1278
10921TIP3   OH254253   4.012   4.381  12.552  0.4745  0.5961  0.3393
10921TIP3    H154254   3.920   4.353  12.551  0.6445 -0.0308 -1.2313
10921TIP3    H254255   4.029   4.409  12.462  1.9498  0.2996  0.5060
10922TIP3   OH254256   3.312   1.020  11.122 -0.0262 -0.0370 -0.1304
10922TIP3    H154257   3.237   1.072  11.152 -1.6580 -1.4551 -1.5571
10922TIP3    H254258   3.334   1.057  11.037  0.5169 -0.0178  0.0174
10923TIP3   OH254259   3.766   2.206  13.652  0.0224  0.1464 -0.1434
10923TIP3    H154260   3.721   2.191  13.570 -0.7751 -0.3779  0.3746
10923TIP3    H254261   3.849   2.158  13.643 -0.2076 -0.1856 -0.5126
10924TIP3   OH254262   0.449   1.416   2.284  0.0518 -0.1102  0.2400
10924TIP3    H154263   0.451   1.404   2.188  0.4820  1.0052  0.1008
10924TIP3    H254264   0.422   1.330   2.317  0.0661 -0.5717 -0.8712
10925TIP3   OH254265   5.167   2.217  12.513 -0.1943 -1.2570 -0.4823
10925TIP3    H154266   5.106   2.150  12.480 -2.9440 -0.4766  2.4532
10925TIP3    H254267   5.226   2.169  12.570  2.1003 -2.0028 -3.2576
10926TIP3   OH254268   4.605   6.231   1.514 -0.3479 -0.6447 -0.1400
10926TIP3    H154269   4.580   6.230   1.606  0.5625 -1.9223  0.1191
10926TIP3    H254270   4.648   6.316   1.501  1.8772 -1.4501  1.3126
10927TIP3   OH254271   1.052   4.151   3.328  0.4982  0.5059  0.1747
10927TIP3    H154272   1.110   4.075   3.331 -0.9299 -0.6513 -0.2539
10927TIP3    H254273   1.064   4.193   3.413  1.4931 -0.0633  0.3341
10928TIP3   OH254274   2.668   4.155   4.450 -0.0939 -0.4742 -0.2904
10928TIP3    H154275   2.655   4.227   4.512 -0.6864 -0.0385 -0.9070
10928TIP3    H254276   2.587   4.103   4.455  0.0815 -0.7490 -0.2917
10929TIP3   OH254277   0.027   5.589  11.198  0.3029 -0.2775 -0.0101
10929TIP3    H154278   0.091   5.518  11.203  1.2335  0.5047 -0.7087
10929TIP3    H254279  -0.047   5.551  11.150 -0.1495 -1.4384  1.4899
10930TIP3   OH254280   1.167   5.882   0.032  0.4330  0.4982  0.4520
10930TIP3    H154281   1.196   5.902   0.120  1.8635 -1.4171  0.4833
10930TIP3    H254282   1.240   5.907  -0.024 -0.2305  1.1515 -0.1432
10931TIP3   OH254283   0.838   4.503   2.141 -0.3296  0.6731 -0.2431
10931TIP3    H154284   0.924   4.543   2.139 -0.6431  1.4706  1.1672
10931TIP3    H254285   0.783   4.560   2.087 -0.5075  1.5384  0.8184
10932TIP3   OH254286   4.405   1.035  13.060 -0.3251  0.3062 -0.2399
10932TIP3    H154287   4.402   0.952  13.108  0.8503 -0.4652 -1.4394
10932TIP3    H254288   4.419   1.010  12.969 -2.7383  1.7359 -1.0727
10933TIP3   OH254289   5.463   6.154   0.896 -0.5349 -0.0271  0.5047
10933TIP3    H154290   5.523   6.102   0.948  1.0313  1.2724  0.0711
10933TIP3    H254291   5.420   6.212   0.960 -1.2221 -0.8287  0.7879
10934TIP3   OH254292   1.053   2.342   1.197  0.8266  0.0985 -0.2296
10934TIP3    H154293   0.976   2.398   1.195  0.3501 -0.5430 -0.0053
10934TIP3    H254294   1.090   2.348   1.108  1.2985  1.4562  0.0308
10935TIP3   OH254295   3.433   2.098   3.508  0.3931 -0.0642 -0.9289
10935TIP3    H154296   3.402   2.170   3.454  1.9915  1.2500 -0.1736
10935TIP3    H254297   3.527   2.114   3.519  0.2039 -0.3965  2.0178
10936TIP3   OH254298   5.933   5.881   2.648  0.2559  0.5308 -0.2631
10936TIP3    H154299   5.991   5.885   2.724  1.9225 -0.9943 -1.3664
10936TIP3    H254300   5.968   5.947   2.588  0.6350 -0.1145 -0.7682
10937TIP3   OH254301   3.957   0.427   5.556 -0.2753  0.1300 -0.3815
10937TIP3    H154302   3.997   0.402   5.472 -0.1470  0.0899 -0.3087
10937TIP3    H254303   3.965   0.523   5.557 -0.5152  0.1523 -0.5334
10938TIP3   OH254304   1.674   5.572   0.400  0.7374  0.3811 -0.6438
10938TIP3    H154305   1.766   5.583   0.377  1.8481 -2.1326  1.9847
10938TIP3    H254306   1.658   5.478   0.390 -1.3101  0.6600 -0.3374
10939TIP3   OH254307   1.150   0.017   4.558  0.5530 -0.2616 -0.0329
10939TIP3    H154308   1.208   0.056   4.492  2.3570 -0.0870  1.5792
10939TIP3    H254309   1.152  -0.077   4.538  1.0959 -0.2164 -0.2087
10940TIP3   OH254310   5.300   6.169  15.352  0.0929  0.3119  0.2809
10940TIP3    H154311   5.364   6.224  15.397  0.5347  0.2143 -0.2086
10940TIP3    H254312   5.286   6.213  15.268 -0.8566  0.5933  0.5674
10941TIP3   OH254313   4.720   3.480  10.667 -0.1007 -0.8284 -0.0699
10941TIP3    H154314   4.749   3.419  10.599  2.1017 -0.8990  0.8439
10941TIP3    H254315   4.733   3.433  10.749 -0.1848  0.1784  0.5377
10942TIP3   OH254316   3.436   1.183  13.282  0.5612 -0.1331 -0.4318
10942TIP3    H154317   3.385   1.165  13.361 -0.4758  0.2622 -1.0053
10942TIP3    H254318   3.443   1.098  13.238 -0.1524 -0.0710 -0.6726
10943TIP3   OH254319   6.588   6.752  12.637 -0.0254  0.6644  0.3320
10943TIP3    H154320   6.657   6.747  12.703  1.7187 -1.2688 -1.4808
10943TIP3    H254321   6.517   6.698  12.672  1.3620 -1.3679  0.2096
10944TIP3   OH254322   2.566   2.850  13.940 -0.2686 -0.4967 -0.2825
10944TIP3    H154323   2.656   2.817  13.932  0.4142  0.6938  1.7994
10944TIP3    H254324   2.569   2.936  13.898 -0.6854 -0.7927 -0.9435
10945TIP3   OH254325   3.499   4.165   1.210 -0.3321 -0.3136  0.1691
10945TIP3    H154326   3.559   4.103   1.252  1.2929  1.6443  0.9218
10945TIP3    H254327   3.553   4.211   1.146 -1.5608  0.1583 -0.5740
10946TIP3   OH254328   5.175   1.381  13.939  0.6943  0.1838 -0.0462
10946TIP3    H154329   5.134   1.452  13.989 -1.2820 -2.1942  1.9343
10946TIP3    H254330   5.118   1.370  13.863  1.9040  1.6583 -1.2443
10947TIP3   OH254331   6.283   5.929  13.388 -0.0572  0.2471 -0.2652
10947TIP3    H154332   6.208   5.988  13.387 -0.5297 -0.3620 -1.0199
10947TIP3    H254333   6.276   5.884  13.473 -1.0596 -0.4469 -0.6956
10948TIP3   OH254334   6.451   1.130   5.305  0.1522 -0.4361 -0.2080
10948TIP3    H154335   6.371   1.105   5.258  0.0413 -0.0156 -0.2457
10948TIP3    H254336   6.518   1.070   5.272  0.3717  0.6252 -1.8381
10949TIP3   OH254337   2.406   6.331  11.770  0.4649  0.3825 -0.5141
10949TIP3    H154338   2.470   6.267  11.800  0.3063  0.3435 -0.2622
10949TIP3    H254339   2.367   6.366  11.850  0.1121  0.3488 -0.6685
10950TIP3   OH254340   3.169   3.142   0.696 -0.0070 -0.4526  0.2390
10950TIP3    H154341   3.262   3.143   0.673  0.2444  0.1921  1.2308
10950TIP3    H254342   3.127   3.097   0.623  0.9267  0.3231 -0.8153
10951TIP3   OH254343   0.822   3.524   3.690  0.1673  0.1052  0.1009
10951TIP3    H154344   0.838   3.541   3.783 -1.6996 -1.1908  0.7388
10951TIP3    H254345   0.841   3.607   3.647  0.7441  0.8459  1.6803
10952TIP3   OH254346   2.391   2.191   1.925  0.6008  0.8512  0.2128
10952TIP3    H154347   2.431   2.273   1.897 -0.4302  0.8930 -1.2287
10952TIP3    H254348   2.348   2.157   1.847 -0.4343 -0.2135  1.2035
10953TIP3   OH254349   6.710   3.389  15.882  0.0343  0.2818  0.3444
10953TIP3    H154350   6.713   3.373  15.788 -1.1752 -0.7897  0.4588
10953TIP3    H254351   6.626   3.433  15.896 -0.2467 -0.4344  1.0182
10954TIP3   OH254352   1.844   6.664  14.546 -0.6612 -0.6083 -0.3614
10954TIP3    H154353   1.909   6.709  14.492 -1.6050  1.8386  0.4245
10954TIP3    H254354   1.783   6.625  14.484  0.7392 -1.7625 -1.0789
10955TIP3   OH254355   5.416   0.936  11.130  0.1876 -0.0669  0.1683
10955TIP3    H154356   5.467   0.905  11.055  0.2031  1.2803 -0.4039
10955TIP3    H254357   5.398   1.028  11.111  1.2871  0.6799  2.4020
10956TIP3   OH254358   2.653   5.735   1.804  0.0288 -0.5544  0.0323
10956TIP3    H154359   2.747   5.752   1.815 -0.1533 -0.6082  2.1047
10956TIP3    H254360   2.648   5.641   1.787  0.3319 -0.6260  0.3116
10957TIP3   OH254361   0.775   6.098  16.083  0.6266 -0.0495  0.3853
10957TIP3    H154362   0.859   6.078  16.043  0.7830 -1.5022  1.3745
10957TIP3    H254363   0.779   6.192  16.103  1.8691 -0.0350  0.1190
10958TIP3   OH254364   3.601   5.501  11.052 -0.0001  0.1172  0.2342
10958TIP3    H154365   3.693   5.522  11.035  0.1599 -0.9622 -0.3293
10958TIP3    H254366   3.604   5.416  11.096 -0.7769 -0.5620 -0.9831
10959TIP3   OH254367   4.048   5.252   3.493  0.1272  0.1841 -0.5536
10959TIP3    H154368   3.966   5.301   3.505  0.4063  1.0201 -1.8978
10959TIP3    H254369   4.105   5.284   3.564 -0.3133  0.4422 -0.3068
10960TIP3   OH254370   3.393   4.429  12.508 -0.2382  0.5695 -0.7930
10960TIP3    H154371   3.346   4.375  12.572  0.5481  1.0588  0.2234
10960TIP3    H254372   3.409   4.370  12.434 -0.5603 -0.2008 -0.2601
10961TIP3   OH254373   2.669   5.460  14.121 -0.1159  0.1183 -0.4895
10961TIP3    H154374   2.745   5.512  14.146  0.0090  0.1808 -0.9829
10961TIP3    H254375   2.652   5.483  14.029 -0.6835  0.0490 -0.4108
10962TIP3   OH254376   1.448   1.078  15.186  0.2262 -0.2051  0.0651
10962TIP3    H154377   1.518   1.131  15.223  0.2176  0.0035 -0.2096
10962TIP3    H254378   1.460   1.086  15.091  0.3272 -0.8295  0.0231
10963TIP3   OH254379   3.288   3.348  13.931  0.0362  0.1092  0.1642
10963TIP3    H154380   3.366   3.384  13.889 -0.7919  2.2677  0.3495
10963TIP3    H254381   3.219   3.357  13.865 -0.1529 -1.6416  0.0544
10964TIP3   OH254382   0.282   0.992   6.407  0.4887 -0.3941  0.2982
10964TIP3    H154383   0.272   0.942   6.326 -0.2372 -0.5359  0.4647
10964TIP3    H254384   0.208   1.053   6.407  2.0948  1.7311 -0.6036
10965TIP3   OH254385   1.433   2.755   1.604 -0.2485  0.6033 -0.1338
10965TIP3    H154386   1.528   2.765   1.604 -0.1646 -0.0329  0.6814
10965TIP3    H254387   1.401   2.834   1.647 -0.0222  0.4119  0.3971
10966TIP3   OH254388   2.081   2.744  13.593  1.1923 -0.4204 -0.0498
10966TIP3    H154389   2.175   2.728  13.580  1.1818  0.4366 -1.3736
10966TIP3    H254390   2.072   2.839  13.588  0.4906 -0.3495  1.9247
10967TIP3   OH254391   2.627   5.634  15.422  0.0350 -0.6660 -0.4036
10967TIP3    H154392   2.618   5.721  15.462  1.2221  0.8744 -3.1809
10967TIP3    H254393   2.542   5.619  15.381 -0.2175 -0.9136  0.1939
10968TIP3   OH254394   3.184   0.095   3.039  0.0678  0.0177  0.2594
10968TIP3    H154395   3.122   0.087   3.111 -1.0867  0.2794 -0.6851
10968TIP3    H254396   3.194   0.189   3.026 -0.0746 -0.0335 -0.2150
10969TIP3   OH254397   3.947   1.438   1.437  0.0183  0.4173  0.1177
10969TIP3    H154398   3.916   1.492   1.364 -1.2283  0.6922  0.8132
10969TIP3    H254399   3.961   1.500   1.509  0.2286  0.0272  0.4163
10970TIP3   OH254400   5.297   6.389  13.286 -0.4775  0.4306  0.0213
10970TIP3    H154401   5.385   6.409  13.254  0.7089 -1.7366  1.6685
10970TIP3    H254402   5.277   6.302  13.252 -2.1030  0.9692 -0.4907
10971TIP3   OH254403   6.484   6.493  13.682  0.0809 -0.6284 -0.3685
10971TIP3    H154404   6.532   6.433  13.626  0.3794 -1.7379  1.0118
10971TIP3    H254405   6.550   6.555  13.713 -0.1102  0.0680 -1.3092
10972TIP3   OH254406   2.235   1.640   3.854 -0.3675 -0.1751  0.2244
10972TIP3    H154407   2.245   1.674   3.765  3.2765 -0.7829  0.2494
10972TIP3    H254408   2.237   1.545   3.844  0.2897 -0.2447  0.9217
10973TIP3   OH254409   4.173   0.201  16.522  0.0464  0.3205 -0.2107
10973TIP3    H154410   4.260   0.166  16.503 -0.3403 -0.9526  0.2313
10973TIP3    H254411   4.165   0.277  16.465  1.4104  0.4123 -0.3148
10974TIP3   OH254412   3.325   6.130  13.506  0.3131  0.7708 -0.1874
10974TIP3    H154413   3.253   6.179  13.468  0.6513  0.3220 -1.4744
10974TIP3    H254414   3.299   6.038  13.499  0.0826  0.6811  1.3593
10975TIP3   OH254415   4.373   2.807  14.123 -0.1554 -0.2646  0.4680
10975TIP3    H154416   4.390   2.889  14.170  2.7863 -0.1611 -0.5885
10975TIP3    H254417   4.459   2.769  14.109 -1.4133 -3.6710  0.9929
10976TIP3   OH254418   3.479   1.898   6.814  0.6078  0.2069  0.2451
10976TIP3    H154419   3.420   1.897   6.889  0.9456 -2.2107  0.5743
10976TIP3    H254420   3.566   1.909   6.853  0.7311 -0.5203  0.2020
10977TIP3   OH254421   4.564   3.083   2.061  0.0690  0.5998  0.4183
10977TIP3    H154422   4.550   3.027   2.138 -2.2300 -0.1116 -0.4236
10977TIP3    H254423   4.575   3.171   2.097 -0.2184  0.1763  1.5961
10978TIP3   OH254424   5.904   6.118  15.150  0.5471 -0.2727 -0.1540
10978TIP3    H154425   5.916   6.177  15.075  0.9176 -0.0580  0.0704
10978TIP3    H254426   5.890   6.176  15.225 -0.9682 -0.5004 -0.2255
10979TIP3   OH254427   0.550   3.056   5.082 -0.0870  0.4265 -0.1660
10979TIP3    H154428   0.469   3.018   5.050 -0.6046  0.5791  0.9506
10979TIP3    H254429   0.540   3.150   5.069  0.6276  0.3326 -1.6226
10980TIP3   OH254430   6.592   1.303  12.323  0.6902  0.4182 -0.8150
10980TIP3    H154431   6.551   1.228  12.367 -0.0710  1.4388  0.2781
10980TIP3    H254432   6.528   1.331  12.258  0.5099  0.7862 -0.4792
10981TIP3   OH254433   2.947   0.155  16.289  0.4277 -0.2816  0.1197
10981TIP3    H154434   2.894   0.118  16.219 -0.0285 -0.0199  0.3256
10981TIP3    H254435   2.992   0.229  16.248  0.8460 -0.6649 -0.1244
10982TIP3   OH254436   4.435   6.183  16.100  0.2941 -0.3659 -0.0190
10982TIP3    H154437   4.519   6.205  16.060  0.6462 -1.5493  0.0527
10982TIP3    H254438   4.397   6.268  16.124  1.3041  0.1959 -0.3710
10983TIP3   OH254439   3.656   6.392  13.674 -0.0736  0.1234  0.0846
10983TIP3    H154440   3.733   6.338  13.655  0.9028  2.0934 -1.9494
10983TIP3    H254441   3.689   6.464  13.727 -1.0560 -0.3031  1.3441
10984TIP3   OH254442   5.217   2.990  12.390 -0.2489  0.4200  0.2914
10984TIP3    H154443   5.230   3.082  12.366 -2.0691  0.3983 -0.9286
10984TIP3    H254444   5.242   2.941  12.312 -1.9030  0.0791 -0.0649
10985TIP3   OH254445   1.337   6.685   3.740  0.1127 -0.0388  0.0635
10985TIP3    H154446   1.264   6.694   3.801  0.4326  1.8669  0.2158
10985TIP3    H254447   1.301   6.634   3.668 -0.8014 -0.7724  1.0005
10986TIP3   OH254448   0.284   0.304  15.903  0.3684 -0.1771  0.0330
10986TIP3    H154449   0.231   0.286  15.824 -0.4073 -0.4555  0.5990
10986TIP3    H254450   0.373   0.282  15.877  0.0760 -0.5782 -0.6753
10987TIP3   OH254451   0.421   3.969   2.322  0.1022 -0.5691 -0.1264
10987TIP3    H154452   0.394   4.040   2.263  0.9842 -0.1085  0.0066
10987TIP3    H254453   0.431   4.010   2.407 -0.4206 -1.0809  0.1891
10988TIP3   OH254454   5.855   3.639   3.212  0.3739 -0.2420  0.3164
10988TIP3    H154455   5.765   3.611   3.198  0.3598 -0.2593  0.4453
10988TIP3    H254456   5.887   3.661   3.124  0.2200 -0.1594  0.2805
10989TIP3   OH254457   5.414   3.592   1.051  0.4400  0.5615 -0.1231
10989TIP3    H154458   5.508   3.596   1.066  0.3448 -0.6467  0.9516
10989TIP3    H254459   5.383   3.524   1.110 -1.1882  1.2630 -0.1190
10990TIP3   OH254460   3.351   3.682  17.035  0.9387  0.0945 -0.6681
10990TIP3    H154461   3.365   3.690  17.130  0.0556  0.4343 -0.5561
10990TIP3    H254462   3.396   3.758  16.998 -0.3882  1.0849 -0.3320
10991TIP3   OH254463   6.146   4.097  16.159  0.1532 -0.8036 -0.3038
10991TIP3    H154464   6.119   4.005  16.161 -0.5484 -0.6043  1.5645
10991TIP3    H254465   6.074   4.142  16.116  1.0966 -1.2522 -2.4776
10992TIP3   OH254466   0.520   3.693  17.006 -0.0818 -0.2760 -0.9707
10992TIP3    H154467   0.550   3.606  16.979  1.1478  0.0820 -0.8056
10992TIP3    H254468   0.460   3.720  16.937  0.3469 -0.8113 -1.5623
10993TIP3   OH254469   3.959   5.039   4.242  0.4787  0.0590 -0.1333
10993TIP3    H154470   4.032   5.062   4.185 -1.4729  3.7148 -1.4441
10993TIP3    H254471   3.898   4.991   4.186  0.6032 -0.5630  0.2414
10994TIP3   OH254472   6.049   4.198   3.029 -0.3515 -0.1761  0.4710
10994TIP3    H154473   6.004   4.172   2.949  1.2680 -0.4432 -0.3924
10994TIP3    H254474   6.000   4.155   3.099 -2.3112  0.7572 -0.2585
10995TIP3   OH254475   5.758   4.958  15.352 -0.3020 -0.4160  0.1042
10995TIP3    H154476   5.789   4.999  15.271 -0.6861  0.5619  0.4525
10995TIP3    H254477   5.819   4.885  15.366  1.1549  0.7721  0.1526
10996TIP3   OH254478   2.963   3.116   0.403  0.0557  0.3527 -0.4055
10996TIP3    H154479   2.999   3.128   0.316 -0.5257  1.4125 -0.5145
10996TIP3    H254480   2.964   3.204   0.442 -0.0441 -0.0395  0.5178
10997TIP3   OH254481   1.885   2.147  16.289 -0.6079 -0.2164  0.0558
10997TIP3    H154482   1.960   2.130  16.346 -0.9881 -0.5506  0.4630
10997TIP3    H254483   1.921   2.202  16.218  0.6135 -2.4229 -1.1635
10998TIP3   OH254484   3.490   5.046   5.085  0.3069  0.1382 -0.6172
10998TIP3    H154485   3.413   5.099   5.108  0.7509  0.8261 -0.6926
10998TIP3    H254486   3.494   4.979   5.153  0.2823  0.7738  0.0234
10999TIP3   OH254487   4.813   4.566  12.949  0.3458  0.5077 -0.3082
10999TIP3    H154488   4.855   4.496  13.000  1.0821  1.1627  0.0117
10999TIP3    H254489   4.847   4.554  12.860 -0.8176 -0.5404 -0.6285
11000TIP3   OH254490   5.318   3.639  11.624 -0.5308 -0.0506 -0.0547
11000TIP3    H154491   5.378   3.631  11.550 -0.5601 -0.3077 -0.0494
11000TIP3    H254492   5.316   3.733  11.643  1.6907 -0.2123  1.4252
11001TIP3   OH254493   1.138   1.921  11.512  0.2523  0.4632 -0.0772
11001TIP3    H154494   1.078   1.936  11.438  0.9894 -1.0762 -1.0253
11001TIP3    H254495   1.088   1.951  11.589 -1.9317 -1.0879 -0.7726
11002TIP3   OH254496   6.752   6.710  12.414 -0.3748 -0.3170 -0.2647
11002TIP3    H154497   6.702   6.705  12.496  3.6123 -2.0832  2.4074
11002TIP3    H254498   6.804   6.790  12.423  0.7253 -0.9703 -0.6250
11003TIP3   OH254499   3.263   2.307  11.605 -0.4191  0.3702 -0.1450
11003TIP3    H154500   3.259   2.355  11.688 -0.6629  0.1105 -0.0047
11003TIP3    H254501   3.328   2.239  11.620  1.2336  1.7061 -0.9100
11004TIP3   OH254502   6.622   4.386  12.238  0.5402  0.4347 -0.4068
11004TIP3    H154503   6.614   4.293  12.218  2.2979  0.1245  0.1508
11004TIP3    H254504   6.605   4.392  12.332  1.8815  0.4146 -0.1354
11005TIP3   OH254505   6.342   5.283   6.466  0.1964 -0.1097 -0.0720
11005TIP3    H154506   6.362   5.231   6.388 -0.5647 -0.3245 -0.1306
11005TIP3    H254507   6.248   5.270   6.480  0.4725 -0.7270  1.3565
11006TIP3   OH254508   0.910   0.976  15.590 -0.0881  0.1806  0.2973
11006TIP3    H154509   0.952   1.058  15.616 -1.1179  0.2225  1.9599
11006TIP3    H254510   0.964   0.908  15.631 -1.3259  0.2179  2.0731
11007TIP3   OH254511   1.668   5.091  14.123  0.2471  0.0069 -0.5459
11007TIP3    H154512   1.589   5.041  14.101  0.6954 -0.7611 -0.4388
11007TIP3    H254513   1.710   5.107  14.038 -1.0607  2.2495 -0.8597
11008TIP3   OH254514   5.846   6.655  13.323  0.5121  0.2391 -0.3058
11008TIP3    H154515   5.804   6.708  13.391  1.3165 -0.3906  0.7274
11008TIP3    H254516   5.774   6.613  13.276 -0.0503  0.2310  0.5470
11009TIP3   OH254517   3.340   1.553   1.416  0.4095  0.4338  0.6946
11009TIP3    H154518   3.431   1.579   1.432  0.7817 -0.7117  0.5354
11009TIP3    H254519   3.344   1.500   1.336 -0.4729  0.7473  0.4323
11010TIP3   OH254520   6.046   2.902   3.299  0.3851  0.0374 -0.3835
11010TIP3    H154521   6.018   2.961   3.369 -0.9297  0.3408 -1.1263
11010TIP3    H254522   6.138   2.925   3.284  0.1978  1.1742  0.0711
11011TIP3   OH254523   0.801   3.661   4.996  0.0924  0.2313  0.3300
11011TIP3    H154524   0.778   3.595   4.929  0.2959  0.6103 -0.1190
11011TIP3    H254525   0.787   3.745   4.952 -0.8446  0.5079  1.1256
11012TIP3   OH254526   5.103   3.463  16.701 -0.5712 -0.1882  0.0144
11012TIP3    H154527   5.027   3.490  16.753  1.0705  1.0640  1.9427
11012TIP3    H254528   5.135   3.385  16.745  0.9432  0.9869  1.1460
11013TIP3   OH254529   3.033   2.225  13.983 -0.4030 -0.4883  0.6804
11013TIP3    H154530   3.103   2.280  14.017  0.0931 -0.3780 -0.4746
11013TIP3    H254531   2.965   2.286  13.954 -0.1342 -0.5010  0.0049
11014TIP3   OH254532   2.372   3.589   1.606 -0.2594  0.2878  0.3936
11014TIP3    H154533   2.435   3.633   1.550  2.1892 -1.3513  1.6794
11014TIP3    H254534   2.310   3.549   1.546  0.6742  0.8609 -0.9999
11015TIP3   OH254535   0.960   5.692  14.191  0.3423 -0.1287  0.0616
11015TIP3    H154536   0.948   5.679  14.097 -2.1943  1.8671 -0.0060
11015TIP3    H254537   1.049   5.726  14.200  0.5892 -0.2383 -1.6219
11016TIP3   OH254538   5.135   0.882   1.327 -0.0294 -0.2894 -0.0346
11016TIP3    H154539   5.072   0.925   1.385 -0.4716 -1.7544  0.6110
11016TIP3    H254540   5.083   0.815   1.281  0.6838 -0.3093 -0.8440
11017TIP3   OH254541   3.907   0.964  13.873  0.0648 -0.1302 -0.1824
11017TIP3    H154542   3.956   0.965  13.955  0.4194 -0.6651 -0.3880
11017TIP3    H254543   3.972   0.946  13.805 -0.2189  0.3377 -0.5934
11018TIP3   OH254544   1.180   3.918  15.044  0.1588  0.0074  0.2305
11018TIP3    H154545   1.157   3.991  15.101 -2.3345  0.0627 -0.7182
11018TIP3    H254546   1.238   3.863  15.097  2.9052  3.0061  0.7086
11019TIP3   OH254547   5.589   5.162  11.903  0.3201  0.7504 -0.3163
11019TIP3    H154548   5.583   5.257  11.908 -1.4461  0.6740 -0.2620
11019TIP3    H254549   5.675   5.145  11.863 -0.3245  2.4259 -2.6324
11020TIP3   OH254550   1.702   6.556   0.849  0.6164  0.7097  0.3073
11020TIP3    H154551   1.649   6.521   0.921 -0.1963  0.2013 -0.5179
11020TIP3    H254552   1.662   6.641   0.830  0.3796  0.5289 -0.0110
11021TIP3   OH254553   1.433   1.372  16.385  0.5228 -0.0154  0.0866
11021TIP3    H154554   1.428   1.425  16.464  0.0966 -2.1661  1.5964
11021TIP3    H254555   1.519   1.329  16.389  0.1543 -0.8049 -0.1404
11022TIP3   OH254556   3.668   4.968  17.129  0.4223 -0.0758 -0.5736
11022TIP3    H154557   3.598   5.010  17.179 -0.2937  0.6389 -2.1203
11022TIP3    H254558   3.630   4.886  17.098  0.3828  0.1332 -1.0940
11023TIP3   OH254559   6.388   6.446   4.624  0.1458  0.1285  0.1987
11023TIP3    H154560   6.416   6.388   4.695  1.0576  0.9318  0.5152
11023TIP3    H254561   6.445   6.424   4.551 -1.3068 -1.2460 -0.5811
11024TIP3   OH254562   4.953   2.006   5.705 -0.1045 -0.0594  0.2181
11024TIP3    H154563   4.946   1.982   5.798 -1.1133 -1.4934 -0.2031
11024TIP3    H254564   4.981   1.926   5.662  0.6943  0.6934 -0.6891
11025TIP3   OH254565   4.483   3.374  17.298  0.3806 -0.1172 -0.0876
11025TIP3    H154566   4.431   3.307  17.343  0.0065  0.1943 -0.0541
11025TIP3    H254567   4.507   3.435  17.367  2.9135 -1.5435  0.4075
11026TIP3   OH254568   3.863   6.804  16.377  0.0550  0.6320 -0.2003
11026TIP3    H154569   3.841   6.863  16.448 -0.6490  0.3417 -0.1668
11026TIP3    H254570   3.858   6.716  16.415  1.4216  0.5570 -0.1641
11027TIP3   OH254571   1.453   5.871   1.436  0.1640  0.0137  0.0234
11027TIP3    H154572   1.520   5.939   1.423  0.7323 -0.6397 -0.5595
11027TIP3    H254573   1.467   5.810   1.364 -0.0839 -0.9386  0.7617
11028TIP3   OH254574   0.746   3.116   3.846  0.2152 -0.2504 -0.0582
11028TIP3    H154575   0.657   3.083   3.850  0.4891 -0.9108  0.7917
11028TIP3    H254576   0.756   3.171   3.924  1.0464 -1.4917  0.7426
11029TIP3   OH254577   0.552   6.337   5.304 -0.1789  0.0661  0.0076
11029TIP3    H154578   0.642   6.320   5.330 -0.0377  2.6168  1.5387
11029TIP3    H254579   0.499   6.288   5.367  0.1638  0.1762  0.3871
11030TIP3   OH254580   4.538   3.500   3.275 -0.0351  0.0630  0.1937
11030TIP3    H154581   4.482   3.422   3.282  2.9815 -2.2269  1.1760
11030TIP3    H254582   4.521   3.549   3.355 -2.2308  0.7049 -0.5933
11031TIP3   OH254583   6.521   0.117  12.443 -0.6026  0.0156 -0.0182
11031TIP3    H154584   6.534   0.064  12.522 -0.8840  0.1765  0.1377
11031TIP3    H254585   6.440   0.084  12.405 -1.5870  1.2976  0.8736
11032TIP3   OH254586   0.311   2.854   1.146  0.1114  0.2519 -0.8670
11032TIP3    H154587   0.380   2.830   1.207 -0.2210 -0.2885 -0.6935
11032TIP3    H254588   0.316   2.949   1.139 -0.1184  0.3600  0.3242
11033TIP3   OH254589   4.167   6.133  11.945 -0.6714  0.3661  0.4171
11033TIP3    H154590   4.132   6.206  11.894 -0.9155  0.2374  0.4001
11033TIP3    H254591   4.234   6.095  11.888 -0.2203  0.8546  0.6093
11034TIP3   OH254592   2.560   2.926  16.944  0.0391  0.0994 -0.3361
11034TIP3    H154593   2.632   2.936  16.882  0.1366 -0.3060 -0.2881
11034TIP3    H254594   2.596   2.954  17.028  1.4541 -3.8196  0.5823
11035TIP3   OH254595   0.966   5.507   3.510  0.4334  0.2995  0.0075
11035TIP3    H154596   0.992   5.460   3.431  2.5172 -0.6482  1.1818
11035TIP3    H254597   0.951   5.597   3.481  0.3789 -0.2003 -1.5787
11036TIP3   OH254598   4.171   3.665   4.770  0.3053 -0.1158 -0.6608
11036TIP3    H154599   4.141   3.577   4.793 -0.5801  0.2621 -0.3224
11036TIP3    H254600   4.177   3.664   4.674 -1.8204  0.0853 -0.8354
11037TIP3   OH254601   4.078   1.811  14.796 -0.6758 -0.5811  0.0995
11037TIP3    H154602   4.042   1.787  14.710 -0.9179  1.3574 -0.3910
11037TIP3    H254603   4.157   1.860  14.775 -0.1226 -1.0282  1.0511
11038TIP3   OH254604   1.273   1.984   4.638 -0.3834  0.2982 -0.2538
11038TIP3    H154605   1.260   1.890   4.631 -2.0954  0.3308  1.4880
11038TIP3    H254606   1.212   2.021   4.573 -0.6972  0.2182 -0.0090
11039TIP3   OH254607   4.631   2.146  13.201 -0.0514  0.2956  0.2152
11039TIP3    H154608   4.550   2.099  13.183  0.8178 -0.8286 -0.8600
11039TIP3    H254609   4.686   2.083  13.247  0.4550  0.8472  0.3739
11040TIP3   OH254610   4.602   3.773  14.139  0.2640  0.2634  0.3424
11040TIP3    H154611   4.600   3.678  14.148 -0.6676  0.3251  1.0077
11040TIP3    H254612   4.691   3.793  14.112  0.5484 -0.7771  0.4609
11041TIP3   OH254613   2.309   0.990   0.730 -0.1117  0.2172  0.0715
11041TIP3    H154614   2.271   1.051   0.793 -0.3837 -0.4150  0.5271
11041TIP3    H254615   2.382   1.038   0.691 -0.8428  1.1464 -0.1992
11042TIP3   OH254616   3.241   2.510   4.433 -0.5286  0.2106 -0.1110
11042TIP3    H154617   3.276   2.594   4.403  0.0949 -0.1768 -0.4909
11042TIP3    H254618   3.250   2.513   4.528 -2.1415  1.2806  0.0508
11043TIP3   OH254619   6.346   5.721  16.233  0.1043 -0.0612 -0.0375
11043TIP3    H154620   6.281   5.734  16.164  0.0191 -0.2953 -0.0052
11043TIP3    H254621   6.345   5.802  16.283 -0.0054  0.0199 -0.1700
11044TIP3   OH254622   3.200   5.879   1.019  0.0798  0.7924  0.5615
11044TIP3    H154623   3.123   5.855   1.071 -0.6823  1.2418 -0.3161
11044TIP3    H254624   3.272   5.882   1.082 -0.2952 -1.1192  1.1698
11045TIP3   OH254625   3.955   0.231  15.530  0.1348 -0.8631  1.0192
11045TIP3    H154626   4.042   0.249  15.492 -0.5058  0.5572  0.1265
11045TIP3    H254627   3.934   0.311  15.579 -0.2230 -1.6309  2.1602
11046TIP3   OH254628   3.244   6.262   2.413 -0.0442  0.0379  0.6036
11046TIP3    H154629   3.229   6.227   2.325  0.8228 -0.6311  0.7104
11046TIP3    H254630   3.239   6.357   2.403  0.1444 -0.0331 -0.1919
11047TIP3   OH254631   0.825   3.155   2.627 -0.5939  0.0884  0.4174
11047TIP3    H154632   0.805   3.062   2.640 -2.0898  0.5482  1.7096
11047TIP3    H254633   0.919   3.161   2.643 -0.5141 -1.1660  0.5555
11048TIP3   OH254634   4.130   0.068  15.686  0.1792 -0.5634  0.0024
11048TIP3    H154635   4.074   0.137  15.649  0.6470 -0.4729 -0.5577
11048TIP3    H254636   4.088   0.045  15.769  1.6517  2.5577  1.7901
11049TIP3   OH254637   2.768   1.616   5.143 -0.2111 -0.3201 -0.1694
11049TIP3    H154638   2.722   1.548   5.193 -1.2119 -0.2878 -1.0039
11049TIP3    H254639   2.843   1.570   5.104  0.0975 -0.5377  0.6509
11050TIP3   OH254640   2.122   2.016  16.393  0.2587 -0.7258  0.2113
11050TIP3    H154641   2.193   2.010  16.329  0.3937 -0.5474  0.3422
11050TIP3    H254642   2.154   1.968  16.470  0.3149 -0.4842  0.3404
11051TIP3   OH254643   0.125   4.098   0.444  0.6094 -0.2529  0.1344
11051TIP3    H154644   0.129   4.167   0.510  0.6924  0.0222 -0.1526
11051TIP3    H254645   0.170   4.136   0.368  2.0006 -1.1590  0.4579
11052TIP3   OH254646   1.154   0.698   5.185 -0.2473 -0.3814  0.7387
11052TIP3    H154647   1.172   0.604   5.177 -1.5352 -0.6162  0.3258
11052TIP3    H254648   1.059   0.703   5.198 -0.4251  0.9319 -0.7233
11053TIP3   OH254649   1.628   0.532   5.588 -0.1324  0.2985  0.2423
11053TIP3    H154650   1.713   0.566   5.616 -0.6786  0.2208  2.0844
11053TIP3    H254651   1.639   0.437   5.584 -0.3332  0.2131  1.3212
11054TIP3   OH254652   3.943   2.119  16.860 -0.1787  0.5111  0.1477
11054TIP3    H154653   3.952   2.181  16.932 -0.7927 -0.3007  0.9436
11054TIP3    H254654   4.003   2.048  16.883  2.1030  1.6795 -1.7755
11055TIP3   OH254655   2.574   5.637  13.163  0.2378  0.2227 -0.1349
11055TIP3    H154656   2.657   5.618  13.206  0.9943  1.9280 -0.7699
11055TIP3    H254657   2.587   5.608  13.072  0.0127  0.1659 -0.1494
11056TIP3   OH254658   3.685   5.743   3.084 -0.2601  0.1928  0.1725
11056TIP3    H154659   3.644   5.658   3.104 -0.8320  0.6585  1.0553
11056TIP3    H254660   3.773   5.736   3.120 -0.6635  0.3479  1.2205
11057TIP3   OH254661   4.908   0.882  13.644  0.1007 -0.0267 -0.3458
11057TIP3    H154662   4.975   0.816  13.625  0.5272  0.3038 -0.0077
11057TIP3    H254663   4.832   0.832  13.674  1.1058 -0.2887  1.9994
11058TIP3   OH254664   1.454   5.677   0.249  0.0630  0.7790  0.4339
11058TIP3    H154665   1.517   5.643   0.312  0.0808 -1.0380 -0.5089
11058TIP3    H254666   1.507   5.722   0.183  0.1506  1.4441  0.9491
11059TIP3   OH254667   0.252   3.946  14.128  0.1667 -0.1076  0.0497
11059TIP3    H154668   0.318   4.007  14.096 -0.3647  0.4717  0.0489
11059TIP3    H254669   0.227   3.895  14.051 -0.8063  0.9993 -0.3861
11060TIP3   OH254670   6.436   2.892  15.888  0.7439  0.6919  0.0629
11060TIP3    H154671   6.470   2.917  15.802  1.8950 -2.5956 -0.5978
11060TIP3    H254672   6.484   2.812  15.911 -2.1882 -0.7119  1.9999
11061TIP3   OH254673   2.604   5.670  13.612  0.5044  0.4962  0.4421
11061TIP3    H154674   2.541   5.698  13.546  1.3302  3.1274  0.6545
11061TIP3    H254675   2.689   5.685  13.572  1.0823 -1.8813  0.6078
11062TIP3   OH254676   3.423   4.718   3.123  0.2062 -0.1440 -0.3507
11062TIP3    H154677   3.350   4.671   3.082 -0.5082  0.2227  0.4728
11062TIP3    H254678   3.484   4.649   3.148 -0.5827 -0.6080  0.3547
11063TIP3   OH254679   0.416   0.339  13.781  0.1168 -0.5546 -0.6348
11063TIP3    H154680   0.414   0.277  13.855  0.8804  0.2221  0.0572
11063TIP3    H254681   0.447   0.286  13.707  1.1192 -0.9335  0.0335
11064TIP3   OH254682   2.194   3.068   5.695  0.4264 -0.6967  0.7837
11064TIP3    H154683   2.199   3.059   5.600 -2.4082  0.3959  0.4461
11064TIP3    H254684   2.197   2.978   5.728 -2.2331 -1.4167 -0.6618
11065TIP3   OH254685   5.557   0.270   6.694  0.7142 -0.6084 -0.0249
11065TIP3    H154686   5.506   0.194   6.667 -0.8813  0.4755 -0.1580
11065TIP3    H254687   5.623   0.234   6.754  0.3717 -2.1638 -0.5312
11066TIP3   OH254688   3.092   1.614   3.310 -0.7015 -0.8800 -0.0377
11066TIP3    H154689   3.133   1.577   3.231 -1.4962  0.4346 -1.1175
11066TIP3    H254690   3.004   1.638   3.282 -1.1218 -0.6948  1.3656
11067TIP3   OH254691   4.787   6.056  11.916 -0.7545  0.0365  0.0478
11067TIP3    H154692   4.728   6.001  11.864 -0.4809 -0.0750 -0.1511
11067TIP3    H254693   4.794   6.010  12.000  0.7410 -1.1261 -0.6598
11068TIP3   OH254694   0.235   1.052   4.092  0.4626 -0.3434 -0.6544
11068TIP3    H154695   0.268   1.088   4.011  0.4886 -0.0110 -0.4957
11068TIP3    H254696   0.145   1.026   4.073 -0.0001  1.0360 -0.3999
11069TIP3   OH254697   0.103   5.475   5.602 -0.3503 -0.1235  0.2293
11069TIP3    H154698   0.194   5.485   5.576  0.1495  0.6359  2.1715
11069TIP3    H254699   0.101   5.397   5.657 -0.8802 -0.1305  0.2109
11070TIP3   OH254700   0.241   0.733   6.499  0.1148 -0.3070 -0.7086
11070TIP3    H154701   0.147   0.725   6.483  0.3265 -1.7564 -1.4312
11070TIP3    H254702   0.262   0.824   6.479 -1.3075  0.3193  0.5057
11071TIP3   OH254703   3.686   2.698   1.313  0.0086  0.0246 -0.1160
11071TIP3    H154704   3.624   2.770   1.309  1.2936  1.1935 -0.0216
11071TIP3    H254705   3.689   2.674   1.406 -0.3806 -0.1232 -0.1399
11072TIP3   OH254706   4.326   1.924   5.350  0.3199 -0.3364  0.5931
11072TIP3    H154707   4.401   1.950   5.404 -0.4707  0.8145  1.1875
11072TIP3    H254708   4.252   1.924   5.410 -0.4593  0.3004 -0.3343
11073TIP3   OH254709   5.162   0.478  17.001 -0.2578 -0.1581  0.5100
11073TIP3    H154710   5.194   0.462  16.912 -0.4109  0.5819  0.3194
11073TIP3    H254711   5.198   0.564  17.024  1.9128 -1.3824  2.1320
11074TIP3   OH254712   3.822   6.346   5.889  0.6746  0.1741  0.4738
11074TIP3    H154713   3.876   6.374   5.962  1.1279 -0.2036  0.2876
11074TIP3    H254714   3.742   6.312   5.929  1.0736 -0.3677  0.8104
11075TIP3   OH254715   5.760   5.726  16.417 -0.1281 -0.1146 -0.1531
11075TIP3    H154716   5.733   5.814  16.389 -3.8106 -0.9605  0.1972
11075TIP3    H254717   5.736   5.722  16.509  0.4628 -1.3276 -0.0347
11076TIP3   OH254718   1.458   0.621   0.550 -0.0721 -0.1861  0.0739
11076TIP3    H154719   1.409   0.702   0.534  0.6284 -0.1189 -2.0483
11076TIP3    H254720   1.437   0.565   0.475  1.4594 -0.9574  0.1891
11077TIP3   OH254721   3.057   3.886  16.444  0.5994 -0.6291 -0.2221
11077TIP3    H154722   3.068   3.910  16.536 -0.1508 -1.5521  0.1230
11077TIP3    H254723   3.144   3.895  16.407  0.8901 -0.1314  0.5445
11078TIP3   OH254724   4.139   2.999   0.478 -0.1192 -0.7251 -0.6126
11078TIP3    H154725   4.117   3.056   0.552  1.6362  0.2538 -0.7853
11078TIP3    H254726   4.189   2.927   0.518 -0.1153 -0.7790 -0.7157
11079TIP3   OH254727   4.046   1.240  12.646  0.4136  0.1887 -0.1362
11079TIP3    H154728   4.071   1.332  12.651  0.3659  0.2575 -1.0248
11079TIP3    H254729   3.951   1.242  12.633  0.0721 -0.0441  1.9795
11080TIP3   OH254730   1.431   1.531  11.307 -0.1466  0.1042  0.1565
11080TIP3    H154731   1.511   1.580  11.294  1.7401 -2.2937  1.8454
11080TIP3    H254732   1.373   1.591  11.353  1.3492  1.3116  0.5305
11081TIP3   OH254733   4.336   4.858   6.420  0.0353 -1.1098 -0.1233
11081TIP3    H154734   4.246   4.889   6.413 -0.7915 -2.4744  2.7760
11081TIP3    H254735   4.330   4.778   6.473  3.0155 -0.7380  0.9738
11082TIP3   OH254736   6.168   1.753  12.032 -0.4841  0.4026 -0.0291
11082TIP3    H154737   6.174   1.813  12.106  0.4545  1.0147 -0.5774
11082TIP3    H254738   6.245   1.697  12.040 -0.9423 -0.2258  0.0458
11083TIP3   OH254739   2.924   5.383  17.279 -0.5599 -0.1028  0.3826
11083TIP3    H154740   2.899   5.458  17.332  1.8167 -1.1738  3.3035
11083TIP3    H254741   2.932   5.311  17.342 -5.3870 -3.7850 -2.4995
11084TIP3   OH254742   1.098   3.953  12.840 -0.1496 -0.3537 -0.2114
11084TIP3    H154743   1.098   3.939  12.745 -0.2484  1.2784 -0.4764
11084TIP3    H254744   1.181   3.999  12.858 -0.2179 -0.4778  0.4693
11085TIP3   OH254745   2.888   2.875  14.812 -0.0955  0.2789  0.2885
11085TIP3    H154746   2.844   2.859  14.895 -0.7200  1.1732  0.1479
11085TIP3    H254747   2.949   2.947  14.830  0.7115 -0.3824  0.2721
11086TIP3   OH254748   6.409   1.640  11.819 -0.1341 -0.9285  0.4432
11086TIP3    H154749   6.439   1.723  11.856  0.3936 -1.3601  1.0050
11086TIP3    H254750   6.438   1.642  11.728 -1.4072  0.1273  0.0203
11087TIP3   OH254751   4.265   5.836   2.485 -0.2639 -0.4085  0.0062
11087TIP3    H154752   4.343   5.891   2.479  0.2296 -0.8028  2.0220
11087TIP3    H254753   4.282   5.765   2.423  0.3996  0.1757 -0.5044
11088TIP3   OH254754   1.292   0.168  15.970  0.4905  0.2400 -0.3726
11088TIP3    H154755   1.356   0.098  15.962  0.3918  0.0985  0.0331
11088TIP3    H254756   1.339   0.247  15.944  0.7952  0.1187 -0.1916
11089TIP3   OH254757   3.301   6.409   0.235 -0.2552  0.0322  0.5750
11089TIP3    H154758   3.331   6.446   0.151 -0.4465 -0.5757  0.2337
11089TIP3    H254759   3.363   6.442   0.299  0.7918 -0.7040 -0.0302
11090TIP3   OH254760   1.182   5.623  15.667  0.4062 -0.1484 -0.2746
11090TIP3    H154761   1.198   5.555  15.601  0.0992  1.5670 -2.2102
11090TIP3    H254762   1.132   5.691  15.621  1.0901  1.6193  1.4293
11091TIP3   OH254763   5.196   2.521   5.353 -0.1886 -0.0965  0.1047
11091TIP3    H154764   5.180   2.444   5.298  0.9788 -1.2096  1.2380
11091TIP3    H254765   5.283   2.551   5.328  0.6625 -1.0422  1.7602
11092TIP3   OH254766   0.941   3.150  12.755  0.0813 -0.1448 -0.2611
11092TIP3    H154767   0.970   3.116  12.671 -0.3193 -1.7593  0.2239
11092TIP3    H254768   0.904   3.236  12.734  2.6837  0.8381 -1.2739
11093TIP3   OH254769   4.502   0.840  10.589  0.1272  0.2335  0.2472
11093TIP3    H154770   4.532   0.810  10.675  1.2470 -3.1258 -1.1491
11093TIP3    H254771   4.421   0.792  10.574 -1.7785  3.0890  0.5455
11094TIP3   OH254772   1.820   2.622   2.989 -0.4712  0.4449 -0.2652
11094TIP3    H154773   1.762   2.617   3.066  0.7000 -0.8797  0.5762
11094TIP3    H254774   1.893   2.676   3.019 -0.0974  0.0718 -0.5080
11095TIP3   OH254775   1.011   0.393  14.676 -0.3018  0.2114  0.5954
11095TIP3    H154776   0.996   0.310  14.631  1.9909 -1.1892  2.1860
11095TIP3    H254777   1.002   0.459  14.608 -0.7513 -1.4432 -1.0403
11096TIP3   OH254778   2.106   3.496   3.885 -0.3357  0.0503  0.5000
11096TIP3    H154779   2.196   3.465   3.877 -0.4299 -0.4941  1.4498
11096TIP3    H254780   2.104   3.577   3.834  0.7062  0.0994  0.5208
11097TIP3   OH254781   5.099   3.719   1.146  0.0705 -0.6042  0.2243
11097TIP3    H154782   5.044   3.665   1.088 -0.4926  0.2007 -0.0160
11097TIP3    H254783   5.101   3.671   1.228 -1.1886 -0.5608  0.3083
11098TIP3   OH254784   2.058   1.668  15.447  0.0061 -0.6820 -0.3397
11098TIP3    H154785   2.025   1.584  15.479 -0.0677 -0.7762 -0.6583
11098TIP3    H254786   1.988   1.730  15.463  0.0624 -0.6827 -0.0983
11099TIP3   OH254787   3.416   2.661   2.790 -0.1371 -0.2130 -0.3261
11099TIP3    H154788   3.415   2.631   2.881  1.1047 -1.4065 -0.6748
11099TIP3    H254789   3.359   2.738   2.789  2.1815  1.7435  2.1241
11100TIP3   OH254790   4.447   5.737  11.339 -0.1323  0.3843  0.1588
11100TIP3    H154791   4.461   5.670  11.406  0.3527  0.1789 -0.1447
11100TIP3    H254792   4.417   5.814  11.388 -3.1065 -0.7327  0.3123
11101TIP3   OH254793   5.454   1.598  12.654 -0.4506  0.3786 -0.4948
11101TIP3    H154794   5.404   1.670  12.617 -1.6171  0.5835  1.3616
11101TIP3    H254795   5.546   1.621  12.637 -0.8825  0.0166 -3.9023
11102TIP3   OH254796   0.489   1.302   4.473 -0.0343 -0.0219 -0.0155
11102TIP3    H154797   0.426   1.275   4.407  1.4010  1.2682 -2.0449
11102TIP3    H254798   0.436   1.343   4.541 -1.8364 -3.7974  1.1231
11103TIP3   OH254799   6.254   5.084  12.417  0.7519  0.0473  0.0609
11103TIP3    H154800   6.310   5.121  12.485  1.4675 -2.0203  0.7015
11103TIP3    H254801   6.166   5.084  12.455  0.7996  0.7131  0.1822
11104TIP3   OH254802   5.698   3.461  12.985 -0.2928  0.6963 -0.7589
11104TIP3    H154803   5.761   3.416  12.929  0.7521  0.5108  0.5116
11104TIP3    H254804   5.748   3.532  13.026 -0.6302 -0.0171  0.9822
11105TIP3   OH254805   2.245   3.724  11.071 -0.5883 -0.0794  0.1328
11105TIP3    H154806   2.264   3.634  11.046 -0.0910 -0.5815  2.1469
11105TIP3    H254807   2.280   3.732  11.160  0.7576  2.5581 -0.5268
11106TIP3   OH254808   4.407   5.360  14.730 -0.0797 -0.3513  0.2455
11106TIP3    H154809   4.311   5.368  14.728 -0.1594 -1.3319 -1.4822
11106TIP3    H254810   4.425   5.313  14.812 -1.0696 -0.3102  0.4995
11107TIP3   OH254811   2.048   5.324   0.082 -0.7074 -0.0047  0.0696
11107TIP3    H154812   2.040   5.354   0.173 -0.5858  0.2112  0.0095
11107TIP3    H254813   2.140   5.299   0.073 -0.3761  1.3013 -0.3953
11108TIP3   OH254814   5.252   1.521  14.748 -0.0597  0.4440 -0.8489
11108TIP3    H154815   5.344   1.497  14.736  0.6807  1.6640  1.6745
11108TIP3    H254816   5.206   1.437  14.743  1.3476 -0.3742 -0.8830
11109TIP3   OH254817   5.602   4.400  12.802  0.3842  0.1529 -0.2557
11109TIP3    H154818   5.648   4.431  12.724  2.3161 -1.9651 -0.0686
11109TIP3    H254819   5.663   4.419  12.874  0.0867 -0.8666  0.2858
11110TIP3   OH254820   1.590   2.332  13.896 -0.0747  0.5458 -0.6564
11110TIP3    H154821   1.668   2.309  13.846  0.9757  0.4702  0.9527
11110TIP3    H254822   1.580   2.261  13.960 -1.8172  0.2595 -1.1863
11111TIP3   OH254823   4.211   0.780   2.397 -0.3839  0.0655  0.1865
11111TIP3    H154824   4.206   0.713   2.329 -2.0147  0.3117  0.0179
11111TIP3    H254825   4.124   0.781   2.436  0.0596  1.0378  1.2081
11112TIP3   OH254826   6.709   0.715  14.415  0.0364 -0.4858 -0.6470
11112TIP3    H154827   6.697   0.789  14.354  0.1880  0.5007  0.4815
11112TIP3    H254828   6.757   0.753  14.488  1.2518 -2.0299 -0.6046
11113TIP3   OH254829   0.972   1.792  11.115 -0.5679 -0.7902 -0.1631
11113TIP3    H154830   1.063   1.821  11.120 -0.4811 -1.2329  1.1020
11113TIP3    H254831   0.940   1.828  11.032  0.2025  0.9720  0.2607
11114TIP3   OH254832   1.955   1.170  13.527  0.1937  0.2811 -0.2400
11114TIP3    H154833   1.868   1.207  13.542 -0.1795 -0.4779 -0.4285
11114TIP3    H254834   1.999   1.176  13.611  1.0176  3.2321 -0.7671
11115TIP3   OH254835   2.308   4.302   5.864 -0.5360  0.3508  0.0421
11115TIP3    H154836   2.388   4.252   5.876  0.6688  1.7956 -1.4514
11115TIP3    H254837   2.302   4.357   5.942 -0.4307 -0.2313  0.4622
11116TIP3   OH254838   2.509   3.337  14.947 -0.5082  0.4338 -0.4489
11116TIP3    H154839   2.484   3.418  14.903 -0.4169  0.0706 -1.1909
11116TIP3    H254840   2.601   3.326  14.925 -0.4921  0.1915 -0.2563
11117TIP3   OH254841   6.235   1.676  13.548 -0.4322 -0.3921  0.3531
11117TIP3    H154842   6.197   1.708  13.467 -2.8286  2.4052  2.3632
11117TIP3    H254843   6.166   1.621  13.586  1.1963 -2.8652 -0.0353
11118TIP3   OH254844   6.231   0.194   6.559 -0.1683  0.2583  0.0896
11118TIP3    H154845   6.139   0.187   6.584  0.1055 -1.3865  0.7423
11118TIP3    H254846   6.278   0.149   6.629  1.0478  0.0604 -0.8267
11119TIP3   OH254847   0.302   5.519  14.768  0.1057 -0.1073  0.1512
11119TIP3    H154848   0.210   5.507  14.743  0.2934 -0.3050 -0.4596
11119TIP3    H254849   0.339   5.431  14.766  0.8594  0.2068 -1.8434
11120TIP3   OH254850   1.910   0.597   2.711  0.0735 -0.0477  0.3737
11120TIP3    H154851   1.817   0.579   2.724  0.2248 -2.5128 -1.1877
11120TIP3    H254852   1.913   0.659   2.639 -0.3731 -0.0599  0.3399
11121TIP3   OH254853   5.357   4.634  11.230  0.6158  0.4889 -0.1890
11121TIP3    H154854   5.416   4.648  11.156  1.2622 -3.4591 -0.6208
11121TIP3    H254855   5.313   4.552  11.210 -1.6164  0.9171  2.3694
11122TIP3   OH254856   2.269   0.627   4.944  0.0809 -0.8066 -0.2849
11122TIP3    H154857   2.207   0.695   4.970 -0.0739 -1.4255  0.9889
11122TIP3    H254858   2.349   0.675   4.925  0.1535 -0.2975  1.1822
11123TIP3   OH254859   1.911   3.172   1.141 -0.1101 -0.0745  0.3290
11123TIP3    H154860   1.997   3.169   1.182  0.2657  0.0089 -0.4298
11123TIP3    H254861   1.888   3.265   1.139  0.5418  0.0762 -0.9792
11124TIP3   OH254862   0.338   2.830  12.889  0.4244  0.8252  0.4181
11124TIP3    H154863   0.247   2.857  12.904  0.3401  3.4681 -3.2524
11124TIP3    H254864   0.332   2.737  12.866 -1.7668  1.3703 -1.6926
11125TIP3   OH254865   1.058   4.184  16.109  0.1364  0.0662  0.0665
11125TIP3    H154866   1.144   4.171  16.149  1.1999  1.0555 -1.7914
11125TIP3    H254867   1.029   4.269  16.141 -0.7220 -0.7410  1.5756
11126TIP3   OH254868   4.989   5.855  12.649 -0.8231  0.2114 -0.1641
11126TIP3    H154869   5.018   5.850  12.558  1.8191  2.2559  0.4071
11126TIP3    H254870   4.979   5.764  12.676  3.4897 -0.8162 -1.1567
11127TIP3   OH254871   6.273   5.204   0.637  0.1978 -0.3203  0.1320
11127TIP3    H154872   6.183   5.233   0.627  0.3827  0.6164  1.0701
11127TIP3    H254873   6.267   5.108   0.640 -0.8636 -0.2380  1.1162
11128TIP3   OH254874   2.819   1.832   4.761 -0.1967  0.6227 -0.4001
11128TIP3    H154875   2.760   1.854   4.689  0.1699  0.6280 -0.7046
11128TIP3    H254876   2.844   1.917   4.798 -1.6540  0.5735  0.7904
11129TIP3   OH254877   5.077   1.501   3.162 -0.2063 -0.2684 -0.3678
11129TIP3    H154878   5.058   1.421   3.212  1.5015 -0.0684  0.6710
11129TIP3    H254879   5.041   1.572   3.216  1.7489 -0.0410  0.7345
11130TIP3   OH254880   6.198   4.287   4.056  1.0027 -0.5683 -0.7466
11130TIP3    H154881   6.243   4.361   4.097 -0.4260  0.2862 -0.6413
11130TIP3    H254882   6.228   4.211   4.105  1.1777  0.1506  0.3130
11131TIP3   OH254883   3.156   1.385   0.231  0.1136  0.1119 -0.0229
11131TIP3    H154884   3.182   1.477   0.227 -2.8207  1.0859  0.7140
11131TIP3    H254885   3.115   1.375   0.317  2.3293 -2.5502  0.8704
11132TIP3   OH254886   2.886   1.983   0.949 -0.2078  0.4995  0.5903
11132TIP3    H154887   2.822   1.924   0.988  0.1483 -1.3091 -1.3108
11132TIP3    H254888   2.845   2.011   0.867  1.3948 -0.8422 -0.7515
11133TIP3   OH254889   3.377   0.538  17.186  0.2121  0.3155 -0.0962
11133TIP3    H154890   3.281   0.541  17.191  0.2139  0.0358  0.1583
11133TIP3    H254891   3.396   0.453  17.147  0.3616  0.3457 -0.0888
11134TIP3   OH254892   3.776   1.969   4.703 -0.0115 -0.0939  0.2501
11134TIP3    H154893   3.725   1.939   4.627 -0.3485 -0.6651  0.6904
11134TIP3    H254894   3.867   1.949   4.681 -0.1756 -0.9048  0.2854
11135TIP3   OH254895   3.441   5.714   3.629 -0.5500  0.2750 -0.4583
11135TIP3    H154896   3.462   5.705   3.536  0.4035  0.1758 -0.2420
11135TIP3    H254897   3.498   5.784   3.660 -1.1140  0.5545 -0.0143
11136TIP3   OH254898   1.339   1.902  14.436 -0.5361 -0.3145  0.7835
11136TIP3    H154899   1.424   1.882  14.397  0.4570  2.2449  1.3905
11136TIP3    H254900   1.338   1.854  14.519  0.0396 -0.8654  0.4761
11137TIP3   OH254901   0.184   6.515  15.951 -0.3758  0.2778  0.2286
11137TIP3    H154902   0.121   6.450  15.921 -0.2966  0.0324  0.5921
11137TIP3    H254903   0.150   6.546  16.034  0.0315  0.0659  0.4807
11138TIP3   OH254904   2.336   4.606   0.414 -0.2027 -0.0795 -0.6441
11138TIP3    H154905   2.245   4.613   0.384  0.1470 -1.0354 -2.0343
11138TIP3    H254906   2.332   4.622   0.508 -1.4661  2.3393 -1.0489
11139TIP3   OH254907   5.572   1.164   0.093  0.1934  0.6017 -0.4851
11139TIP3    H154908   5.496   1.112   0.122  0.2327  0.8171  0.0120
11139TIP3    H254909   5.640   1.099   0.077  0.8318  0.5775  1.8914
11140TIP3   OH254910   6.491   3.408   6.412 -0.5012 -0.5215  0.2729
11140TIP3    H154911   6.539   3.347   6.468  0.2187  1.6552  2.1615
11140TIP3    H254912   6.485   3.489   6.463 -2.1850  0.7526 -1.7575
11141TIP3   OH254913   0.702   3.954  16.231  0.0402 -0.5430  0.4404
11141TIP3    H154914   0.625   3.965  16.176  0.8917 -2.8353 -1.3778
11141TIP3    H254915   0.724   3.861  16.224  4.0705  0.3127 -0.7250
11142TIP3   OH254916   5.428   6.244   5.898 -0.1670 -0.7744 -0.3625
11142TIP3    H154917   5.469   6.319   5.940  1.8582 -0.8770 -1.9885
11142TIP3    H254918   5.336   6.249   5.924  0.6979 -0.3106  3.1756
11143TIP3   OH254919   6.664   0.438   5.713 -0.7568  0.1509 -0.1787
11143TIP3    H154920   6.635   0.354   5.749  0.0904 -0.0720 -0.0085
11143TIP3    H254921   6.667   0.497   5.788  1.1383 -0.3481  0.1813
11144TIP3   OH254922   3.896   1.695  12.300  0.8693 -0.2534 -0.1793
11144TIP3    H154923   3.865   1.635  12.232  1.1643 -1.3682  0.6282
11144TIP3    H254924   3.888   1.782  12.261  1.5799 -0.8918 -1.8478
11145TIP3   OH254925   5.645   2.449   6.436 -0.1718  0.5481  1.1269
11145TIP3    H154926   5.560   2.464   6.478 -0.2536  0.2458  1.0761
11145TIP3    H254927   5.661   2.356   6.449 -0.7322  0.2017 -0.4772
11146TIP3   OH254928   3.789   4.726  16.674 -0.0797 -0.1100  0.6305
11146TIP3    H154929   3.834   4.786  16.733  1.0470 -1.1130  0.8286
11146TIP3    H254930   3.715   4.693  16.725 -0.5968  0.9433  0.5827
11147TIP3   OH254931   2.521   6.561  16.558 -0.3672  0.3923 -0.0516
11147TIP3    H154932   2.508   6.476  16.600 -2.6899  0.8923  0.3421
11147TIP3    H254933   2.546   6.540  16.468 -0.0930 -0.6826  0.2629
11148TIP3   OH254934   5.910   3.457   4.435  0.0813 -0.5981  0.2095
11148TIP3    H154935   5.946   3.528   4.381  0.0938 -0.9471 -0.2409
11148TIP3    H254936   5.955   3.467   4.519 -0.5409  0.4539  0.4403
11149TIP3   OH254937   0.895   1.358   1.623  0.2845  0.3508 -0.2249
11149TIP3    H154938   0.806   1.322   1.621 -1.0456  3.4124 -0.5834
11149TIP3    H254939   0.912   1.375   1.715 -0.2674  1.4494 -0.3146
11150TIP3   OH254940   2.930   6.387   4.479 -0.2660  0.0953  0.3064
11150TIP3    H154941   2.988   6.391   4.402 -0.6200 -2.6888 -0.2232
11150TIP3    H254942   2.990   6.396   4.554  0.6123 -0.7366 -0.2637
11151TIP3   OH254943   0.755   4.190  12.696  0.3180 -0.2562 -0.6508
11151TIP3    H154944   0.749   4.233  12.611  2.3652 -0.4778 -0.9563
11151TIP3    H254945   0.755   4.097  12.676 -0.1620 -0.3340 -0.3105
11152TIP3   OH254946   0.294   3.974   5.140  0.2781 -0.1448 -0.6328
11152TIP3    H154947   0.232   3.948   5.071 -0.1239 -1.2505  0.1119
11152TIP3    H254948   0.370   3.917   5.125  1.5489  1.7858 -2.0759
11153TIP3   OH254949   6.372   5.408   1.653 -0.0691 -0.1136 -0.3169
11153TIP3    H154950   6.410   5.472   1.593  0.0294  1.1932  1.0979
11153TIP3    H254951   6.286   5.442   1.674 -0.1390 -0.5989  0.2202
11154TIP3   OH254952   3.520   3.919   0.111  0.2682 -0.1568  0.1663
11154TIP3    H154953   3.584   3.912   0.039  0.6093  0.2393  0.4268
11154TIP3    H254954   3.553   3.858   0.178  0.5746  0.3172  0.4493
11155TIP3   OH254955   5.797   0.586   2.267  0.3238  0.4512 -0.1558
11155TIP3    H154956   5.870   0.524   2.261 -0.8160 -0.9064 -0.6716
11155TIP3    H254957   5.770   0.583   2.358  0.6537  0.6739 -0.0463
11156TIP3   OH254958   6.124   5.369   3.419  0.4366  0.3889 -0.6447
11156TIP3    H154959   6.109   5.392   3.328 -0.2658  0.5056 -0.5013
11156TIP3    H254960   6.143   5.275   3.417 -0.2035  0.2621 -0.8431
11157TIP3   OH254961   1.690   3.105  14.666  0.5187 -0.4765 -0.3790
11157TIP3    H154962   1.745   3.046  14.718 -0.4293 -1.8690 -0.8860
11157TIP3    H254963   1.650   3.048  14.601  0.9012  1.0529 -2.0240
11158TIP3   OH254964   0.060   0.076  14.797 -0.4987 -0.2046 -0.5320
11158TIP3    H154965   0.128   0.014  14.820 -1.9960 -1.8120 -0.2586
11158TIP3    H254966   0.043   0.060  14.704 -0.5300  0.1851 -0.5971
11159TIP3   OH254967   5.973   3.078  13.982 -0.4073  0.2750 -0.5166
11159TIP3    H154968   6.054   3.027  13.989 -0.9200 -0.5706 -0.5918
11159TIP3    H254969   6.000   3.169  13.995  0.4649 -0.0536  0.0299
11160TIP3   OH254970   1.526   4.807  16.387  0.4804 -0.0144 -0.2095
11160TIP3    H154971   1.495   4.719  16.410 -0.0002  0.5604  1.5057
11160TIP3    H254972   1.621   4.797  16.377  0.3321 -0.8841 -0.8644
11161TIP3   OH254973   1.450   6.223   4.600 -0.3475  0.1432  0.0979
11161TIP3    H154974   1.358   6.199   4.612  0.1867 -1.9072  0.4493
11161TIP3    H254975   1.491   6.203   4.684  0.0982  3.0286  0.6800
11162TIP3   OH254976   5.250   6.615  10.621 -0.0776  0.2442 -0.3204
11162TIP3    H154977   5.322   6.629  10.682 -1.0329  3.0341  0.2955
11162TIP3    H254978   5.173   6.648  10.667 -1.4090 -0.6715 -1.7995
11163TIP3   OH254979   2.789   6.166   4.448 -0.1107  0.7300  0.0475
11163TIP3    H154980   2.841   6.128   4.518  3.4060  1.3584 -1.9893
11163TIP3    H254981   2.806   6.260   4.454 -0.0861  0.8430 -1.3246
11164TIP3   OH254982   5.505   6.407   4.242  0.0994  0.0861  0.4148
11164TIP3    H154983   5.410   6.395   4.243  0.2631 -1.3529  0.3481
11164TIP3    H254984   5.518   6.488   4.193 -1.0572 -0.0660 -0.1747
11165TIP3   OH254985   0.187   0.629   4.891  0.5254  0.7308 -1.1721
11165TIP3    H154986   0.151   0.684   4.961  0.1716 -0.4364 -0.4209
11165TIP3    H254987   0.143   0.545   4.901  1.2198  0.2299 -2.1736
11166TIP3   OH254988   2.100   3.266  13.182  0.2528  0.3445 -0.3783
11166TIP3    H154989   2.074   3.214  13.106 -1.6074 -0.1900  0.5556
11166TIP3    H254990   2.171   3.218  13.222 -1.0115 -1.1982  0.1049
11167TIP3   OH254991   6.666   1.058  15.987  0.2303  0.3525  0.8344
11167TIP3    H154992   6.641   0.965  15.988  0.1272  0.3737  0.5458
11167TIP3    H254993   6.630   1.091  15.904 -0.8739  0.9594  1.5322
11168TIP3   OH254994   2.011   6.814   5.834  0.5625  0.4781 -0.2026
11168TIP3    H154995   2.028   6.899   5.795  1.6762 -0.2598 -1.3896
11168TIP3    H254996   2.091   6.793   5.883  0.4067 -0.0061 -0.1478
11169TIP3   OH254997   2.291   4.164   1.674 -0.2542 -0.0217  0.3392
11169TIP3    H154998   2.297   4.144   1.581 -2.1090 -1.2495  0.4385
11169TIP3    H254999   2.376   4.136   1.710  0.0130 -0.6911 -0.7863
11170TIP3   OH255000   0.579   4.319   4.758  0.7214 -0.0302 -0.2176
11170TIP3    H155001   0.609   4.250   4.699  1.1196 -1.2076  1.3044
11170TIP3    H255002   0.550   4.273   4.837 -0.3587  1.4481  0.3003
11171TIP3   OH255003   3.048   3.374  15.889  0.0006 -0.4002  0.5750
11171TIP3    H155004   3.032   3.334  15.803  1.4280 -0.8019  0.4650
11171TIP3    H255005   3.088   3.459  15.869  0.8204 -0.7152  0.8268
11172TIP3   OH255006   0.047   6.408  11.513 -0.1526  0.0516 -0.0421
11172TIP3    H155007   0.140   6.430  11.506  0.0186 -0.9298 -1.1828
11172TIP3    H255008   0.002   6.492  11.500  0.5629  0.3938 -0.3594
11173TIP3   OH255009   6.693   4.156  12.776 -0.0007 -0.2793 -0.3896
11173TIP3    H155010   6.773   4.114  12.744 -0.2469  0.5839 -2.2943
11173TIP3    H255011   6.631   4.146  12.705 -0.2330  2.7616 -0.7367
11174TIP3   OH255012   5.969   4.006   3.879 -0.5178 -0.3536 -0.1287
11174TIP3    H155013   5.947   4.067   3.950  2.7727  1.0413 -0.1314
11174TIP3    H255014   5.963   3.919   3.920 -2.9378  0.0315  0.5353
11175TIP3   OH255015   1.999   0.590  11.953 -0.2461 -0.4020  0.4245
11175TIP3    H155016   2.047   0.509  11.934  1.0372  0.5663 -0.5857
11175TIP3    H255017   2.022   0.610  12.044 -1.0860 -1.4805  0.9074
11176TIP3   OH255018   0.826   6.558   5.468  0.2208 -0.2636  0.0962
11176TIP3    H155019   0.811   6.465   5.483 -0.8971 -0.3041 -1.1172
11176TIP3    H255020   0.760   6.584   5.404  1.4345  1.0429 -0.7064
11177TIP3   OH255021   5.855   6.204  14.069  0.1803 -0.1798 -0.3560
11177TIP3    H155022   5.771   6.164  14.089  1.3611 -2.3445  0.5207
11177TIP3    H255023   5.887   6.236  14.153  0.8997 -0.7404 -0.4113
11178TIP3   OH255024   4.418   2.534  12.411 -0.2722  0.3398  0.1540
11178TIP3    H155025   4.466   2.498  12.486 -0.0860 -1.5778 -0.8311
11178TIP3    H255026   4.486   2.555  12.347 -0.4624  1.5820  0.3411
11179TIP3   OH255027   2.500   6.017  17.282 -0.1401  0.2777  0.6553
11179TIP3    H155028   2.572   6.013  17.219  1.0077 -1.5280  1.9989
11179TIP3    H255029   2.535   6.068  17.355  0.3223 -1.6688  1.8730
11180TIP3   OH255030   3.336   5.071   4.599  0.1658 -0.1186 -0.4644
11180TIP3    H155031   3.406   5.015   4.633 -0.8349 -0.9308  0.3201
11180TIP3    H255032   3.298   5.020   4.527  0.8400  0.6368 -1.3744
11181TIP3   OH255033   2.877   6.296  11.262 -0.1183  0.2210 -0.3115
11181TIP3    H155034   2.791   6.284  11.223  0.0589  0.6973 -0.8617
11181TIP3    H255035   2.893   6.215  11.311 -1.2825  0.5212  0.5981
11182TIP3   OH255036   6.717   5.410   2.706  0.0721 -0.0772  0.3132
11182TIP3    H155037   6.665   5.348   2.655 -0.0986  0.4015 -0.0994
11182TIP3    H255038   6.690   5.394   2.797  0.0561 -0.6280  0.2185
11183TIP3   OH255039   6.344   4.787  15.273  0.1855 -0.0986  0.1725
11183TIP3    H155040   6.337   4.692  15.270  0.0354 -0.0704 -0.7660
11183TIP3    H255041   6.432   4.806  15.242  0.4218  0.0508  0.9172
11184TIP3   OH255042   2.077   6.453   1.013  0.1300 -0.1540 -0.2812
11184TIP3    H155043   2.028   6.499   1.081 -0.2782 -1.0017  0.0177
11184TIP3    H255044   2.041   6.485   0.931  0.3143  0.5471 -0.0928
11185TIP3   OH255045   2.506   4.389   4.912 -0.2564 -0.6352 -0.3785
11185TIP3    H155046   2.484   4.327   4.842 -0.4609  0.6836 -1.5181
11185TIP3    H255047   2.436   4.379   4.976  0.2056 -2.2309 -0.0776
11186TIP3   OH255048   1.348   3.318  12.233  0.3128  0.1691  0.0182
11186TIP3    H155049   1.412   3.257  12.197 -0.8512 -1.7094  0.9742
11186TIP3    H255050   1.326   3.376  12.159  1.9211 -0.1432 -0.7411
11187TIP3   OH255051   3.885   1.764   0.386  0.1459  0.2928 -0.3664
11187TIP3    H155052   3.937   1.825   0.439  0.4993  0.3093 -0.7204
11187TIP3    H255053   3.900   1.679   0.426  1.0447  0.1875 -0.8947
11188TIP3   OH255054   6.012   0.466  12.896 -0.3365  0.0411 -0.4208
11188TIP3    H155055   5.929   0.431  12.864  0.4243 -0.8232 -1.5420
11188TIP3    H255056   6.054   0.503  12.818  1.1085 -1.1401 -0.2458
11189TIP3   OH255057   1.821   1.778  14.866  0.2671 -0.2510 -0.1942
11189TIP3    H155058   1.903   1.806  14.905  0.5349  1.7584 -2.0228
11189TIP3    H255059   1.833   1.792  14.772 -1.7698 -0.9812 -0.6125
11190TIP3   OH255060   1.665   3.912   0.142 -0.1097 -0.1323 -0.1029
11190TIP3    H155061   1.754   3.878   0.152 -0.1618 -0.2961 -0.1865
11190TIP3    H255062   1.667   3.958   0.058 -0.3544 -0.9554 -0.5776
11191TIP3   OH255063   6.719   2.031   5.750  0.5388  0.0910  0.0452
11191TIP3    H155064   6.642   1.979   5.774  0.7061 -0.2814 -0.2132
11191TIP3    H255065   6.685   2.095   5.687  0.6264 -0.7378 -0.8612
11192TIP3   OH255066   6.328   3.564  16.415 -0.1048  0.9997 -0.2343
11192TIP3    H155067   6.247   3.614  16.400 -2.0296 -1.8512 -0.0990
11192TIP3    H255068   6.317   3.527  16.502  1.4221  0.6341 -0.1786
11193TIP3   OH255069   4.927   0.651  15.047 -0.1472 -0.2199 -0.5579
11193TIP3    H155070   4.843   0.665  15.091  0.3280 -0.6859  0.5346
11193TIP3    H255071   4.907   0.658  14.954 -1.6242 -1.4867 -0.3730
11194TIP3   OH255072   1.220   6.235   3.317  0.3560  0.1555 -0.1523
11194TIP3    H155073   1.231   6.264   3.408 -0.0306 -0.0481 -0.0387
11194TIP3    H255074   1.278   6.292   3.267  1.6486 -0.6627  0.3729
11195TIP3   OH255075   4.500   5.213   2.946  0.0064  0.2604  0.2028
11195TIP3    H155076   4.500   5.124   2.910 -0.8589  0.4018 -0.1742
11195TIP3    H255077   4.431   5.258   2.898  0.8963  1.3474 -0.0968
11196TIP3   OH255078   2.658   5.008   3.108 -0.2323 -0.3074 -0.3969
11196TIP3    H155079   2.673   4.952   3.184  1.1864 -0.0401 -0.4628
11196TIP3    H255080   2.642   4.947   3.036  0.2783 -0.6054 -0.2627
11197TIP3   OH255081   3.038   1.357  11.567 -0.3691  0.0253  0.6349
11197TIP3    H155082   3.001   1.443  11.549 -0.2256 -0.0722 -0.1923
11197TIP3    H255083   3.086   1.367  11.649 -1.4999  0.3759  1.2758
11198TIP3   OH255084   2.821   6.094  12.326 -0.1336  0.1851  0.2657
11198TIP3    H155085   2.749   6.120  12.385 -0.9027 -0.3453 -0.4161
11198TIP3    H255086   2.804   6.001  12.308  1.1882 -0.1607  0.7318
11199TIP3   OH255087   2.359   2.754   2.139  0.3946 -0.2651  0.3079
11199TIP3    H155088   2.442   2.741   2.186  0.3058 -1.1646  0.2353
11199TIP3    H255089   2.292   2.722   2.198  0.1065  0.2768  0.2826
11200TIP3   OH255090   5.274   0.716   3.728 -0.0785 -0.0681  0.3603
11200TIP3    H155091   5.275   0.764   3.810 -0.2334  0.9130 -0.1980
11200TIP3    H255092   5.233   0.632   3.750  0.4732 -0.0793  1.4053
11201TIP3   OH255093   2.012   3.760  14.127 -0.1706 -0.9620 -0.4568
11201TIP3    H155094   2.070   3.800  14.192  0.2282  1.1322 -1.9794
11201TIP3    H255095   1.964   3.693  14.175 -0.4400  0.9642  2.2171
11202TIP3   OH255096   6.569   3.935  13.282  0.4464  0.2586 -0.0992
11202TIP3    H155097   6.605   4.011  13.237 -1.1482  0.6131 -0.8172
11202TIP3    H255098   6.572   3.865  13.217 -1.0876  0.5588 -0.5218
11203TIP3   OH255099   5.311   4.766  13.901  0.3269  0.2743  0.0195
11203TIP3    H155100   5.351   4.823  13.835  0.1871 -0.9531 -1.1623
11203TIP3    H255101   5.344   4.679  13.881 -2.6413 -0.7788 -0.8611
11204TIP3   OH255102   4.906   5.570  12.741  0.0998  0.3244  0.1804
11204TIP3    H155103   4.899   5.502  12.808  0.5336 -1.1729 -1.2251
11204TIP3    H255104   4.993   5.559  12.703 -0.3642  0.6713 -1.0711
11205TIP3   OH255105   6.733   3.210  15.002  0.5696 -0.4020  0.4199
11205TIP3    H155106   6.795   3.252  14.943 -0.3660 -0.0748 -0.3752
11205TIP3    H255107   6.709   3.278  15.065 -1.5803  0.6258 -1.3658
11206TIP3   OH255108   3.204   6.745  16.965  0.2029 -0.6447 -0.2873
11206TIP3    H155109   3.276   6.761  16.903  0.9716 -2.8383 -0.0521
11206TIP3    H255110   3.126   6.776  16.919  1.0199 -0.1620 -1.4206
11207TIP3   OH255111   0.434   3.585  14.798  0.0968 -0.2357  0.5068
11207TIP3    H155112   0.347   3.613  14.825  0.2075  0.5084  0.1217
11207TIP3    H255113   0.454   3.510  14.854 -0.4758  0.0731  1.1357
11208TIP3   OH255114   0.070   1.159   4.735 -0.3635 -0.2017  0.3072
11208TIP3    H155115   0.067   1.207   4.652 -0.0501 -1.1149 -0.2463
11208TIP3    H255116   0.106   1.222   4.797 -0.8982  0.6019 -0.1703
11209TIP3   OH255117   5.852   6.243   3.701 -0.5170  0.1111  0.1170
11209TIP3    H155118   5.781   6.183   3.677 -1.3520  0.4915  1.4913
11209TIP3    H255119   5.849   6.311   3.634 -1.1548 -0.1174 -0.0971
11210TIP3   OH255120   1.244   2.216   3.783 -0.0963  0.0825 -0.0160
11210TIP3    H155121   1.184   2.181   3.849 -0.5927 -1.2166 -1.1262
11210TIP3    H255122   1.324   2.166   3.795 -0.3513 -0.4975 -0.7133
11211TIP3   OH255123   6.819   4.591  16.593  0.2783 -0.4663  0.0746
11211TIP3    H155124   6.785   4.643  16.521  2.7704 -0.9872 -1.6163
11211TIP3    H255125   6.741   4.558  16.638 -1.3662  0.6534 -1.7995
11212TIP3   OH255126   6.795   3.413   0.236 -0.1387  0.1033 -0.3271
11212TIP3    H155127   6.888   3.435   0.234  0.6429 -2.5612  1.6958
11212TIP3    H255128   6.762   3.457   0.314 -0.3471  0.2093 -0.4742
11213TIP3   OH255129   0.601   3.968   3.933 -0.1178 -0.1618  0.6803
11213TIP3    H155130   0.611   4.050   3.884  0.3749 -0.3711  0.4219
11213TIP3    H255131   0.608   3.994   4.025  0.8086 -0.0087  0.5767
11214TIP3   OH255132   0.550   1.930  12.219 -0.5437 -0.3393 -0.5114
11214TIP3    H155133   0.473   1.878  12.240 -1.4072  0.0791 -2.4483
11214TIP3    H255134   0.519   1.995  12.156  1.9014 -2.0098 -3.7678
11215TIP3   OH255135   0.415   2.373  14.423  0.4218 -0.0001 -0.0137
11215TIP3    H155136   0.477   2.375  14.350 -0.0801 -2.1447 -0.5575
11215TIP3    H255137   0.335   2.335  14.386 -0.3718  0.3104  1.2917
11216TIP3   OH255138   0.029   3.919   1.466  0.0092  0.4305  0.0266
11216TIP3    H155139   0.075   3.923   1.383  1.2669  0.0840  0.6767
11216TIP3    H255140   0.009   3.826   1.478 -1.2182  0.6173 -0.4168
11217TIP3   OH255141   2.828   6.798   1.501  0.1699 -0.4154 -0.0204
11217TIP3    H155142   2.792   6.883   1.525  4.3822  1.4065  0.7489
11217TIP3    H255143   2.836   6.802   1.406  0.1090 -0.0561 -0.0127
11218TIP3   OH255144   2.981   0.109  11.131 -0.4460 -0.6333  0.3845
11218TIP3    H155145   2.953   0.201  11.126  1.0556 -0.1797 -2.5883
11218TIP3    H255146   3.057   0.111  11.189  0.5065  0.3844 -0.8131
11219TIP3   OH255147   4.749   5.920   5.113 -0.5552 -0.6150  0.1558
11219TIP3    H155148   4.740   5.938   5.020 -0.8681 -0.8982  0.1290
11219TIP3    H255149   4.710   5.833   5.124  0.1356 -0.8973  0.4249
11220TIP3   OH255150   3.690   5.925  17.180  0.4040  0.2741 -0.3961
11220TIP3    H155151   3.700   5.920  17.275  0.0748 -2.2587 -0.4240
11220TIP3    H255152   3.636   5.850  17.157 -0.2891  1.3194 -2.5287
11221TIP3   OH255153   0.530   0.286  15.820  0.5147 -0.0856  0.2476
11221TIP3    H155154   0.586   0.301  15.897 -0.2976  2.7708  0.4094
11221TIP3    H255155   0.566   0.345  15.753 -0.2092 -0.7923 -0.7936
11222TIP3   OH255156   2.573   3.799  11.866 -0.2836  0.2391 -0.3694
11222TIP3    H155157   2.571   3.749  11.784  0.6362  0.9623 -0.8578
11222TIP3    H255158   2.634   3.751  11.922 -1.5353 -0.7080  0.2180
11223TIP3   OH255159   6.630   0.366  12.066 -0.4331  0.6677  0.1053
11223TIP3    H155160   6.589   0.280  12.080 -0.2428 -0.0008 -2.8140
11223TIP3    H255161   6.712   0.347  12.020 -0.1687  2.3927 -0.2219
11224TIP3   OH255162   1.884   3.538  13.019  0.1201 -0.5654  0.2064
11224TIP3    H155163   1.868   3.616  13.072  0.0994  2.3209 -3.6273
11224TIP3    H255164   1.979   3.530  13.014  0.1720 -2.1569  2.1759
11225TIP3   OH255165   0.376   0.031   0.436 -0.5219 -0.6428 -0.2220
11225TIP3    H155166   0.362  -0.019   0.517  0.1098 -0.3484  0.0786
11225TIP3    H255167   0.319   0.107   0.445  0.8530  0.3175  0.7868
11226TIP3   OH255168   5.043   1.260   0.197 -0.9722  0.3275  0.4363
11226TIP3    H155169   5.029   1.226   0.108  0.2071  1.5163 -0.2407
11226TIP3    H255170   5.066   1.183   0.248 -2.0095 -0.4320 -0.1952
11227TIP3   OH255171   4.862   0.167  13.697 -0.4322  0.0562  0.6513
11227TIP3    H155172   4.928   0.107  13.731  0.0180  0.6248  0.7995
11227TIP3    H255173   4.872   0.163  13.602 -2.8000 -2.7967  0.3964
11228TIP3   OH255174   2.027   1.633   4.166  0.3386 -0.3259  0.3144
11228TIP3    H155175   2.067   1.684   4.096 -0.8935 -1.0285 -0.9571
11228TIP3    H255176   1.942   1.675   4.181  0.0985 -0.8919  0.5684
11229TIP3   OH255177   1.300   4.015  12.430 -0.2889  0.0974  0.1487
11229TIP3    H155178   1.304   3.919  12.440  1.1054 -0.1061 -1.6696
11229TIP3    H255179   1.363   4.049  12.492 -2.8174  0.1366  2.8993
11230TIP3   OH255180   5.439   1.219  13.221  0.5870  0.8682 -0.1520
11230TIP3    H155181   5.420   1.295  13.167 -0.9095  1.3327  0.9675
11230TIP3    H255182   5.458   1.255  13.308  2.8398  0.1310 -0.2660
11231TIP3   OH255183   1.213   4.474  13.621  0.3104 -0.4909  0.4555
11231TIP3    H155184   1.227   4.404  13.558  0.7573 -0.0764  0.0803
11231TIP3    H255185   1.262   4.446  13.699 -0.0575 -0.8963  0.5453
11232TIP3   OH255186   3.737   1.657   2.048  0.4205 -0.0612  0.1785
11232TIP3    H155187   3.659   1.628   2.000 -0.4332  0.7268  1.0538
11232TIP3    H255188   3.810   1.613   2.004 -0.4152 -0.0470 -1.2695
11233TIP3   OH255189   0.152   6.393  12.685 -0.4011  0.0674  0.2918
11233TIP3    H155190   0.168   6.487  12.676 -1.0670  0.4621  2.5223
11233TIP3    H255191   0.069   6.387  12.732 -1.7970 -1.7335 -2.1703
11234TIP3   OH255192   3.167   6.753   0.728 -0.2430  0.1331  0.1146
11234TIP3    H155193   3.161   6.800   0.645  1.2499  1.6888  0.8160
11234TIP3    H255194   3.122   6.809   0.791 -1.1302 -0.9024  0.4193
11235TIP3   OH255195   2.224   1.295  16.698 -0.5639 -0.1055  0.0159
11235TIP3    H155196   2.261   1.284  16.785  1.6317 -0.1909 -0.8503
11235TIP3    H255197   2.187   1.383  16.697 -2.8802 -0.9685  1.7433
11236TIP3   OH255198   2.915   1.476   2.662 -0.0879  0.3087 -0.2717
11236TIP3    H155199   3.007   1.484   2.687 -0.1888 -0.3370  0.3306
11236TIP3    H255200   2.877   1.417   2.728 -0.4265 -1.2209 -1.7517
11237TIP3   OH255201   6.177   3.822  16.113  0.7019  0.1658 -0.9504
11237TIP3    H155202   6.256   3.769  16.122  0.7139  0.0747 -1.5330
11237TIP3    H255203   6.106   3.764  16.138  0.6745 -0.2794 -2.0124
11238TIP3   OH255204   0.428   2.543  11.741 -0.3270 -0.1238 -0.3930
11238TIP3    H155205   0.463   2.464  11.701 -0.1578 -0.4121  0.3152
11238TIP3    H255206   0.333   2.539  11.725 -0.3863 -0.7361  0.1037
11239TIP3   OH255207   2.270   3.959   0.425 -0.3187 -0.9748 -0.0569
11239TIP3    H155208   2.191   3.906   0.419 -0.0700 -1.5740  1.4267
11239TIP3    H255209   2.330   3.920   0.361 -0.7071 -1.4472 -0.1424
11240TIP3   OH255210   4.387   4.088  15.625 -0.5731  0.7106 -0.3351
11240TIP3    H155211   4.382   4.001  15.584  0.1698  0.0735  0.8569
11240TIP3    H255212   4.374   4.149  15.553  0.0265 -0.3738 -1.4076
11241TIP3   OH255213   1.218   4.844   3.483  0.6960 -0.0228  0.5440
11241TIP3    H155214   1.239   4.936   3.471 -0.5100  0.2561  0.3901
11241TIP3    H255215   1.157   4.843   3.557  0.2124 -0.6166  0.1477
11242TIP3   OH255216   4.736   0.932  17.152  0.4340 -0.0922  0.0067
11242TIP3    H155217   4.817   0.982  17.153 -0.2228  1.0315 -0.3755
11242TIP3    H255218   4.763   0.841  17.146  1.6537  0.3590 -2.4720
11243TIP3   OH255219   0.598   6.704   0.084 -0.6918  0.4094  0.0272
11243TIP3    H155220   0.570   6.720  -0.006 -2.3476  0.4581  0.5103
11243TIP3    H255221   0.598   6.791   0.125  2.3642  0.7587 -0.4647
11244TIP3   OH255222   0.998   2.888   4.598  0.3032 -0.4791 -0.2680
11244TIP3    H155223   0.924   2.839   4.631 -1.2627  1.0443 -1.3110
11244TIP3    H255224   0.994   2.972   4.645 -0.3400  0.6614 -2.2138
11245TIP3   OH255225   0.407   6.686   4.181  0.3549 -0.3867 -0.2931
11245TIP3    H155226   0.394   6.696   4.087 -0.9799 -1.0850 -0.2060
11245TIP3    H255227   0.425   6.592   4.193  0.3036 -0.3402  0.1690
11246TIP3   OH255228   6.127   4.182   0.542  0.2457  0.0146  0.1811
11246TIP3    H155229   6.064   4.145   0.604  0.7626  1.7045  1.8007
11246TIP3    H255230   6.082   4.258   0.505 -0.0316 -0.9371 -1.5189
11247TIP3   OH255231   1.726   6.771   4.409  0.5038 -0.1023 -0.0148
11247TIP3    H155232   1.793   6.804   4.469 -0.4064  0.9953  0.4195
11247TIP3    H255233   1.740   6.820   4.328 -0.3470  0.8272  0.3788
11248TIP3   OH255234   6.228   2.430   3.654 -0.3213  1.0192  0.1849
11248TIP3    H155235   6.285   2.385   3.716  1.2905 -0.1929 -2.0146
11248TIP3    H255236   6.155   2.370   3.641  1.2012 -0.5246 -1.7938
11249TIP3   OH255237   6.033   6.707   6.149 -0.0026 -0.6346 -0.2634
11249TIP3    H155238   6.014   6.671   6.235  0.7248  0.7449  0.4987
11249TIP3    H255239   6.128   6.698   6.139 -0.0599 -0.6490 -0.8677
11250TIP3   OH255240   2.632   5.759   0.238 -1.0464 -0.1995  0.0078
11250TIP3    H155241   2.561   5.806   0.194 -0.3282  0.6636 -0.2658
11250TIP3    H255242   2.643   5.805   0.321 -0.6159 -0.1389 -0.0783
11251TIP3   OH255243   0.899   1.051  16.785 -0.8886  0.1542  0.8190
11251TIP3    H155244   0.853   1.039  16.702  1.3606  1.1340 -0.6576
11251TIP3    H255245   0.890   0.967  16.829 -0.4012 -1.1375 -1.3762
11252TIP3   OH255246   2.454   2.963  14.885  0.0059 -0.1595 -0.8644
11252TIP3    H155247   2.413   3.037  14.929  0.2055  0.6998 -2.0823
11252TIP3    H255248   2.412   2.886  14.923 -1.0056  0.6177 -0.3661
11253TIP3   OH255249   6.314   4.424   1.823  0.5162  0.3617  0.1191
11253TIP3    H155250   6.309   4.336   1.859  0.3351  1.0948  2.0139
11253TIP3    H255251   6.223   4.445   1.801  0.7834 -0.5613 -2.0973
11254TIP3   OH255252   1.752   3.350  13.982 -0.6029  0.2611 -0.0831
11254TIP3    H155253   1.797   3.421  13.936 -1.2245  0.4264 -0.4464
11254TIP3    H255254   1.697   3.395  14.046 -1.5397  0.1533 -0.7933
11255TIP3   OH255255   1.406   4.419   4.176 -0.3215 -0.2433 -0.1617
11255TIP3    H155256   1.477   4.474   4.144  0.8835 -1.4747  0.3408
11255TIP3    H255257   1.419   4.415   4.271 -1.1814 -0.3345 -0.0342
11256TIP3   OH255258   2.484   0.786   2.284 -0.2696 -0.0975 -0.3313
11256TIP3    H155259   2.447   0.870   2.311 -0.8028 -0.4467  0.0516
11256TIP3    H255260   2.577   0.803   2.273 -0.3424  0.4979 -0.0632
11257TIP3   OH255261   0.106   2.573  16.573  0.1384 -0.4525  0.8220
11257TIP3    H155262   0.152   2.515  16.634 -0.1551 -1.7533 -0.1466
11257TIP3    H255263   0.167   2.581  16.499  0.2489  0.6462  1.0155
11258TIP3   OH255264   5.304   2.599  13.348 -0.7422  0.0689  0.2394
11258TIP3    H155265   5.317   2.674  13.290  1.1126  0.8735  1.5862
11258TIP3    H255266   5.225   2.619  13.397 -1.0824  0.4241 -0.4436
11259TIP3   OH255267   3.157   5.043   1.347  0.2483 -0.4548 -0.1031
11259TIP3    H155268   3.133   5.013   1.259 -0.0276  1.2766 -0.6431
11259TIP3    H255269   3.198   4.966   1.387 -4.2459 -3.0180  0.1683
11260TIP3   OH255270   2.701   1.391   5.321  0.4033 -0.0321 -0.5778
11260TIP3    H155271   2.741   1.386   5.408 -0.3662  1.1592 -0.1354
11260TIP3    H255272   2.656   1.307   5.311  0.4060 -0.1382  0.2211
11261TIP3   OH255273   2.652   0.097   5.576  0.0051 -0.1836 -0.0179
11261TIP3    H155274   2.713   0.023   5.583  1.0495  0.6615  0.0672
11261TIP3    H255275   2.643   0.112   5.482 -0.1791 -0.3929 -0.0338
11262TIP3   OH255276   4.623   4.723  10.872 -0.4275 -0.5414 -1.4027
11262TIP3    H155277   4.577   4.734  10.955  1.5673 -0.1201 -0.2644
11262TIP3    H255278   4.596   4.798  10.819 -0.1521  0.3893 -0.2919
11263TIP3   OH255279   2.166   0.124   3.320 -0.2277  0.2098 -0.4789
11263TIP3    H155280   2.215   0.084   3.391  1.1732  0.0724 -1.4913
11263TIP3    H255281   2.231   0.171   3.268 -1.4181  1.4887 -0.9084
11264TIP3   OH255282   3.571   5.801   5.931  0.6956 -0.3183 -0.8854
11264TIP3    H155283   3.608   5.772   6.014 -0.3776  0.1806 -0.2105
11264TIP3    H255284   3.600   5.736   5.868  0.1101 -1.6788  0.1960
11265TIP3   OH255285   1.755   5.953  12.109  0.0677  0.1892  0.2235
11265TIP3    H155286   1.764   5.962  12.014  0.3289  0.5049  0.2733
11265TIP3    H255287   1.822   5.889  12.134 -2.1814 -2.4956 -0.2077
11266TIP3   OH255288   0.590   1.323   1.515 -0.1525 -0.7851  0.0706
11266TIP3    H155289   0.620   1.395   1.460 -2.4139 -0.3808 -0.7311
11266TIP3    H255290   0.586   1.248   1.456 -0.8781 -0.7798  0.1076
11267TIP3   OH255291   0.609   6.625   2.696 -0.1948 -0.1093  0.1113
11267TIP3    H155292   0.598   6.555   2.632  0.2838 -0.2587  0.1883
11267TIP3    H255293   0.535   6.615   2.756 -0.1409 -0.5352  0.1099
11268TIP3   OH255294   2.666   6.239  14.406 -0.6595 -0.3906 -0.3273
11268TIP3    H155295   2.624   6.268  14.324  0.7592 -0.5468 -1.1385
11268TIP3    H255296   2.713   6.316  14.437  1.0659 -1.0746 -1.1558
11269TIP3   OH255297   3.079   1.841   4.648  0.1288 -0.2200 -0.2493
11269TIP3    H155298   3.086   1.821   4.555  1.2085 -1.7005  0.1084
11269TIP3    H255299   2.997   1.800   4.676  1.4540 -2.8536  0.1002
11270TIP3   OH255300   0.064   6.369   0.758  0.4583 -0.9799  0.1123
11270TIP3    H155301  -0.008   6.345   0.815 -0.2940  1.3953  0.2653
11270TIP3    H255302   0.049   6.319   0.677 -0.4583 -1.6656  0.6954
11271TIP3   OH255303   0.662   4.756  12.441  0.0721 -0.1167 -0.2044
11271TIP3    H155304   0.708   4.713  12.369 -0.0859 -1.4385  0.4529
11271TIP3    H255305   0.727   4.764  12.510 -0.4792 -1.4898  0.5274
11272TIP3   OH255306   0.585   3.197   4.333  0.4737 -0.2453 -0.0097
11272TIP3    H155307   0.515   3.172   4.272  0.2823  0.7879 -0.2300
11272TIP3    H255308   0.571   3.141   4.410 -0.4915 -0.1668 -0.1202
11273TIP3   OH255309   0.636   2.179   5.779  0.4259 -0.1086  0.4439
11273TIP3    H155310   0.699   2.133   5.723  0.5582 -1.2473  1.4817
11273TIP3    H255311   0.675   2.174   5.867 -0.3542  0.5778  0.8361
11274TIP3   OH255312   2.381   4.849   4.126  0.0869 -0.7788 -0.2619
11274TIP3    H155313   2.390   4.867   4.220  0.5192  0.1658 -0.4697
11274TIP3    H255314   2.434   4.771   4.112  0.9350 -0.2863  0.0938
11275TIP3   OH255315   2.946   1.104   3.200  0.3943  0.0487  0.4006
11275TIP3    H155316   2.866   1.149   3.172  0.6588  1.1417  1.3425
11275TIP3    H255317   2.982   1.068   3.118 -1.1296 -0.6450 -0.0207
11276TIP3   OH255318   4.732   6.047  16.723  0.6331 -0.6384 -0.2281
11276TIP3    H155319   4.653   6.025  16.674  0.7125 -0.6592 -0.3495
11276TIP3    H255320   4.781   5.965  16.729  0.3898 -0.7433  0.3260
11277TIP3   OH255321   6.280   4.788   4.099  0.0421 -0.3650  0.0091
11277TIP3    H155322   6.267   4.843   4.022  1.8276  0.8544  0.5304
11277TIP3    H255323   6.348   4.726   4.074  0.5076 -0.0759  0.5403
11278TIP3   OH255324   3.137   5.611  13.046 -0.1737 -0.0902  0.0778
11278TIP3    H155325   3.139   5.516  13.040  2.0535 -0.1172  0.2358
11278TIP3    H255326   3.222   5.634  13.085 -0.3263  1.9972 -0.6929
11279TIP3   OH255327   6.724   5.074   4.234  0.2309  0.4928 -0.3372
11279TIP3    H155328   6.720   4.978   4.238 -0.5599  0.5490  0.4439
11279TIP3    H255329   6.655   5.104   4.294  1.6935  1.5688  0.8833
11280TIP3   OH255330   6.506   4.281  13.265  0.0466  0.5466  0.2452
11280TIP3    H155331   6.445   4.207  13.255  1.6840 -0.9288  0.5941
11280TIP3    H255332   6.522   4.310  13.176  0.7841 -0.7474 -0.0651
11281TIP3   OH255333   5.284   3.382  11.728 -0.2473  0.4841 -0.4330
11281TIP3    H155334   5.291   3.379  11.823 -2.7737  0.6004 -0.1707
11281TIP3    H255335   5.301   3.474  11.705  2.3205  0.1033 -0.3846
11282TIP3   OH255336   1.428   2.053   3.916 -0.9463 -0.0329 -0.4527
11282TIP3    H155337   1.380   2.097   3.986  0.7533  0.5175  0.4123
11282TIP3    H255338   1.518   2.046   3.949  0.6486  2.7859 -3.5972
11283TIP3   OH255339   1.983   5.197   4.149 -0.0886 -0.1021 -0.6055
11283TIP3    H155340   1.933   5.250   4.086  2.5444  1.8050 -1.2619
11283TIP3    H255341   2.019   5.126   4.096  1.6994  1.2108 -1.2526
11284TIP3   OH255342   5.095   5.964   4.513 -0.3688 -0.7056  0.4905
11284TIP3    H155343   5.013   6.001   4.546  0.0139  0.9080 -0.2854
11284TIP3    H255344   5.068   5.903   4.445 -0.9438 -0.4430  0.4743
11285TIP3   OH255345   0.400   2.189   2.999 -0.3182  0.7177  0.0743
11285TIP3    H155346   0.442   2.163   2.918 -0.6216 -2.4607  0.8018
11285TIP3    H255347   0.307   2.197   2.977 -0.4231 -0.3023  0.1131
11286TIP3   OH255348   4.356   1.807   5.685 -0.3004 -0.0439 -0.0063
11286TIP3    H155349   4.260   1.805   5.680 -0.3728  0.7345  0.8829
11286TIP3    H255350   4.376   1.892   5.723  0.6935 -0.7722  1.1426
11287TIP3   OH255351   5.023   5.492  13.626  0.6486 -0.5213 -0.5387
11287TIP3    H155352   4.989   5.493  13.716 -0.6902 -0.0316 -1.0215
11287TIP3    H255353   5.115   5.516  13.635  0.4471 -0.1217  0.6698
11288TIP3   OH255354   3.859   1.705  12.792 -0.1970 -0.1410  0.4477
11288TIP3    H155355   3.911   1.752  12.857  0.7264  0.0459 -0.4131
11288TIP3    H255356   3.912   1.706  12.713 -2.2085  1.6111 -0.9908
11289TIP3   OH255357   6.411   1.096  12.225  0.2170 -0.4790 -0.5176
11289TIP3    H155358   6.408   1.170  12.164  0.4010 -0.3938 -0.4276
11289TIP3    H255359   6.391   1.020  12.172  1.1991 -0.5137 -0.8705
11290TIP3   OH255360   6.805   5.552   1.012 -0.0990  0.7196  0.6468
11290TIP3    H155361   6.777   5.460   1.010 -0.1683  0.7211  1.3620
11290TIP3    H255362   6.731   5.599   0.974  0.0755  0.4529 -0.0439
11291TIP3   OH255363   4.595   5.746  10.811 -0.5368  0.0720 -0.3834
11291TIP3    H155364   4.656   5.817  10.792 -1.7472  1.1945 -0.2233
11291TIP3    H255365   4.651   5.670  10.830  0.7736  0.4927 -2.3104
11292TIP3   OH255366   5.404   2.340   0.568 -0.0052 -0.1600  0.0741
11292TIP3    H155367   5.377   2.291   0.490 -0.0168 -1.8754  1.1027
11292TIP3    H255368   5.342   2.312   0.635  1.4499 -0.5649  1.2920
11293TIP3   OH255369   1.818   4.296   0.479  0.1991  0.2468 -0.3064
11293TIP3    H155370   1.770   4.374   0.453  0.5887  0.1203 -1.4276
11293TIP3    H255371   1.846   4.256   0.397  0.4819 -0.7737  0.2709
11294TIP3   OH255372   3.534   1.052  11.556  0.2284  0.2202  0.1876
11294TIP3    H155373   3.487   1.018  11.632  0.1407 -0.2523 -0.0762
11294TIP3    H255374   3.625   1.062  11.586  0.1385  0.2885  0.4333
11295TIP3   OH255375   2.900   0.984   5.006  0.7076  0.1430  0.0081
11295TIP3    H155376   2.819   1.014   5.047 -0.2674  2.0011 -2.9162
11295TIP3    H255377   2.945   0.935   5.074 -3.2335 -1.7466  1.5422
11296TIP3   OH255378   0.641   6.750   2.322  0.0995  0.7136 -0.1545
11296TIP3    H155379   0.672   6.841   2.321  0.8965  0.4487 -0.7149
11296TIP3    H255380   0.721   6.698   2.328 -0.2142 -0.0129 -1.8849
11297TIP3   OH255381   6.786   0.193  11.831  0.5835  0.4711  0.1337
11297TIP3    H155382   6.866   0.242  11.853  1.1372 -1.0239  1.6882
11297TIP3    H255383   6.813   0.102  11.830 -1.2400 -0.1544  1.5124
11298TIP3   OH255384   5.459   5.361   4.512 -0.3111 -0.5942  0.0957
11298TIP3    H155385   5.473   5.307   4.590  0.0767 -1.1432 -0.3473
11298TIP3    H255386   5.547   5.390   4.487 -0.4250 -0.4937 -0.1874
11299TIP3   OH255387   5.225   4.611  12.974 -0.1882 -0.2348  0.2891
11299TIP3    H155388   5.239   4.577  13.063  2.9643  0.2640  0.0936
11299TIP3    H255389   5.266   4.546  12.917 -0.3854  0.4443 -0.6351
11300TIP3   OH255390   2.301   2.805   1.036 -0.7636  0.1743 -0.7798
11300TIP3    H155391   2.245   2.767   1.104  0.2735  0.8134  0.4928
11300TIP3    H255392   2.247   2.873   0.995 -0.8269  1.0880  0.7274
11301TIP3   OH255393   1.139   3.587   0.279  0.0685 -0.2539 -0.1698
11301TIP3    H155394   1.198   3.525   0.237  0.2701 -0.8102  0.9031
11301TIP3    H255395   1.056   3.539   0.288  0.3345 -0.5101  1.0008
11302TIP3   OH255396   2.179   3.619  15.652 -0.3367 -0.0424  0.4120
11302TIP3    H155397   2.248   3.613  15.585  0.1004  2.9990  0.4763
11302TIP3    H255398   2.100   3.590  15.606  0.0221  1.5672 -1.3558
11303TIP3   OH255399   3.990   2.943  12.699  0.2329  0.7909  0.1031
11303TIP3    H155400   4.074   2.913  12.665 -0.0635  0.2949 -0.2176
11303TIP3    H255401   3.958   2.869  12.751 -0.7774  0.2857 -1.1741
11304TIP3   OH255402   6.412   0.362  12.504 -0.1133  0.7813  0.1560
11304TIP3    H155403   6.456   0.282  12.476  1.3036  0.9148  1.8087
11304TIP3    H255404   6.448   0.430  12.447 -0.7029  0.3856 -0.7044
11305TIP3   OH255405   2.523   2.279   1.151  0.3592  0.6782  0.1452
11305TIP3    H155406   2.569   2.356   1.119  2.8691 -0.7635  0.0087
11305TIP3    H255407   2.553   2.268   1.241 -0.2358  0.0695  0.2772
11306TIP3   OH255408   4.539   4.601  12.264  0.2520 -0.3225  0.3963
11306TIP3    H155409   4.556   4.694  12.283  1.2115  0.0405 -1.8835
11306TIP3    H255410   4.625   4.559  12.270  0.0742 -0.7579 -0.0076
11307TIP3   OH255411   1.202   5.832  14.840  0.0462  0.0510 -0.0074
11307TIP3    H155412   1.274   5.858  14.783 -0.2346  1.6167  0.2967
11307TIP3    H255413   1.236   5.758  14.890  1.4388  0.7169  0.0722
11308TIP3   OH255414   6.167   1.347  10.638 -0.0487 -0.0698 -0.3592
11308TIP3    H155415   6.113   1.289  10.584  0.7974  0.3288 -1.7040
11308TIP3    H255416   6.251   1.302  10.644  0.2097  0.4101 -0.3292
11309TIP3   OH255417   1.208   0.974  14.930 -0.3215  0.0931  0.1192
11309TIP3    H155418   1.168   0.998  15.014 -1.0665 -0.5867 -0.0259
11309TIP3    H255419   1.199   1.051  14.875 -0.7042  0.2173  0.3580
11310TIP3   OH255420   1.297   2.147  10.943 -0.2184  0.1522 -0.5785
11310TIP3    H155421   1.392   2.155  10.942 -0.1314 -0.8337 -0.9299
11310TIP3    H255422   1.276   2.095  10.865 -0.9101 -0.9397  0.3068
11311TIP3   OH255423   1.342   0.342  13.602  0.3827 -0.0604  0.2408
11311TIP3    H155424   1.326   0.313  13.512  0.6461  1.4031 -0.2932
11311TIP3    H255425   1.399   0.418  13.593  1.0039 -0.3259  1.6957
11312TIP3   OH255426   3.663   4.889   3.294 -0.6879  0.2140 -0.1861
11312TIP3    H155427   3.619   4.938   3.363  0.5465 -1.2758  1.7660
11312TIP3    H255428   3.630   4.799   3.304  1.0890 -0.4700 -0.1088
11313TIP3   OH255429   3.863   6.772   2.081  0.8380  0.3814  0.2546
11313TIP3    H155430   3.948   6.810   2.102  0.9506 -0.0136  0.5474
11313TIP3    H255431   3.884   6.691   2.034  0.5797  1.3296 -1.5441
11314TIP3   OH255432   1.030   6.202   2.799  0.6527 -0.1273 -0.3501
11314TIP3    H155433   1.027   6.173   2.890 -1.2007 -1.4030 -0.7534
11314TIP3    H255434   0.989   6.289   2.800  1.3322  0.1873  0.1349
11315TIP3   OH255435   3.168   5.664  17.310 -0.3335 -0.5437  0.5020
11315TIP3    H155436   3.187   5.593  17.370  0.3180 -0.0063  0.9501
11315TIP3    H255437   3.133   5.734  17.365 -1.2269 -0.5998  0.0322
11316TIP3   OH255438   4.163   6.205  14.282  0.1283  0.0526 -0.5449
11316TIP3    H155439   4.252   6.172  14.270 -0.0115  0.3496 -2.9209
11316TIP3    H255440   4.151   6.269  14.212 -2.0311 -0.1481 -0.4361
11317TIP3   OH255441   5.865   0.150   4.740  0.0860  0.4166  0.3059
11317TIP3    H155442   5.918   0.126   4.664 -0.7731  1.0554 -0.5308
11317TIP3    H255443   5.882   0.081   4.804  0.3532 -0.4892 -0.7048
11318TIP3   OH255444   3.663   6.317   1.015 -0.0330  0.3399 -0.2637
11318TIP3    H155445   3.718   6.320   0.938 -0.0638  0.8331 -0.2718
11318TIP3    H255446   3.723   6.334   1.088 -0.0735  0.2967 -0.2204
11319TIP3   OH255447   5.296   2.577  14.544 -0.2846 -0.3149  0.1865
11319TIP3    H155448   5.289   2.621  14.629  0.0964 -1.1753  0.6826
11319TIP3    H255449   5.351   2.636  14.491 -2.5927  1.4912 -0.3614
11320TIP3   OH255450   6.492   6.281   4.821  0.5362  0.4831  0.0093
11320TIP3    H155451   6.539   6.200   4.800 -0.0873  0.0820  0.1402
11320TIP3    H255452   6.492   6.285   4.917 -0.5719 -0.0509  0.0450
11321TIP3   OH255453   2.148   2.358  11.925 -0.0994 -0.6672 -0.2581
11321TIP3    H155454   2.168   2.405  11.844 -0.4601  2.0160  1.0856
11321TIP3    H255455   2.207   2.282  11.924  2.3495  1.1074 -1.4814
11322TIP3   OH255456   4.883   2.554   3.973 -0.0065 -0.1449  0.2675
11322TIP3    H155457   4.893   2.473   4.022 -0.3796 -0.1959  0.2602
11322TIP3    H255458   4.915   2.533   3.885  0.8077 -0.0087  0.5223
11323TIP3   OH255459   3.258   5.811  11.409 -0.6033  0.3039 -0.0482
11323TIP3    H155460   3.312   5.748  11.361 -1.5586 -1.5208  1.1718
11323TIP3    H255461   3.250   5.886  11.350  0.9460 -0.5154 -1.3638
11324TIP3   OH255462   6.516   5.485  15.940 -0.0267 -0.7044 -0.0957
11324TIP3    H155463   6.520   5.570  15.897  0.0727  0.5991  2.2847
11324TIP3    H255464   6.531   5.505  16.033 -0.9946 -3.2095  0.6773
11325TIP3   OH255465   6.172   4.728   3.452 -0.2696  0.0281 -0.5061
11325TIP3    H155466   6.127   4.803   3.492  2.7919  2.4522 -1.2190
11325TIP3    H255467   6.231   4.696   3.521  0.3514  0.0382 -1.0198
11326TIP3   OH255468   4.924   2.489   3.700 -0.0951 -0.1315 -0.0506
11326TIP3    H155469   4.984   2.558   3.728 -1.1441  0.1629  1.6210
11326TIP3    H255470   4.978   2.430   3.647  1.8048 -0.1274  1.7475
11327TIP3   OH255471   2.096   0.587  14.263  0.5870 -0.2434 -0.0197
11327TIP3    H155472   2.080   0.625  14.176  1.2796 -0.0699 -0.0784
11327TIP3    H255473   2.051   0.503  14.261 -2.8777  1.4045  0.8569
11328TIP3   OH255474   6.350   4.585   3.638  0.7667  0.2483  0.0170
11328TIP3    H155475   6.320   4.534   3.563 -1.7236 -0.2878  1.2913
11328TIP3    H255476   6.442   4.560   3.648  0.0593 -2.9561 -0.3010
11329TIP3   OH255477   3.524   2.274   0.512 -0.0140 -0.3463 -0.3438
11329TIP3    H155478   3.614   2.297   0.490 -0.4338  0.1987 -1.5630
11329TIP3    H255479   3.522   2.273   0.608  1.7342 -2.1906 -0.2560
11330TIP3   OH255480   5.699   1.508   3.115  0.2566 -0.0318  0.4396
11330TIP3    H155481   5.753   1.549   3.047  2.3715 -2.2912  0.6072
11330TIP3    H255482   5.657   1.434   3.070 -1.8646  0.9956  0.6085
11331TIP3   OH255483   5.186   4.270   3.901 -0.8036 -0.5269  0.2926
11331TIP3    H155484   5.174   4.186   3.946 -1.5327 -0.0642  0.9714
11331TIP3    H255485   5.264   4.308   3.942 -0.3434 -0.9430 -0.1604
11332TIP3   OH255486   5.703   6.492   2.211  0.0696  0.3561 -0.1245
11332TIP3    H155487   5.776   6.447   2.254  1.1781  1.4768 -0.7864
11332TIP3    H255488   5.705   6.459   2.121  0.3442  1.0716 -0.3837
11333TIP3   OH255489   5.458   3.653   3.698 -0.8084 -0.2438  0.3359
11333TIP3    H155490   5.503   3.638   3.780  1.4965  1.4750 -0.5204
11333TIP3    H255491   5.412   3.737   3.710  1.2060  1.0877 -0.6911
11334TIP3   OH255492   2.608   5.642   4.292  0.6436  0.3089  0.0569
11334TIP3    H155493   2.609   5.716   4.231 -0.9937  0.7980  0.5624
11334TIP3    H255494   2.696   5.605   4.287  0.6344  0.4900 -2.3898
11335TIP3   OH255495   6.128   6.074   4.571 -0.4170 -0.2858  0.5140
11335TIP3    H155496   6.161   6.133   4.503 -2.0601 -0.7542 -0.7836
11335TIP3    H255497   6.177   5.993   4.558  0.8115  0.2961  1.3472
11336TIP3   OH255498   6.640   4.434  12.526  0.3210  0.6329 -0.1454
11336TIP3    H155499   6.586   4.512  12.536  0.7674  1.3750 -2.7961
11336TIP3    H255500   6.730   4.466  12.530  0.5261  0.0565 -0.0096
11337TIP3   OH255501   5.156   3.953  14.277  0.3767 -0.4338 -0.0867
11337TIP3    H155502   5.117   4.039  14.294  1.0312 -0.0051 -0.6906
11337TIP3    H255503   5.143   3.905  14.358 -2.8239 -0.8918 -0.7389
11338TIP3   OH255504   0.941   6.465  12.396 -0.0358  0.4981 -0.1648
11338TIP3    H155505   1.005   6.440  12.463  1.0496  4.7344  0.6665
11338TIP3    H255506   0.856   6.441  12.433  0.6825  0.8343  1.8165
11339TIP3   OH255507   3.831   3.659  16.220 -0.5158 -0.0852 -0.7201
11339TIP3    H155508   3.863   3.690  16.136 -1.5104 -0.9980 -1.4672
11339TIP3    H255509   3.885   3.582  16.240  0.3660  0.6998 -0.0359
11340TIP3   OH255510   4.342   1.165  12.474  0.3060  0.1011  0.1033
11340TIP3    H155511   4.409   1.104  12.442 -0.2213  0.1555 -1.1687
11340TIP3    H255512   4.307   1.124  12.553  0.8042 -0.6440 -0.0555
11341TIP3   OH255513   3.797   6.819  17.065  0.2578  0.1913  0.1006
11341TIP3    H155514   3.870   6.762  17.089  1.0866  0.1903 -2.1398
11341TIP3    H255515   3.792   6.812  16.970 -0.2454  3.0866 -0.1709
11342TIP3   OH255516   5.252   4.746   4.949  0.2039  0.2188  0.1580
11342TIP3    H155517   5.206   4.693   5.014  0.9037 -0.8042 -0.1594
11342TIP3    H255518   5.290   4.683   4.889  1.1176  1.0826 -0.2012
11343TIP3   OH255519   4.387   0.055  15.574  0.6773 -0.1158  0.0877
11343TIP3    H155520   4.317   0.028  15.633  0.2316  0.1219 -0.3243
11343TIP3    H255521   4.462   0.002  15.600  0.2660 -0.5763  0.3517
11344TIP3   OH255522   4.026   0.636  11.802 -0.3803  0.3548 -0.4451
11344TIP3    H155523   4.122   0.645  11.802 -0.4943  1.9125  0.2477
11344TIP3    H255524   4.006   0.587  11.881 -0.0174 -2.7449 -2.1107
11345TIP3   OH255525   1.161   1.693   0.718  0.2107 -0.0573  0.2383
11345TIP3    H155526   1.222   1.751   0.763  1.7244 -1.0332 -0.4855
11345TIP3    H255527   1.115   1.647   0.788  0.0020  0.9678  0.7945
11346TIP3   OH255528   3.139   3.690  13.629  0.3467 -0.4773 -0.3745
11346TIP3    H155529   3.213   3.646  13.670  1.2471  0.0485 -1.3853
11346TIP3    H255530   3.121   3.765  13.686  1.8923  0.5196 -1.1185
11347TIP3   OH255531   5.148   6.493  16.721 -0.5356  0.4215  0.3078
11347TIP3    H155532   5.070   6.532  16.759 -0.2755  2.2494 -0.8875
11347TIP3    H255533   5.221   6.541  16.760 -0.0386 -0.5523  0.6236
11348TIP3   OH255534   1.255   0.614  12.300 -0.3522 -0.4813  0.4837
11348TIP3    H155535   1.171   0.656  12.314 -0.1312  0.2462 -0.3115
11348TIP3    H255536   1.316   0.686  12.281  0.2944 -1.0482  0.3469
11349TIP3   OH255537   1.280   3.405  11.987 -0.2055 -0.3062  0.7708
11349TIP3    H155538   1.358   3.412  11.932  0.5383 -2.0093  1.5270
11349TIP3    H255539   1.207   3.406  11.926  0.3391  1.7617  0.0770
11350TIP3   OH255540   0.002   2.258  13.314 -0.0670 -0.2091 -0.1993
11350TIP3    H155541  -0.080   2.253  13.363  1.2557  2.7681  2.6464
11350TIP3    H255542   0.048   2.177  13.334 -1.0750 -0.6082  0.5503
11351TIP3   OH255543   4.592   4.925   6.237 -0.2482 -0.4419 -0.5681
11351TIP3    H155544   4.522   4.883   6.287 -0.3207 -2.3911 -2.1723
11351TIP3    H255545   4.562   5.014   6.223 -1.1319 -0.4492  1.1000
11352TIP3   OH255546   0.129   5.785  15.411  0.1335  0.2052  0.0161
11352TIP3    H155547   0.201   5.847  15.410  1.4903 -1.2891 -0.3531
11352TIP3    H255548   0.146   5.728  15.336 -1.6999  0.0777 -0.3390
11353TIP3   OH255549   3.106   3.054  13.433 -0.7691 -0.1440  0.2278
11353TIP3    H155550   3.068   2.969  13.415 -1.1468  0.0354  0.1708
11353TIP3    H255551   3.200   3.044  13.414 -1.1027 -0.0089 -1.6754
11354TIP3   OH255552   1.227   0.637   3.381 -0.4865  0.1807 -0.1896
11354TIP3    H155553   1.174   0.558   3.395  0.3988 -0.3492  0.2044
11354TIP3    H255554   1.234   0.644   3.286 -0.5611 -0.2158 -0.2253
11355TIP3   OH255555   0.306   1.943   1.108 -0.0176  0.7735  0.6144
11355TIP3    H155556   0.285   2.004   1.037 -0.3367 -0.6346 -0.5510
11355TIP3    H255557   0.401   1.932   1.103 -0.2018 -0.6628 -0.8166
11356TIP3   OH255558   6.784   4.827   2.302 -0.7183  0.2362  0.4090
11356TIP3    H155559   6.727   4.766   2.255 -2.1754  0.8313  1.3263
11356TIP3    H255560   6.840   4.865   2.234 -1.6895 -0.0854 -0.6080
11357TIP3   OH255561   3.309   6.081   5.524 -0.2228 -0.1811 -0.1738
11357TIP3    H155562   3.336   6.116   5.609  0.6170 -0.4574 -0.3169
11357TIP3    H255563   3.272   6.156   5.477  2.3951  0.8111 -0.8333
11358TIP3   OH255564   4.484   4.049   1.077 -0.7503 -0.0703 -0.2198
11358TIP3    H155565   4.494   3.973   1.019  1.4404 -0.4098  0.4970
11358TIP3    H255566   4.473   4.123   1.019 -0.2690 -0.6198 -1.0280
11359TIP3   OH255567   1.959   6.752   3.385  0.1965  0.6401 -0.1153
11359TIP3    H155568   1.865   6.752   3.367  0.4871 -0.6936 -1.8481
11359TIP3    H255569   1.991   6.834   3.349 -0.0071  0.1966 -1.3303
11360TIP3   OH255570   1.399   6.568  15.652 -0.1173  0.5239  0.0568
11360TIP3    H155571   1.459   6.634  15.617  2.7274 -1.4660  0.8658
11360TIP3    H255572   1.418   6.489  15.602 -0.1969 -0.8272  2.0556
11361TIP3   OH255573   4.051   5.523   0.707  0.2091 -0.5382 -0.3125
11361TIP3    H155574   4.085   5.547   0.620  1.7916  0.4100  0.5029
11361TIP3    H255575   4.130   5.512   0.760 -0.7359 -1.0123  1.0306
11362TIP3   OH255576   2.031   6.431  16.288  0.0843 -0.0005  0.1372
11362TIP3    H155577   2.040   6.524  16.270 -0.8041 -0.1043 -0.9346
11362TIP3    H255578   2.001   6.427  16.379  0.7260  0.7192  0.3911
11363TIP3   OH255579   2.132   4.028   5.833  0.3711  0.2265 -0.6334
11363TIP3    H155580   2.040   4.004   5.838  0.8182 -1.7807 -1.3460
11363TIP3    H255581   2.143   4.093   5.902 -1.5089  0.2940 -0.3547
11364TIP3   OH255582   1.437   4.140  13.555 -0.4760 -0.5804  0.1207
11364TIP3    H155583   1.414   4.048  13.544  0.2708 -0.6681 -0.8641
11364TIP3    H255584   1.371   4.188  13.505 -0.0529 -0.6747 -0.5389
11365TIP3   OH255585   6.312   0.382   1.500  0.4023 -0.1642 -0.1716
11365TIP3    H155586   6.227   0.419   1.522  0.3787  0.4110 -1.1430
11365TIP3    H255587   6.343   0.436   1.426  2.4870  0.9320  1.3925
11366TIP3   OH255588   1.011   0.631   0.545  0.3403  0.2998 -0.3938
11366TIP3    H155589   0.920   0.602   0.555 -0.2248  1.6286 -1.3511
11366TIP3    H255590   1.021   0.646   0.451  1.8095 -0.5834 -0.3996
11367TIP3   OH255591   2.926   1.102   1.766 -0.2489 -0.2646  0.2000
11367TIP3    H155592   2.857   1.037   1.776  1.7585 -2.8055 -1.1181
11367TIP3    H255593   2.956   1.092   1.675  0.2863  2.4408 -0.0137
11368TIP3   OH255594   3.034   1.164  15.845  1.0480 -0.5301 -0.6448
11368TIP3    H155595   3.076   1.078  15.848  3.4822  0.5602  2.3101
11368TIP3    H255596   3.107   1.226  15.840 -0.5514  1.4359 -1.1510
11369TIP3   OH255597   1.984   6.518   5.234  0.6671 -0.0634 -0.4225
11369TIP3    H155598   1.978   6.573   5.156  4.2772  0.7638 -0.3324
11369TIP3    H255599   2.052   6.560   5.287 -1.0052 -1.0878  2.8128
11370TIP3   OH255600   1.770   5.078  16.327  0.3039  0.2738  0.0384
11370TIP3    H155601   1.760   5.117  16.413  0.8009 -1.5232  0.9644
11370TIP3    H255602   1.783   4.985  16.344  0.6383 -0.0990 -1.9689
11371TIP3   OH255603   2.427   1.024   1.971 -0.2096  0.1298 -0.5676
11371TIP3    H155604   2.444   0.930   1.976  2.4257  0.5614  0.2312
11371TIP3    H255605   2.411   1.041   1.878  1.0212 -0.8731 -0.9817
11372TIP3   OH255606   4.851   2.541   5.694  0.1126  0.2963 -0.0382
11372TIP3    H155607   4.898   2.522   5.613  0.0039 -1.3679  0.2593
11372TIP3    H255608   4.886   2.478   5.757 -1.6700 -0.1968  0.4945
11373TIP3   OH255609   5.969   1.021  15.424 -0.3602 -0.3767 -0.4166
11373TIP3    H155610   5.876   1.008  15.409 -0.9415  4.1584 -2.4969
11373TIP3    H255611   6.008   1.017  15.336  0.5317  2.2349 -0.2107
11374TIP3   OH255612   5.179   0.152   3.747  0.1334 -0.6414  0.1725
11374TIP3    H155613   5.223   0.122   3.827 -1.0316 -0.5989  0.8502
11374TIP3    H255614   5.150   0.241   3.767  0.8369 -0.1891 -0.7275
11375TIP3   OH255615   3.802   1.937   0.069  0.6239  0.4046 -0.3126
11375TIP3    H155616   3.781   1.887  -0.009  0.3763 -0.3744  0.2477
11375TIP3    H255617   3.883   1.983   0.047  0.0183  0.9833 -1.3731
11376TIP3   OH255618   5.072   5.573  13.345  0.0148 -0.2524  0.0953
11376TIP3    H155619   4.984   5.538  13.361 -0.7792  1.6432  0.2137
11376TIP3    H255620   5.086   5.634  13.417  1.6108 -0.7844  0.2739
11377TIP3   OH255621   2.334   2.891   3.584  0.1268 -0.2407  0.2161
11377TIP3    H155622   2.336   2.929   3.672  3.0711 -2.9633  1.5154
11377TIP3    H255623   2.355   2.964   3.526 -0.6379  1.3660  1.8661
11378TIP3   OH255624   1.519   5.850  14.969 -0.9526  0.1406 -0.0104
11378TIP3    H155625   1.431   5.853  15.005 -0.4978  0.8574  1.0939
11378TIP3    H255626   1.507   5.852  14.874 -2.1788 -1.5520  0.0635
11379TIP3   OH255627   2.687   2.515   0.665  0.6759  0.9126  0.4146
11379TIP3    H155628   2.721   2.452   0.602 -0.3936  0.0365  0.6940
11379TIP3    H255629   2.628   2.570   0.614 -0.4427 -0.0026  0.6981
11380TIP3   OH255630   1.516   3.358  11.851  0.2458  0.1873 -0.3281
11380TIP3    H155631   1.566   3.439  11.842 -0.8270  0.7556 -1.4995
11380TIP3    H255632   1.567   3.293  11.802 -0.6038  1.0058 -2.4261
11381TIP3   OH255633   2.052   3.679   5.610 -0.1975  0.4753  0.3476
11381TIP3    H155634   1.959   3.702   5.606 -0.0272  0.9971 -1.4290
11381TIP3    H255635   2.097   3.752   5.567  0.7982 -0.8636 -1.0077
11382TIP3   OH255636   6.210   5.079  11.084  0.2066 -0.1233 -0.8220
11382TIP3    H155637   6.171   5.091  10.997 -0.4462 -0.7567 -0.6300
11382TIP3    H255638   6.145   5.027  11.132  0.7505 -0.1420 -0.0899
11383TIP3   OH255639   2.199   5.688   2.474  0.4553  0.2488 -0.1566
11383TIP3    H155640   2.207   5.779   2.501 -0.2603  0.4156 -0.4758
11383TIP3    H255641   2.281   5.668   2.429  0.3096  0.9780 -0.7648
11384TIP3   OH255642   5.226   1.841   3.031 -0.9967  0.4405 -0.0036
11384TIP3    H155643   5.187   1.924   3.006 -1.6176 -0.0817 -0.8328
11384TIP3    H255644   5.280   1.816   2.956 -0.3310  0.3878  0.4859
11385TIP3   OH255645   6.280   6.053   4.875 -0.3752  0.2561 -0.8195
11385TIP3    H155646   6.290   6.116   4.804 -0.6371 -1.5252 -2.5072
11385TIP3    H255647   6.193   6.017   4.862 -2.4394  2.9963  3.1398
11386TIP3   OH255648   2.808   0.917   0.900 -0.2244 -0.2274  0.3496
11386TIP3    H155649   2.893   0.911   0.857 -0.2299  0.6144  0.2076
11386TIP3    H255650   2.772   1.001   0.872 -0.4341  0.1344  1.6181
11387TIP3   OH255651   3.622   5.966   4.245 -0.0379  0.3801 -0.6565
11387TIP3    H155652   3.598   6.046   4.293 -0.6888  0.3037 -0.8524
11387TIP3    H255653   3.702   5.936   4.288 -0.3388  0.5913  0.0634
11388TIP3   OH255654   2.980   1.774   2.682  0.3119 -0.5625 -0.1754
11388TIP3    H155655   2.946   1.695   2.639  2.3481 -1.8370  0.4156
11388TIP3    H255656   3.025   1.822   2.613 -1.3279  0.3719 -0.6378
11389TIP3   OH255657   2.447   4.189   4.729  0.3353 -0.2908 -0.2015
11389TIP3    H155658   2.527   4.138   4.742  0.7138  0.1513 -0.7497
11389TIP3    H255659   2.411   4.156   4.647  0.2848 -0.0540 -0.2734
11390TIP3   OH255660   6.322   0.543  13.008  0.2979  0.5074  0.0847
11390TIP3    H155661   6.289   0.625  12.970 -0.2676 -0.0451 -0.6418
11390TIP3    H255662   6.312   0.479  12.938  1.8402  0.0626  0.2488
11391TIP3   OH255663   1.527   2.027   2.610 -0.0200  0.1830  0.1827
11391TIP3    H155664   1.492   2.100   2.660  1.9038  0.8575  0.6549
11391TIP3    H255665   1.622   2.043   2.607  0.3729 -1.8807 -0.3778
11392TIP3   OH255666   4.834   0.280   3.702  0.2468 -0.4835  0.4108
11392TIP3    H155667   4.836   0.213   3.770  1.8006 -0.2617  0.6184
11392TIP3    H255668   4.926   0.304   3.689 -0.2241  1.2054 -0.0515
11393TIP3   OH255669   6.539   0.717  14.686  0.1911  0.3899 -0.0468
11393TIP3    H155670   6.635   0.714  14.690  0.2027 -1.4489 -0.5970
11393TIP3    H255671   6.516   0.654  14.617 -1.4901 -1.0995  1.7489
11394TIP3   OH255672   0.553   5.735   2.776  0.3935 -0.6361 -0.3424
11394TIP3    H155673   0.529   5.665   2.714  2.3564 -1.0951 -0.6425
11394TIP3    H255674   0.601   5.798   2.722 -0.0919  0.2351  0.2303
11395TIP3   OH255675   5.285   5.515  16.281 -0.1391  0.1635  0.2196
11395TIP3    H155676   5.331   5.482  16.204  2.6941 -2.4433  2.7342
11395TIP3    H255677   5.224   5.445  16.304 -1.6393  1.3229 -0.0905
11396TIP3   OH255678   4.381   3.232  10.963 -0.4037  0.0955  0.3752
11396TIP3    H155679   4.367   3.327  10.968 -2.1082 -0.0274 -0.9504
11396TIP3    H255680   4.473   3.223  10.940 -0.5275  1.5076 -0.8716
11397TIP3   OH255681   2.994   2.602  14.471  0.3397  0.1655  0.0383
11397TIP3    H155682   3.056   2.545  14.516  0.5306 -0.0817 -0.5227
11397TIP3    H255683   3.016   2.690  14.501  0.7696  0.0510  0.0724
11398TIP3   OH255684   5.446   3.071   1.840  0.2622  0.1748 -0.5620
11398TIP3    H155685   5.499   3.008   1.790  2.4330 -0.4313  2.2320
11398TIP3    H255686   5.488   3.155   1.825 -0.6038  0.4302 -1.6533
11399TIP3   OH255687   6.425   4.971  14.147 -0.2811  0.8698 -0.0990
11399TIP3    H155688   6.505   4.920  14.162 -1.7570 -1.9372 -1.0948
11399TIP3    H255689   6.447   5.029  14.074  0.7569 -0.1408 -0.6178
11400TIP3   OH255690   2.379   0.848  14.105 -0.0928 -0.2808 -0.1821
11400TIP3    H155691   2.433   0.887  14.036  2.2663 -0.4521  1.4690
11400TIP3    H255692   2.329   0.779  14.061  0.2707  0.5487 -1.9632
11401TIP3   OH255693   6.752   1.701   0.623 -0.0928 -0.1173  0.1824
11401TIP3    H155694   6.819   1.739   0.565  0.6255 -1.8387 -0.1695
11401TIP3    H255695   6.680   1.764   0.620  0.8828  1.0277 -0.6573
11402TIP3   OH255696   4.046   2.935   3.355  0.1188  0.7425  0.6968
11402TIP3    H155697   4.056   2.902   3.266  1.0629  1.8127  0.3694
11402TIP3    H255698   3.952   2.940   3.370 -0.0683  1.4279 -0.6007
11403TIP3   OH255699   0.843   2.609   5.682  0.0205 -0.5225  0.2698
11403TIP3    H155700   0.759   2.610   5.637  0.7589 -2.5378 -1.3075
11403TIP3    H255701   0.827   2.561   5.763 -0.5919  0.1478  0.5505
11404TIP3   OH255702   4.260   0.893   3.034 -0.0254 -0.2572  0.2718
11404TIP3    H155703   4.191   0.894   3.100  2.2325 -2.6960  2.9418
11404TIP3    H255704   4.320   0.963   3.061  0.6426 -0.9242  0.5734
11405TIP3   OH255705   6.630   1.133  13.872 -0.3176  0.0214 -0.2438
11405TIP3    H155706   6.548   1.094  13.902  0.4086 -2.5175 -1.2620
11405TIP3    H255707   6.615   1.152  13.779 -0.8167  2.8550  0.3234
11406TIP3   OH255708   2.321   3.505  15.437 -0.7533 -0.9384 -0.0270
11406TIP3    H155709   2.249   3.446  15.461  0.6061 -2.3680  0.7860
11406TIP3    H255710   2.399   3.450  15.445  0.4135  0.5077 -1.0748
11407TIP3   OH255711   1.747   4.710  16.148 -0.0661 -0.0573 -0.3357
11407TIP3    H155712   1.691   4.768  16.097 -0.1069  0.3354  0.1445
11407TIP3    H255713   1.689   4.639  16.176  0.4240 -1.4471 -2.6139
11408TIP3   OH255714   4.093   1.341  13.651  0.2238  0.1492  0.0658
11408TIP3    H155715   4.167   1.297  13.609  0.1289  1.2971 -1.3912
11408TIP3    H255716   4.017   1.317  13.599  0.1248  1.7337 -0.5919
11409TIP3   OH255717   2.262   6.353   1.606 -0.4496  0.6788 -1.4209
11409TIP3    H155718   2.297   6.441   1.596  1.1230  0.6541  2.2770
11409TIP3    H255719   2.200   6.360   1.679  0.8374 -1.4418  0.0107
11410TIP3   OH255720   4.793   3.421   1.630 -0.1710  0.4352 -0.2337
11410TIP3    H155721   4.755   3.338   1.658 -0.5331  0.3425 -0.9741
11410TIP3    H255722   4.719   3.482   1.627 -0.4168  0.0896 -2.3142
11411TIP3   OH255723   1.776   3.574  16.622 -0.7250  0.2523  0.3012
11411TIP3    H155724   1.750   3.665  16.632  0.0213  0.5550 -0.4140
11411TIP3    H255725   1.696   3.528  16.595 -0.4816  1.2697 -2.4961
11412TIP3   OH255726   3.692   1.320   6.901  0.1332 -0.0091 -0.0655
11412TIP3    H155727   3.624   1.371   6.946 -0.2516  0.7081 -1.4011
11412TIP3    H255728   3.745   1.386   6.855  0.7533 -0.6821 -0.3318
11413TIP3   OH255729   1.643   2.258   0.484  0.0126 -0.5355  0.0849
11413TIP3    H155730   1.736   2.276   0.489 -0.0410 -0.1389 -0.3035
11413TIP3    H255731   1.634   2.195   0.412  0.3892 -3.5220  2.4472
11414TIP3   OH255732   6.736   5.279   0.972 -0.3672 -0.8221  0.4302
11414TIP3    H155733   6.806   5.219   0.999  0.6460 -0.9365 -2.1591
11414TIP3    H255734   6.657   5.225   0.971  0.3473 -1.8918 -0.8899
11415TIP3   OH255735   6.097   0.586   2.022 -0.1691  0.6224 -0.3971
11415TIP3    H155736   6.126   0.635   2.099 -0.9004  2.7171 -1.3682
11415TIP3    H255737   6.021   0.536   2.052  0.5554  0.1033  0.6159
11416TIP3   OH255738   0.681   1.996  10.499 -0.0214  0.2623 -0.5015
11416TIP3    H155739   0.710   1.931  10.434 -2.1085  1.0771 -2.3837
11416TIP3    H255740   0.746   2.066  10.493  1.8463 -1.2422  1.0227
11417TIP3   OH255741   5.232   3.114   1.649  0.4529 -0.0947  0.4170
11417TIP3    H155742   5.253   3.077   1.735 -0.9187  0.0158  0.8175
11417TIP3    H255743   5.161   3.176   1.666 -0.7050 -0.9798 -0.9569
11418TIP3   OH255744   2.704   6.100   3.409  0.0719 -1.1120 -0.2150
11418TIP3    H155745   2.727   6.127   3.498  0.1656 -0.6352 -0.3790
11418TIP3    H255746   2.626   6.152   3.388  1.2617  0.3727 -1.1750
11419TIP3   OH255747   1.436   0.396  11.192  0.6812 -0.2488  0.2565
11419TIP3    H155748   1.391   0.312  11.191 -2.8241  1.3961 -1.8869
11419TIP3    H255749   1.438   0.421  11.284 -2.1079 -0.9085  0.5957
11420TIP3   OH255750   6.611   1.827   3.717  0.3898 -0.1763  0.0759
11420TIP3    H155751   6.682   1.872   3.671 -1.3191  1.1939 -1.3650
11420TIP3    H255752   6.618   1.736   3.688  1.3640 -0.0003 -0.2824
11421TIP3   OH255753   2.340   1.642  16.282 -0.6010  0.0998  0.0513
11421TIP3    H155754   2.391   1.591  16.220 -1.4677  0.0811 -0.6649
11421TIP3    H255755   2.301   1.577  16.341  0.0879  0.1081  0.5369
11422TIP3   OH255756   0.894   0.603  11.680  0.2612 -0.1068  0.2614
11422TIP3    H155757   0.875   0.599  11.774  1.8943  1.2239  0.7132
11422TIP3    H255758   0.850   0.683  11.651 -0.8324 -0.8870 -0.2935
11423TIP3   OH255759   4.933   4.675  14.258  0.7708 -0.5638  0.6352
11423TIP3    H155760   4.995   4.691  14.329  1.1192 -1.0859  0.4568
11423TIP3    H255761   4.976   4.712  14.180  1.5502 -2.2030  0.2323
11424TIP3   OH255762   2.202   0.753   2.483  0.0310 -0.0066  0.0499
11424TIP3    H155763   2.148   0.815   2.435 -0.4507 -0.6585 -0.2689
11424TIP3    H255764   2.249   0.806   2.547 -0.6857  0.6248  0.0667
11425TIP3   OH255765   3.204   5.655  13.894 -0.2450  0.2210  0.0626
11425TIP3    H155766   3.188   5.746  13.919  0.9907  0.4492  0.0865
11425TIP3    H255767   3.266   5.623  13.960  0.1572 -0.2950 -0.5587
11426TIP3   OH255768   4.186   4.510  11.267 -0.1626 -0.8300  0.2085
11426TIP3    H155769   4.114   4.462  11.307 -1.3046  0.8989  0.3215
11426TIP3    H255770   4.201   4.466  11.183 -1.6684 -0.9604 -0.0153
11427TIP3   OH255771   6.073   6.291  16.788 -0.2204  0.8437  0.1139
11427TIP3    H155772   6.125   6.294  16.868 -0.3253 -0.6082  0.2739
11427TIP3    H255773   6.135   6.263  16.721 -0.5689 -0.0025  0.1256
11428TIP3   OH255774   2.503   1.305   1.584 -0.3580 -0.1240 -0.0208
11428TIP3    H155775   2.550   1.324   1.502 -0.2722 -0.0826  0.0382
11428TIP3    H255776   2.507   1.387   1.633 -0.0318 -0.2802  0.2139
11429TIP3   OH255777   5.362   6.502  11.733 -0.1696 -0.1669  0.4808
11429TIP3    H155778   5.435   6.545  11.689 -0.9310 -1.4961 -2.2842
11429TIP3    H255779   5.400   6.464  11.812  1.9473 -0.1465 -0.4751
11430TIP3   OH255780   4.104   4.978  16.066 -0.1777  0.2696  0.2497
11430TIP3    H155781   4.019   5.015  16.045 -0.2024  0.1749  0.1839
11430TIP3    H255782   4.128   4.926  15.990 -0.3212 -0.1659  0.4966
11431TIP3   OH255783   2.485   2.522  12.183  0.8288 -0.4416  0.2814
11431TIP3    H155784   2.416   2.468  12.222  0.4770 -0.8603 -0.8515
11431TIP3    H255785   2.535   2.460  12.129  0.4195  0.3227 -1.0326
11432TIP3   OH255786   4.179   2.469  14.087 -0.0415  0.3325  0.2868
11432TIP3    H155787   4.216   2.496  14.171  0.7605 -1.3841  0.5451
11432TIP3    H255788   4.200   2.375  14.081 -1.6320  0.0027 -1.0169
11433TIP3   OH255789   6.748   1.188   4.351 -0.1005  0.3492  0.2605
11433TIP3    H155790   6.773   1.271   4.311  1.4401 -0.1922  0.0316
11433TIP3    H255791   6.686   1.212   4.420 -0.6755  1.5519 -0.6388
11434TIP3   OH255792   2.853   0.695   4.891 -0.6112 -0.6062 -0.0282
11434TIP3    H155793   2.874   0.646   4.811 -1.7910 -0.5876 -0.3695
11434TIP3    H255794   2.856   0.787   4.865  0.9654 -0.4978  0.4544
11435TIP3   OH255795   3.872   5.810  13.229 -0.4011 -0.7824 -0.3224
11435TIP3    H155796   3.843   5.900  13.221 -1.2137 -0.9568  0.4265
11435TIP3    H255797   3.966   5.813  13.212  0.2116  0.7160  2.7101
11436TIP3   OH255798   6.101   5.577   5.309 -0.0842 -0.3336  0.3332
11436TIP3    H155799   6.112   5.535   5.223  0.0717  0.6478 -0.1329
11436TIP3    H255800   6.022   5.630   5.300  0.7641  0.9619  0.2982
11437TIP3   OH255801   1.430   4.345   3.273  0.3744  0.3939  0.1324
11437TIP3    H155802   1.521   4.334   3.248 -0.0512  1.2082 -1.9486
11437TIP3    H255803   1.417   4.439   3.281 -0.5575  0.3668 -0.7996
11438TIP3   OH255804   0.683   1.646  11.100 -0.2087  0.0265  0.1314
11438TIP3    H155805   0.741   1.572  11.113 -1.0845 -0.5446  0.9153
11438TIP3    H255806   0.723   1.696  11.029  0.6848 -0.8893 -0.0273
11439TIP3   OH255807   6.288   4.111   3.255  0.4055 -0.6310 -0.0121
11439TIP3    H155808   6.198   4.092   3.227  0.7313 -1.3080 -0.6060
11439TIP3    H255809   6.335   4.129   3.174  0.9590 -0.8896  0.2511
11440TIP3   OH255810   0.765   0.151  13.711 -0.5888  0.1275 -0.6096
11440TIP3    H155811   0.828   0.087  13.743  1.3049  1.1623 -2.0616
11440TIP3    H255812   0.755   0.132  13.618 -1.3267  0.8678 -0.7001
11441TIP3   OH255813   0.217   0.143  10.327  0.1465 -0.2723  0.0532
11441TIP3    H155814   0.171   0.063  10.352  0.9340 -0.1924  1.9040
11441TIP3    H255815   0.309   0.125  10.348  0.1441  1.6531  2.0646
11442TIP3   OH255816   0.786   0.939   5.134 -0.3797 -0.1177 -0.1501
11442TIP3    H155817   0.843   0.999   5.181  0.4683 -0.9895 -0.0396
11442TIP3    H255818   0.716   0.919   5.196 -0.1917  0.0615  0.1213
11443TIP3   OH255819   1.546   4.240  17.081 -0.1487  0.2109  0.0037
11443TIP3    H155820   1.637   4.239  17.053 -0.0555  1.2098  0.2464
11443TIP3    H255821   1.547   4.197  17.167 -0.1686 -1.2148 -0.6728
11444TIP3   OH255822   0.933   1.526  15.919  0.1393 -0.2633 -0.0365
11444TIP3    H155823   0.988   1.511  15.842  2.6059  0.5873  1.4538
11444TIP3    H255824   0.897   1.613  15.906  2.1004  0.6885  0.5896
11445TIP3   OH255825   1.445   6.377  16.965  0.8411  0.1847  0.5324
11445TIP3    H155826   1.412   6.327  17.040  1.1871  1.6565  1.7089
11445TIP3    H255827   1.424   6.322  16.889  0.5840 -1.4094  1.6937
11446TIP3   OH255828   3.048   5.124   5.267 -0.3464  0.1013 -0.0730
11446TIP3    H155829   2.956   5.151   5.265 -0.3087  0.2075 -0.3764
11446TIP3    H255830   3.083   5.165   5.346  0.0451  2.0869 -1.2060
11447TIP3   OH255831   4.359   5.859   1.541  0.0387  0.3315 -0.5621
11447TIP3    H155832   4.344   5.942   1.496  0.4880 -0.1610 -1.6621
11447TIP3    H255833   4.438   5.824   1.500  1.4306  0.5933  1.7201
11448TIP3   OH255834   0.630   5.384  14.034 -0.7012 -0.1780 -0.0529
11448TIP3    H155835   0.578   5.329  14.092 -1.9682  0.6198 -0.4034
11448TIP3    H255836   0.570   5.453  14.005  0.0482 -0.2208 -1.8641
11449TIP3   OH255837   1.440   5.618   4.351  0.0265 -0.2412 -0.1111
11449TIP3    H155838   1.460   5.698   4.399  0.0580  0.0613 -0.6166
11449TIP3    H255839   1.481   5.548   4.402  2.4282  0.3458 -1.0982
11450TIP3   OH255840   0.072   2.390   1.334  0.4335 -0.1162  0.0561
11450TIP3    H155841   0.025   2.441   1.267  0.0671 -0.7468 -0.1748
11450TIP3    H255842   0.012   2.319   1.355  1.8088 -1.7342 -1.2402
11451TIP3   OH255843   4.394   0.733   4.448 -0.2373 -0.2812  0.1370
11451TIP3    H155844   4.426   0.684   4.372  0.9231 -0.0784  0.4787
11451TIP3    H255845   4.467   0.733   4.509 -0.9715  0.0319  1.0379
11452TIP3   OH255846   0.465   4.989   4.231  0.4110  0.0238 -0.3165
11452TIP3    H155847   0.425   4.913   4.191 -1.7013  0.8204  0.1420
11452TIP3    H255848   0.551   4.959   4.262 -1.2031 -2.8038  1.8429
11453TIP3   OH255849   6.770   5.224   5.574  0.0858 -0.2863  0.0933
11453TIP3    H155850   6.742   5.133   5.569 -0.8188  0.0232 -0.6741
11453TIP3    H255851   6.820   5.229   5.656  0.1124 -1.4524  0.1616
11454TIP3   OH255852   5.995   2.799  10.822 -0.1445 -0.3460 -0.2741
11454TIP3    H155853   5.995   2.884  10.866 -3.7238  0.6196 -1.8133
11454TIP3    H255854   6.033   2.816  10.736  1.0152 -0.8125  0.1270
11455TIP3   OH255855   2.406   6.057   5.345 -0.0378  0.2272  0.2609
11455TIP3    H155856   2.394   5.964   5.366 -0.8056  0.0581 -0.8402
11455TIP3    H255857   2.482   6.059   5.288 -0.5431  0.1554 -0.4285
11456TIP3   OH255858   4.461   1.959   3.197 -0.4541 -0.2979  0.8646
11456TIP3    H155859   4.459   1.996   3.108  1.1165 -2.1594 -0.0281
11456TIP3    H255860   4.549   1.979   3.228 -0.3744 -1.2478  1.2663
11457TIP3   OH255861   5.360   4.068   3.375  0.3067 -0.4939 -0.6586
11457TIP3    H155862   5.273   4.083   3.339  0.1525 -0.0807 -0.1145
11457TIP3    H255863   5.352   3.987   3.426 -0.5157  1.0335  1.7912
11458TIP3   OH255864   3.350   3.427   1.167  0.0785 -0.7162 -0.0393
11458TIP3    H155865   3.445   3.435   1.163  0.1801 -1.2186  1.1467
11458TIP3    H255866   3.322   3.497   1.226 -0.1517 -1.4077  0.6882
11459TIP3   OH255867   3.320   1.682  16.332  0.1500 -0.5865 -0.2755
11459TIP3    H155868   3.244   1.652  16.382  0.1363 -0.0514  0.0414
11459TIP3    H255869   3.310   1.642  16.246 -1.2987  0.6611 -0.7300
11460TIP3   OH255870   6.129   4.798   4.855  0.0729 -0.1649  0.0657
11460TIP3    H155871   6.194   4.835   4.796  1.0013  1.6514  2.0501
11460TIP3    H255872   6.151   4.835   4.941 -2.1550 -1.3809  1.2700
11461TIP3   OH255873   5.382   3.929  12.629 -0.2386 -0.1816  0.1062
11461TIP3    H155874   5.446   3.946  12.697 -0.3953  1.2407 -0.0506
11461TIP3    H255875   5.338   3.848  12.655  0.7350 -0.4658  0.8808
11462TIP3   OH255876   4.135   4.566  16.476  0.4530  0.1591 -0.5954
11462TIP3    H155877   4.074   4.634  16.505 -1.6905 -1.6452 -0.5308
11462TIP3    H255878   4.089   4.522  16.405  1.6244 -1.3731 -0.4597
11463TIP3   OH255879   1.650   2.209   6.228 -0.0290  0.3464 -0.2880
11463TIP3    H155880   1.680   2.299   6.243  0.0993  0.2113  0.2996
11463TIP3    H255881   1.723   2.154   6.258 -0.5854  0.0250  0.5058
11464TIP3   OH255882   3.855   6.513   6.131 -0.1928  0.1747  0.6362
11464TIP3    H155883   3.867   6.592   6.078  3.0122  1.1019  2.4798
11464TIP3    H255884   3.766   6.521   6.166 -0.5660  2.0588 -0.5987
11465TIP3   OH255885   3.303   4.830   5.292  0.5978  0.4780 -0.0944
11465TIP3    H155886   3.294   4.861   5.382 -1.2132 -0.0379 -0.0596
11465TIP3    H255887   3.214   4.809   5.265  1.3018 -1.0349 -1.4106
11466TIP3   OH255888   4.411   2.972  15.817  0.0448  0.6087  0.3702
11466TIP3    H155889   4.420   3.065  15.797  0.6907  0.5939  0.5925
11466TIP3    H255890   4.359   2.970  15.898  2.3584  0.9161  1.9625
11467TIP3   OH255891   0.832   0.135   3.071  0.5422  0.4474  0.5453
11467TIP3    H155892   0.874   0.136   2.985  2.1704 -0.4505  1.2916
11467TIP3    H255893   0.885   0.195   3.124  1.5311 -1.3994  1.7565
11468TIP3   OH255894   0.853   4.316  16.432 -0.0405 -0.0687  0.1249
11468TIP3    H155895   0.831   4.223  16.425  1.0693 -0.3771  0.4518
11468TIP3    H255896   0.904   4.335  16.353  0.2366  0.1011  0.3398
11469TIP3   OH255897   6.411   2.587   0.489 -0.4112 -0.0933 -0.1350
11469TIP3    H155898   6.410   2.623   0.577  0.1883  0.7505 -0.4618
11469TIP3    H255899   6.434   2.661   0.433 -1.2569 -0.5073 -1.0574
11470TIP3   OH255900   2.152   0.205  13.440 -0.2436  0.2353  0.0952
11470TIP3    H155901   2.223   0.153  13.478 -0.0288 -0.0735 -0.7176
11470TIP3    H255902   2.072   0.162  13.471 -0.1119 -1.9271 -2.2404
11471TIP3   OH255903   1.541   1.371  14.264 -0.6699  0.3055 -0.0363
11471TIP3    H155904   1.458   1.399  14.302 -0.3493  1.3805 -0.0886
11471TIP3    H255905   1.534   1.276  14.259 -1.3999  0.2708  1.1217
11472TIP3   OH255906   3.362   3.516  15.138 -0.0153  0.8308  0.1256
11472TIP3    H155907   3.437   3.456  15.143 -0.0263  0.8045 -0.0224
11472TIP3    H255908   3.373   3.561  15.054 -0.3573  0.5682 -0.0662
11473TIP3   OH255909   3.960   5.601   6.565  0.0650 -0.3271  0.1653
11473TIP3    H155910   4.018   5.651   6.507 -2.1430  1.1770 -0.9058
11473TIP3    H255911   3.936   5.663   6.634 -0.6695 -0.7267  0.2836
11474TIP3   OH255912   0.129   0.132  12.096 -0.4518 -0.1871  0.4118
11474TIP3    H155913   0.116   0.047  12.138 -0.9975 -1.3492 -1.9207
11474TIP3    H255914   0.115   0.114  12.003  2.3737  1.8471 -0.5285
11475TIP3   OH255915   2.245   2.343   3.956  0.1964 -0.1358  0.0852
11475TIP3    H155916   2.164   2.296   3.971 -0.8498  1.8134  0.9129
11475TIP3    H255917   2.291   2.341   4.040  0.5140 -0.3565 -0.0931
11476TIP3   OH255918   2.918   0.751  12.289  0.3356 -0.4984 -0.1911
11476TIP3    H155919   2.939   0.689  12.219  1.5167  0.3173 -0.5817
11476TIP3    H255920   2.829   0.728  12.315 -0.0050 -1.0275 -1.7308
11477TIP3   OH255921   3.848   5.039  15.765 -0.1525 -0.2262  0.0300
11477TIP3    H155922   3.758   5.015  15.745  0.4130 -0.7138 -2.1664
11477TIP3    H255923   3.851   5.041  15.861 -2.2151 -1.2329  0.1780
11478TIP3   OH255924   1.396   2.486   0.895 -0.0249 -0.0195 -0.2151
11478TIP3    H155925   1.444   2.541   0.957  1.9379 -1.3463 -0.4457
11478TIP3    H255926   1.374   2.544   0.823  2.6493  0.4248 -0.8062
11479TIP3   OH255927   0.248   0.881   6.163  0.8291 -0.2013 -0.3979
11479TIP3    H155928   0.249   0.890   6.068 -0.9918 -0.4009 -0.4892
11479TIP3    H255929   0.167   0.832   6.181 -0.6319  2.6184  1.4426
11480TIP3   OH255930   5.084   1.814  15.689 -0.0405  0.1519 -0.0860
11480TIP3    H155931   5.030   1.893  15.682  0.6849  0.5939 -0.8591
11480TIP3    H255932   5.022   1.744  15.707 -0.7147  0.8762  0.5192
11481TIP3   OH255933   2.548   4.433   0.045 -0.0997  0.5041 -0.1394
11481TIP3    H155934   2.600   4.418   0.124  0.1751  1.7169 -0.0688
11481TIP3    H255935   2.583   4.515   0.009 -0.9613  0.5398 -0.9210
11482TIP3   OH255936   5.759   0.389   0.891 -0.1086  0.6430 -0.2617
11482TIP3    H155937   5.676   0.429   0.866 -0.2788  0.6921  0.3574
11482TIP3    H255938   5.812   0.462   0.924  0.1635  0.6054 -0.6151
11483TIP3   OH255939   6.718   1.662   2.639  0.5771 -0.1848  0.9975
11483TIP3    H155940   6.790   1.641   2.698  1.3529  1.8579  0.8543
11483TIP3    H255941   6.719   1.592   2.574  1.1798 -1.2196  2.0783
11484TIP3   OH255942   1.357   4.076   4.530  0.1672  0.1795 -0.3771
11484TIP3    H155943   1.434   4.024   4.505 -0.1788 -0.3317 -0.3745
11484TIP3    H255944   1.346   4.060   4.623 -1.2614 -1.5114 -0.7965
11485TIP3   OH255945   4.945   0.598   2.456 -0.4442 -0.7659 -0.5497
11485TIP3    H155946   4.870   0.607   2.515 -0.4210 -1.1231 -0.4621
11485TIP3    H255947   5.003   0.670   2.479  0.0126 -1.4556  0.5330
11486TIP3   OH255948   3.994   4.885   0.205 -0.0676 -0.2502  0.7389
11486TIP3    H155949   3.987   4.871   0.300  1.1759 -3.1703  0.4841
11486TIP3    H255950   4.082   4.855   0.183  1.0353  3.5781 -0.9485
11487TIP3   OH255951   0.613   2.732   0.209 -0.4199 -0.2420  0.1837
11487TIP3    H155952   0.534   2.773   0.245 -0.2670 -1.3660  1.9320
11487TIP3    H255953   0.681   2.797   0.221 -0.5894 -0.2060  1.0072
11488TIP3   OH255954   5.343   3.822  16.823 -0.4051 -0.5785  0.1253
11488TIP3    H155955   5.291   3.870  16.887  1.9932  0.8360  1.1639
11488TIP3    H255956   5.385   3.752  16.873  0.6040 -0.1587 -0.1066
11489TIP3   OH255957   3.638   1.228   5.899 -0.1165  0.1443 -0.5070
11489TIP3    H155958   3.725   1.231   5.939 -0.0936  2.3153 -0.6142
11489TIP3    H255959   3.648   1.171   5.823  0.7907 -0.9442  0.4110
11490TIP3   OH255960   0.900   1.407   6.458 -0.7203  0.3187  0.1586
11490TIP3    H155961   0.822   1.407   6.513 -2.0471 -0.4225 -1.6420
11490TIP3    H255962   0.940   1.321   6.473 -0.6113  0.4362  0.5616
11491TIP3   OH255963   4.314   3.314   3.836 -0.1920 -0.2508  0.2857
11491TIP3    H155964   4.288   3.234   3.792  0.1644  1.4129 -3.2415
11491TIP3    H255965   4.409   3.319   3.824 -0.3887  1.3825 -0.8743
11492TIP3   OH255966   6.772   4.983  15.583  0.5611 -0.6774  0.2326
11492TIP3    H155967   6.741   4.907  15.533  1.6486 -0.0617 -1.4795
11492TIP3    H255968   6.773   4.953  15.674  0.2292 -2.4591 -0.3042
11493TIP3   OH255969   1.801   5.632  13.418 -0.2776 -0.0580 -0.2729
11493TIP3    H155970   1.871   5.590  13.468 -1.2593 -0.6230  0.6377
11493TIP3    H255971   1.831   5.722  13.407  1.2638 -0.6416 -1.1583
11494TIP3   OH255972   5.917   5.726   3.302  0.0685 -0.1809  0.0458
11494TIP3    H155973   5.902   5.711   3.208 -0.5238 -4.5364  0.6318
11494TIP3    H255974   6.012   5.722   3.312  0.0814 -3.1229 -0.1468
11495TIP3   OH255975   4.206   5.101   2.124  0.1045  0.0191 -0.2492
11495TIP3    H155976   4.113   5.091   2.103  0.4779 -0.2094 -1.9602
11495TIP3    H255977   4.241   5.153   2.051  1.4177 -0.3129  0.1270
11496TIP3   OH255978   1.479   3.353   5.604  0.1142  0.1982  0.5384
11496TIP3    H155979   1.505   3.265   5.632  0.3263  0.2514  0.5090
11496TIP3    H255980   1.406   3.338   5.544  0.6704 -0.0095 -0.1005
11497TIP3   OH255981   2.142   2.175  15.199  0.1052 -0.1767  0.2159
11497TIP3    H155982   2.099   2.099  15.239 -0.4006 -0.3199 -0.5924
11497TIP3    H255983   2.233   2.148  15.190 -0.1169 -0.7805 -0.2876
11498TIP3   OH255984   5.804   3.236   2.207 -0.5291 -0.3069  0.4063
11498TIP3    H155985   5.871   3.272   2.148 -1.2701  1.8465  0.7891
11498TIP3    H255986   5.853   3.205   2.283  0.1979 -0.5138 -0.1361
11499TIP3   OH255987   4.220   1.933   1.893 -0.4819 -0.5618 -0.5625
11499TIP3    H155988   4.147   1.888   1.935 -1.1814  1.2990  0.3429
11499TIP3    H255989   4.197   2.026   1.899  2.6377  0.2126  1.0977
11500TIP3   OH255990   4.308   0.108   6.524 -0.2131 -0.2121 -0.3229
11500TIP3    H155991   4.363   0.059   6.585 -1.2300 -0.1072  0.7108
11500TIP3    H255992   4.303   0.053   6.446  0.7875 -0.5268 -0.1836
11501TIP3   OH255993   4.579   1.264  16.754  0.0979 -0.0378 -0.2889
11501TIP3    H155994   4.508   1.274  16.817 -1.2195  0.0006 -1.7221
11501TIP3    H255995   4.612   1.175  16.770 -0.8839 -0.4054 -0.1748
11502TIP3   OH255996   2.977   5.147   3.375  0.3650 -0.6454  0.2010
11502TIP3    H155997   2.939   5.066   3.411  0.3335 -0.8237 -0.2273
11502TIP3    H255998   2.902   5.197   3.344  0.2603  0.1419  1.6277
11503TIP3   OH255999   4.453   2.008   5.096 -0.0922  0.5919 -0.3897
11503TIP3    H156000   4.450   2.092   5.142 -0.2795  0.2019  0.3295
11503TIP3    H256001   4.427   1.944   5.162  1.8070 -0.2565 -0.3994
11504TIP3   OH256002   4.901   0.079  11.479 -0.0887 -0.4531  0.2403
11504TIP3    H156003   4.888   0.157  11.426  0.8773  0.8633  1.8312
11504TIP3    H256004   4.827   0.078  11.539  0.2861 -0.3350  0.7091
11505TIP3   OH256005   5.875   5.561   4.708 -0.4551 -0.4171  0.1171
11505TIP3    H156006   5.963   5.523   4.717  0.8035  2.4058  1.1184
11505TIP3    H256007   5.886   5.629   4.642 -1.8199  0.1957  0.4998
11506TIP3   OH256008   1.937   0.682  15.344  0.2451 -0.5763  0.9177
11506TIP3    H156009   1.881   0.756  15.367 -0.4981 -0.9707  0.4392
11506TIP3    H256010   1.983   0.660  15.425  0.0768  0.0721  1.1916
11507TIP3   OH256011   0.556   0.105  16.579  0.0236  0.2864 -0.2898
11507TIP3    H156012   0.641   0.113  16.536  0.2854  2.4880  0.4765
11507TIP3    H256013   0.492   0.115  16.508  0.3999 -0.3355 -0.7260
11508TIP3   OH256014   1.279   2.258  11.188 -0.8366  0.3555  0.4345
11508TIP3    H156015   1.335   2.336  11.192 -1.6221  1.0323 -0.9677
11508TIP3    H256016   1.292   2.224  11.099 -2.4767  0.4164  0.1352
11509TIP3   OH256017   5.756   3.088   2.757 -0.1508 -0.0378 -0.1275
11509TIP3    H156018   5.746   3.155   2.689 -0.0529  1.1131  0.9656
11509TIP3    H256019   5.676   3.095   2.810  0.3551 -0.0105  0.6520
11510TIP3   OH256020   6.217   2.524   4.292  0.0218 -0.3514 -0.0460
11510TIP3    H156021   6.296   2.551   4.338 -0.6425  0.8814  0.4106
11510TIP3    H256022   6.243   2.522   4.199  0.5921  0.0356  0.0977
11511TIP3   OH256023   1.475   1.598  16.546  0.0674  0.2329  0.3042
11511TIP3    H156024   1.514   1.643  16.471 -1.1415  2.0608  0.7212
11511TIP3    H256025   1.547   1.591  16.609  0.6113  0.3557 -0.2845
11512TIP3   OH256026   2.705   3.203  15.601  0.0087  0.0497  0.7835
11512TIP3    H156027   2.627   3.256  15.583 -0.8617 -1.2986  0.4711
11512TIP3    H256028   2.739   3.180  15.514 -0.9813 -1.8244  0.8470
11513TIP3   OH256029   5.614   6.054   1.561 -0.2155  0.1577 -0.0791
11513TIP3    H156030   5.631   6.110   1.637 -2.1339 -0.3611  0.7993
11513TIP3    H256031   5.595   6.115   1.490 -0.0722  0.6429  0.2919
11514TIP3   OH256032   5.768   0.222  11.755 -0.0028  0.3518  0.2661
11514TIP3    H156033   5.718   0.281  11.699  0.0795  0.4497  0.2958
11514TIP3    H256034   5.703   0.187  11.817 -0.1485  0.0361 -0.0578
11515TIP3   OH256035   5.239   0.954  14.271  0.0031 -0.0785  0.2277
11515TIP3    H156036   5.313   1.008  14.242 -0.2450 -0.4580 -1.1642
11515TIP3    H256037   5.161   0.999  14.237 -0.2395 -1.0173 -0.5043
11516TIP3   OH256038   3.277   3.444   5.434  0.4450  0.0011 -0.2767
11516TIP3    H156039   3.257   3.437   5.527  0.0333 -1.3704 -0.4476
11516TIP3    H256040   3.261   3.536   5.413 -2.1943 -0.1962  0.4211
11517TIP3   OH256041   3.683   1.988   1.391 -0.7245  0.1791 -0.3891
11517TIP3    H156042   3.757   1.936   1.421 -0.6204  0.4747 -0.1297
11517TIP3    H256043   3.633   2.007   1.471  0.3387  2.2083 -0.1456
11518TIP3   OH256044   4.771   0.012   4.149  0.4378  0.0341 -0.0047
11518TIP3    H156045   4.677   0.032   4.149  0.4061 -0.0257 -1.0146
11518TIP3    H256046   4.779  -0.061   4.087  1.0697 -0.4033  0.5845
11519TIP3   OH256047   1.866   1.673  17.190  0.5092  0.0979  0.2391
11519TIP3    H156048   1.944   1.720  17.220 -1.0445  2.7483  0.4858
11519TIP3    H256049   1.828   1.636  17.269 -0.4083  2.0221  0.7642
11520TIP3   OH256050   2.689   6.440  13.108 -0.4223 -0.1780 -0.6681
11520TIP3    H156051   2.595   6.439  13.089 -0.7031  1.0548  0.4731
11520TIP3    H256052   2.726   6.499  13.043 -0.3736 -0.9458 -1.3454
11521TIP3   OH256053   0.352   0.516  14.603  0.6976  0.1840 -0.0832
11521TIP3    H156054   0.267   0.478  14.579 -0.3968  3.3657 -1.8608
11521TIP3    H256055   0.411   0.441  14.607 -1.5911 -1.8716 -1.6300
11522TIP3   OH256056   1.762   5.028   2.599 -0.0481 -0.1195  0.1233
11522TIP3    H156057   1.854   5.036   2.575 -0.2211  1.2766 -0.1387
11522TIP3    H256058   1.717   5.091   2.543 -1.4663 -2.2802 -1.3280
11523TIP3   OH256059   4.579   6.153   2.165  0.2478  0.5206 -0.2550
11523TIP3    H156060   4.559   6.209   2.090 -1.6974  0.4848  0.1818
11523TIP3    H256061   4.668   6.123   2.149 -0.2148  0.2414 -2.7252
11524TIP3   OH256062   0.628   2.356  15.453 -0.0727  0.3995  0.0225
11524TIP3    H156063   0.641   2.267  15.488  1.2333  0.3745 -0.4675
11524TIP3    H256064   0.587   2.342  15.368 -1.3182  0.3593  0.6089
11525TIP3   OH256065   0.090   0.371   2.916 -0.4392  0.1529 -0.0464
11525TIP3    H156066   0.019   0.398   2.976 -1.2071 -0.1208 -0.8101
11525TIP3    H256067   0.068   0.414   2.834  1.2779  1.5207  0.1661
11526TIP3   OH256068   3.098   4.171   5.417  0.4779 -0.0102  0.3878
11526TIP3    H156069   3.093   4.128   5.331  1.2257 -0.0733  0.3723
11526TIP3    H256070   3.031   4.239   5.413  0.5539  0.0324 -0.2682
11527TIP3   OH256071   3.468   1.057   2.910 -0.1696 -0.4082  0.4492
11527TIP3    H156072   3.547   1.078   2.861 -0.6601  0.7343  0.1133
11527TIP3    H256073   3.486   1.089   2.999 -0.7681  1.2030  0.0307
11528TIP3   OH256074   0.786   4.441  10.738  0.1722  0.0095  0.1927
11528TIP3    H156075   0.762   4.525  10.777  0.7666 -0.6583  2.1132
11528TIP3    H256076   0.829   4.464  10.656 -0.0706  1.5539  0.4652
11529TIP3   OH256077   1.922   2.694  14.220  0.0000 -0.4156 -0.1661
11529TIP3    H156078   1.885   2.620  14.268 -0.6617  0.5434  0.8524
11529TIP3    H256079   1.868   2.702  14.141 -1.9638  0.8558  1.2123
11530TIP3   OH256080   0.217   6.460   0.953  0.0253 -0.0739 -0.3145
11530TIP3    H156081   0.176   6.545   0.968  0.4176  0.3536 -1.5641
11530TIP3    H256082   0.172   6.423   0.877 -0.6339 -1.3377  0.6343
11531TIP3   OH256083   3.771   6.101  14.533  0.3961 -0.0371  0.5460
11531TIP3    H156084   3.818   6.080  14.453  0.8489  2.4620  0.0701
11531TIP3    H256085   3.840   6.112  14.599  0.2978  1.0537  0.4821
11532TIP3   OH256086   0.811   0.664  14.714  0.1890  0.2624  0.5753
11532TIP3    H156087   0.855   0.661  14.630 -1.9298 -1.3940 -0.5779
11532TIP3    H256088   0.835   0.749  14.751  2.3032  0.4265 -1.0171
11533TIP3   OH256089   2.503   4.473  16.978  0.2298  0.4238 -0.0537
11533TIP3    H156090   2.554   4.412  17.031  0.2000  1.0321  0.6997
11533TIP3    H256091   2.452   4.418  16.919  0.6340 -0.2507  0.2210
11534TIP3   OH256092   2.806   4.508   0.661  0.5857  0.7513 -0.3798
11534TIP3    H156093   2.728   4.558   0.686 -1.1319 -0.3233 -3.1659
11534TIP3    H256094   2.785   4.417   0.684  0.7155  0.3586 -1.7370
11535TIP3   OH256095   2.883   6.000   0.771  0.0059 -0.4542 -0.2354
11535TIP3    H156096   2.916   5.912   0.791  0.2862 -0.1759  0.5730
11535TIP3    H256097   2.862   5.997   0.678  2.3373 -0.6552 -0.8340
11536TIP3   OH256098   1.126   2.092   4.411 -0.2769 -0.2783  0.1175
11536TIP3    H156099   1.141   2.154   4.340  0.5989 -0.3751  0.2149
11536TIP3    H256100   1.044   2.123   4.452 -0.8497 -0.2918 -0.9793
11537TIP3   OH256101   3.468   4.820   2.408  0.1177  0.4491  0.2949
11537TIP3    H156102   3.380   4.817   2.446 -0.6341 -0.2055 -1.3866
11537TIP3    H256103   3.487   4.729   2.385  0.3184  0.8813 -1.3323
11538TIP3   OH256104   0.372   0.485  10.734  0.0829  0.0834 -0.0877
11538TIP3    H156105   0.293   0.530  10.702  0.6778 -0.4078 -2.4449
11538TIP3    H256106   0.427   0.554  10.770 -1.1967  0.4915  1.1836
11539TIP3   OH256107   2.557   6.778  15.048  0.1039 -0.1673 -0.2627
11539TIP3    H156108   2.515   6.741  15.126  1.0981  0.4652  0.6045
11539TIP3    H256109   2.631   6.720  15.032  1.1148  0.8574  0.5375
11540TIP3   OH256110   4.238   6.575   5.743  0.3677 -0.5018 -0.4121
11540TIP3    H156111   4.165   6.512   5.740  0.6164 -0.7940 -0.3829
11540TIP3    H256112   4.311   6.528   5.703  1.1961 -1.0801  1.6450
11541TIP3   OH256113   2.594   2.132   3.429 -0.7207  0.0062  0.8978
11541TIP3    H156114   2.671   2.189   3.428 -0.0545 -0.8289 -0.8953
11541TIP3    H256115   2.519   2.192   3.430 -0.0695  1.0560 -2.3266
11542TIP3   OH256116   1.122   3.138  16.284 -0.2893  0.6221 -0.1090
11542TIP3    H156117   1.211   3.159  16.255 -0.3514  0.4423 -0.4341
11542TIP3    H256118   1.125   3.148  16.379 -0.0686  1.1696 -0.1673
11543TIP3   OH256119   0.372   2.068   5.826 -0.0215 -0.4472  0.0533
11543TIP3    H156120   0.369   2.098   5.917  0.2604  2.3564 -0.7713
11543TIP3    H256121   0.460   2.093   5.796 -0.4391 -0.4683 -1.2383
11544TIP3   OH256122   2.041   1.389  17.056  0.6240 -0.0471  0.0240
11544TIP3    H156123   1.947   1.376  17.073  1.0600 -0.1168  2.6839
11544TIP3    H256124   2.066   1.311  17.007 -0.7699  0.1999 -1.1780
11545TIP3   OH256125   3.972   4.320   5.354 -0.5213 -0.2184 -0.2098
11545TIP3    H156126   3.926   4.313   5.437 -0.7372 -0.7406 -0.3670
11545TIP3    H256127   4.008   4.408   5.353 -0.7871 -0.1043  0.2960
11546TIP3   OH256128   5.835   1.141  15.115 -0.5337  0.4129  0.2048
11546TIP3    H156129   5.914   1.169  15.160 -1.1362 -0.5066  1.9603
11546TIP3    H256130   5.778   1.218  15.117 -0.0070  0.8223 -0.3161
11547TIP3   OH256131   2.522   6.402  13.564  0.3391 -0.2064 -0.6208
11547TIP3    H156132   2.530   6.481  13.510  1.4911 -0.5941 -1.0527
11547TIP3    H256133   2.491   6.335  13.503  1.1638 -0.5285 -0.6888
11548TIP3   OH256134   3.599   5.510  15.389 -0.0284 -0.5048 -0.6465
11548TIP3    H156135   3.639   5.534  15.306  1.0669 -1.2285 -0.3421
11548TIP3    H256136   3.663   5.538  15.455 -0.8001 -0.1084 -0.0481
11549TIP3   OH256137   0.115   3.600  12.498 -0.0882  0.1846  0.1252
11549TIP3    H156138   0.172   3.676  12.500  0.5016 -0.1095 -2.2301
11549TIP3    H256139   0.039   3.628  12.447 -0.2409 -0.5593 -0.0778
11550TIP3   OH256140   6.008   1.447  10.209 -0.5366 -0.9599 -0.5630
11550TIP3    H156141   5.998   1.468  10.302  0.8283  1.7464 -0.9300
11550TIP3    H256142   6.034   1.530  10.169  0.3408 -2.3816 -3.1363
11551TIP3   OH256143   5.969   5.225   0.068 -0.2239  0.1947  0.0150
11551TIP3    H156144   6.033   5.218  -0.003  0.5216  0.2417  0.6671
11551TIP3    H256145   5.919   5.143   0.063  0.8972 -0.5499  0.4359
11552TIP3   OH256146   0.373   3.491  12.458 -0.2925  0.5676 -0.4993
11552TIP3    H156147   0.307   3.521  12.520 -0.2457  1.0459 -0.6753
11552TIP3    H256148   0.326   3.479  12.376 -0.4995 -0.7745 -0.1968
11553TIP3   OH256149   6.278   0.055  15.664  0.1740  0.0580 -0.6921
11553TIP3    H156150   6.300   0.059  15.757  0.1920 -0.7970 -0.6544
11553TIP3    H256151   6.329  -0.019  15.630 -1.7106 -1.2147 -0.8641
11554TIP3   OH256152   2.159   4.669   5.778  0.0610 -0.1321 -0.1973
11554TIP3    H156153   2.247   4.632   5.777 -0.2940 -1.0018 -0.3020
11554TIP3    H256154   2.163   4.738   5.844 -0.0134 -2.3196  2.2728
11555TIP3   OH256155   1.408   3.640   3.841 -0.5810 -0.0887  0.1653
11555TIP3    H156156   1.424   3.702   3.912 -1.7057  0.4462 -0.0241
11555TIP3    H256157   1.316   3.615   3.851 -0.7299 -0.0861 -1.0350
11556TIP3   OH256158   1.982   6.614  15.954 -0.5194  0.2034 -0.2040
11556TIP3    H156159   2.074   6.635  15.938 -0.0700 -1.6790 -0.3041
11556TIP3    H256160   1.972   6.624  16.049 -0.2985  0.6974 -0.2284
11557TIP3   OH256161   4.273   3.510   2.673  0.0064  0.0460  0.1775
11557TIP3    H156162   4.288   3.416   2.685 -0.0257  0.2338  1.9619
11557TIP3    H256163   4.181   3.516   2.647 -0.0250 -0.4139  0.1661
11558TIP3   OH256164   0.203   0.757   1.061  0.1232  1.0448  0.0835
11558TIP3    H156165   0.116   0.718   1.050  0.4442  1.0873 -4.6568
11558TIP3    H256166   0.190   0.850   1.043  1.1637  0.9572 -1.2904
11559TIP3   OH256167   5.874   1.323   5.984 -0.1610  0.3288  0.1772
11559TIP3    H156168   5.817   1.309   6.060 -0.1268  1.2031  0.3781
11559TIP3    H256169   5.881   1.419   5.977  1.3608  0.2488  0.2295
11560TIP3   OH256170   1.438   0.564   4.113  0.2695 -0.2455  0.0827
11560TIP3    H156171   1.375   0.526   4.174 -0.0859  0.3439  0.0836
11560TIP3    H256172   1.388   0.583   4.035  0.2642  0.9597  0.3636
11561TIP3   OH256173   4.726   6.692  16.364 -0.1547  0.1339  0.2370
11561TIP3    H156174   4.738   6.776  16.321  0.3878 -0.6893 -1.3014
11561TIP3    H256175   4.794   6.690  16.432 -1.3921  1.6854  1.5897
11562TIP3   OH256176   2.502   4.579   5.240  0.5304 -0.3751 -0.2191
11562TIP3    H156177   2.561   4.595   5.313  0.8089 -0.4792 -0.4186
11562TIP3    H256178   2.521   4.649   5.177  0.0872 -0.1175 -0.0651
11563TIP3   OH256179   4.375   4.759  12.788 -0.1210  0.1565  0.0470
11563TIP3    H156180   4.326   4.769  12.707 -0.9967 -0.7624  0.4381
11563TIP3    H256181   4.402   4.667  12.789 -2.7084 -0.7303  2.1426
11564TIP3   OH256182   2.909   6.566  16.239  0.2804 -0.4721  0.5226
11564TIP3    H156183   2.953   6.614  16.309  0.3745  2.2116 -1.2113
11564TIP3    H256184   2.816   6.584  16.252  0.2583 -0.3968  0.2653
11565TIP3   OH256185   5.551   0.988   3.982  0.2938 -0.3326 -0.6766
11565TIP3    H156186   5.464   0.986   3.942 -0.4571 -1.3654  0.9379
11565TIP3    H256187   5.579   1.080   3.974 -1.7655  0.4382  0.4923
11566TIP3   OH256188   1.229   5.387  16.384  0.0540 -0.1467 -0.2511
11566TIP3    H156189   1.274   5.303  16.392 -0.8774 -0.5521  1.3094
11566TIP3    H256190   1.226   5.421  16.474 -0.8121  0.8849 -0.6484
11567TIP3   OH256191   4.547   5.091   5.490  0.1671 -0.1320 -0.5082
11567TIP3    H156192   4.600   5.154   5.539 -0.4073  0.9322 -1.2042
11567TIP3    H256193   4.458   5.106   5.520 -0.0495 -0.2262 -1.0875
11568TIP3   OH256194   5.506   4.608   5.281 -0.1505  0.3531 -0.0085
11568TIP3    H156195   5.598   4.618   5.256 -0.3748  2.7546 -0.0526
11568TIP3    H256196   5.509   4.568   5.368  0.9752  1.0368  0.2909
11569TIP3   OH256197   0.690   5.580   1.942 -0.3075  0.0307  0.5984
11569TIP3    H156198   0.606   5.537   1.924  0.8808 -1.7381 -1.1150
11569TIP3    H256199   0.719   5.541   2.025 -0.6755 -0.1604  0.6413
11570TIP3   OH256200   5.573   3.267  13.191  0.6128 -0.1418 -0.0600
11570TIP3    H156201   5.530   3.350  13.174  0.6460  0.1261  1.0900
11570TIP3    H256202   5.630   3.253  13.115 -0.4281  0.1917 -0.9130
11571TIP3   OH256203   6.392   1.562  14.840 -0.0798  0.2943 -0.3030
11571TIP3    H156204   6.451   1.586  14.912  0.4240 -0.7459 -0.3548
11571TIP3    H256205   6.398   1.636  14.780 -0.3203  1.0679  0.5983
11572TIP3   OH256206   1.178   2.050  15.833  0.7546  0.1909 -0.2180
11572TIP3    H156207   1.174   1.998  15.913 -1.2521 -0.6066 -0.7761
11572TIP3    H256208   1.149   2.137  15.860  0.1274 -0.0635 -0.0526
11573TIP3   OH256209   0.573   4.438  14.376 -0.7346 -0.0260 -0.2229
11573TIP3    H156210   0.477   4.433  14.371 -0.6640 -2.5673 -0.2098
11573TIP3    H256211   0.604   4.356  14.337  1.4374  0.5580  0.1374
11574TIP3   OH256212   4.481   6.490  14.949 -0.4754 -0.2087  0.4901
11574TIP3    H156213   4.455   6.454  14.864 -0.0610 -0.6425  0.5426
11574TIP3    H256214   4.402   6.484  15.002 -0.2991 -1.4844  0.6368
11575TIP3   OH256215   6.825   0.768  14.808 -0.3962  0.4199 -0.9540
11575TIP3    H156216   6.794   0.678  14.820 -0.4740  0.4068 -1.2452
11575TIP3    H256217   6.794   0.815  14.885  1.1584 -0.1956  0.1034
11576TIP3   OH256218   3.035   4.653  13.953  0.1077 -0.1915 -0.1514
11576TIP3    H156219   3.064   4.737  13.991  0.7498 -1.1148  1.5130
11576TIP3    H256220   3.088   4.587  13.998  0.9156 -1.4118 -2.7423
11577TIP3   OH256221   0.098   6.540  16.202  0.3034  0.1313 -0.1584
11577TIP3    H156222   0.004   6.529  16.219  0.0867 -0.3522 -1.5607
11577TIP3    H256223   0.125   6.607  16.265 -0.6320 -0.8181  1.3458
11578TIP3   OH256224   3.300   5.448   5.060  0.3252  0.4057 -0.2667
11578TIP3    H156225   3.233   5.484   5.002 -0.4067  0.1207  0.3788
11578TIP3    H256226   3.297   5.354   5.045  1.5062  0.4989 -1.1865
11579TIP3   OH256227   3.244   0.985   5.914 -0.5250 -0.1642 -0.0445
11579TIP3    H156228   3.189   0.926   5.861  0.0462  0.6362 -1.5759
11579TIP3    H256229   3.329   0.942   5.916  0.0351  0.8121 -1.5973
11580TIP3   OH256230   3.675   4.248  14.731 -0.2985  0.0787 -0.4904
11580TIP3    H156231   3.707   4.337  14.718  0.2353  0.0554  0.5735
11580TIP3    H256232   3.693   4.229  14.823 -1.4307 -0.7164 -0.4074
11581TIP3   OH256233   6.821   4.419  15.512 -0.0949  0.5251  0.1474
11581TIP3    H156234   6.853   4.364  15.441  0.4566 -0.2007  0.9281
11581TIP3    H256235   6.850   4.507  15.490  1.9701 -0.0073  0.5083
11582TIP3   OH256236   2.009   4.053   0.625 -0.0970  0.4119 -0.1199
11582TIP3    H156237   2.024   3.973   0.675  0.2026  0.0650 -0.7577
11582TIP3    H256238   1.917   4.075   0.644  0.0263  0.3225  0.6207
11583TIP3   OH256239   5.013   4.984   0.973 -0.1242  0.0490 -0.0462
11583TIP3    H156240   5.024   4.901   0.926  0.5460  1.1230 -1.8923
11583TIP3    H256241   5.041   4.964   1.062  0.5863 -1.5838 -0.5873
11584TIP3   OH256242   1.190   5.065  15.542  0.4843  0.7347  0.3800
11584TIP3    H156243   1.146   4.984  15.517  1.7268  0.6051 -1.6553
11584TIP3    H256244   1.224   5.048  15.629  0.0062 -0.6324  0.3301
11585TIP3   OH256245   0.463   2.869   4.278  0.3173  0.0859  0.3074
11585TIP3    H156246   0.387   2.897   4.227 -0.6381 -2.0923  0.4273
11585TIP3    H256247   0.538   2.901   4.228 -0.6415  1.5034 -0.2935
11586TIP3   OH256248   0.299   4.844  13.431  0.4211 -0.4060 -0.2807
11586TIP3    H156249   0.222   4.811  13.477 -0.2090  0.7611 -0.4814
11586TIP3    H256250   0.363   4.863  13.500 -0.3733  0.9630  0.1052
11587TIP3   OH256251   5.366   0.255  11.511  0.1411 -0.0669 -0.8009
11587TIP3    H156252   5.278   0.276  11.540  0.4978  0.2945  0.0365
11587TIP3    H256253   5.419   0.253  11.591  0.9876  0.2127 -1.3336
11588TIP3   OH256254   3.670   0.369   5.719 -0.5952  0.6987  0.1224
11588TIP3    H156255   3.602   0.344   5.782  1.1738  0.3191  1.9996
11588TIP3    H256256   3.691   0.288   5.673 -0.9923  0.6865 -0.0404
11589TIP3   OH256257   4.804   5.634   1.534  0.4871 -0.0067 -0.0814
11589TIP3    H156258   4.799   5.667   1.624  0.3435 -1.0894  0.3136
11589TIP3    H256259   4.720   5.660   1.495  0.7945  1.0026 -0.1099
11590TIP3   OH256260   1.936   6.543   5.717 -0.0131  0.0842  0.1222
11590TIP3    H156261   2.027   6.529   5.693  0.1658 -0.4598  1.0687
11590TIP3    H256262   1.932   6.634   5.745 -0.0538  0.4900 -1.1512
11591TIP3   OH256263   4.171   5.129   4.098 -0.5728  0.2729  0.4163
11591TIP3    H156264   4.202   5.217   4.077 -1.3206  0.5713  0.5178
11591TIP3    H256265   4.250   5.075   4.099 -0.1046  0.9459  0.3746
11592TIP3   OH256266   6.357   0.323  13.493 -0.2040  0.3484  0.4115
11592TIP3    H156267   6.337   0.282  13.577  1.0494 -0.5818  0.2935
11592TIP3    H256268   6.359   0.251  13.430  0.5129  0.7945 -0.0985
11593TIP3   OH256269   4.266   3.567  11.840 -0.1050 -0.3731 -0.5754
11593TIP3    H156270   4.229   3.479  11.848  0.3015 -0.5971 -1.0972
11593TIP3    H256271   4.328   3.574  11.912  1.5576 -1.3823 -1.8201
11594TIP3   OH256272   4.839   6.709   2.972 -0.4834  0.4959 -0.2413
11594TIP3    H156273   4.769   6.665   2.924 -1.7465  2.9984 -0.8497
11594TIP3    H256274   4.806   6.718   3.061 -0.9878  1.7576 -0.5502
11595TIP3   OH256275   5.494   2.157  15.370 -0.2075  0.1922  0.2200
11595TIP3    H156276   5.568   2.178  15.427  0.6909 -1.0670 -0.4344
11595TIP3    H256277   5.534   2.119  15.292 -1.5341 -0.3958 -0.2065
11596TIP3   OH256278   1.901   3.821  10.487 -0.5238  0.6373 -0.2356
11596TIP3    H156279   1.874   3.733  10.514  1.0083  0.3764  0.5787
11596TIP3    H256280   1.977   3.841  10.542  1.0123  1.2426 -2.4193
11597TIP3   OH256281   4.256   4.565   1.011 -0.1267  0.1218 -0.1287
11597TIP3    H156282   4.219   4.609   1.087 -0.5240  0.8996 -0.7615
11597TIP3    H256283   4.343   4.538   1.039  0.2625  1.6146  0.1760
11598TIP3   OH256284   1.554   4.885   1.441 -1.0256  0.6005  0.0823
11598TIP3    H156285   1.496   4.868   1.516 -1.9139  0.6293 -0.5842
11598TIP3    H256286   1.642   4.874   1.477 -1.4493 -0.1521  0.9537
11599TIP3   OH256287   4.175   2.143   3.242 -0.2349  0.0384  0.4521
11599TIP3    H156288   4.085   2.125   3.213  0.6098 -0.0788 -2.3531
11599TIP3    H256289   4.216   2.056   3.246 -0.2141  0.0869  1.7899
11600TIP3   OH256290   1.565   5.792  15.614 -0.1697  0.4024 -0.1069
11600TIP3    H156291   1.548   5.801  15.520 -1.9375  4.2556  0.3757
11600TIP3    H256292   1.478   5.790  15.654  0.5217 -2.0488  1.5136
11601TIP3   OH256293   1.971   3.485  11.584 -0.1871  0.2506  0.1070
11601TIP3    H156294   1.937   3.443  11.505  1.9602  0.3248 -0.9010
11601TIP3    H256295   2.046   3.431  11.610  1.4255  2.2797 -0.0817
11602TIP3   OH256296   5.681   0.246  15.124 -0.3776 -0.9807  0.2152
11602TIP3    H156297   5.590   0.238  15.095 -0.8497 -0.5517  1.5214
11602TIP3    H256298   5.706   0.335  15.099 -0.9160 -0.4695  1.4500
11603TIP3   OH256299   2.200   6.755   0.327  0.4744 -0.2186 -0.0715
11603TIP3    H156300   2.269   6.746   0.392  1.7792 -1.8423 -1.5725
11603TIP3    H256301   2.234   6.710   0.249 -1.0881  1.4304 -1.8201
11604TIP3   OH256302   3.859   4.696  16.405 -0.5039  0.2580  0.0260
11604TIP3    H156303   3.793   4.668  16.341 -0.0043  0.3933 -0.5611
11604TIP3    H256304   3.816   4.686  16.490 -1.2587  0.2869 -0.3424
11605TIP3   OH256305   1.455   0.139  14.439 -0.4325 -0.1460  0.2432
11605TIP3    H156306   1.466   0.062  14.382 -0.4349 -0.9332  1.2751
11605TIP3    H256307   1.544   0.170  14.455 -0.3978 -0.2467  0.2452
11606TIP3   OH256308   3.747   5.201  14.823 -0.4898 -0.5625 -0.4163
11606TIP3    H156309   3.838   5.181  14.845 -0.3614  0.9750  0.6417
11606TIP3    H256310   3.749   5.293  14.796 -2.2235  0.8934  3.6348
11607TIP3   OH256311   2.903   2.767  11.683 -0.2233 -0.0259  0.2202
11607TIP3    H156312   2.814   2.790  11.706  0.9485  4.2307  1.3529
11607TIP3    H256313   2.917   2.806  11.597  0.8275  0.3408  0.5373
11608TIP3   OH256314   6.028   4.460   1.742 -0.2400 -0.5622 -0.2264
11608TIP3    H156315   5.955   4.400   1.727 -1.8690  1.4917 -0.9290
11608TIP3    H256316   6.042   4.503   1.658  1.2376 -0.2997  0.1198
11609TIP3   OH256317   5.119   1.244   4.596  0.3424 -0.0779  0.2440
11609TIP3    H156318   5.108   1.337   4.573  3.0957  0.3476  0.1900
11609TIP3    H256319   5.117   1.243   4.691  0.3912  0.0670  0.2476
11610TIP3   OH256320   2.524   0.505   2.794  0.5115 -0.7482 -0.4423
11610TIP3    H156321   2.469   0.432   2.824 -0.7403  0.7507  1.1110
11610TIP3    H256322   2.470   0.550   2.729  0.1076  0.4036  0.6721
11611TIP3   OH256323   1.287   4.898  13.684 -0.4037  0.5952  0.6118
11611TIP3    H156324   1.213   4.840  13.705  0.5287 -0.7555  0.3073
11611TIP3    H256325   1.348   4.885  13.756  0.0026  0.8928  0.3233
11612TIP3   OH256326   3.609   4.984   6.237  0.1762 -0.2168  0.7416
11612TIP3    H156327   3.602   4.904   6.289  0.7063 -0.6403  0.1758
11612TIP3    H256328   3.702   5.005   6.239 -0.2493  1.8263  2.9870
11613TIP3   OH256329   6.391   5.123  14.587 -0.3064  0.5518 -0.6153
11613TIP3    H156330   6.424   5.190  14.647  0.0225  1.0443 -1.3343
11613TIP3    H256331   6.363   5.171  14.509 -0.9809 -0.0500 -0.7628
11614TIP3   OH256332   4.169   5.648  14.563 -0.1302  0.2247  0.5015
11614TIP3    H156333   4.207   5.714  14.505  1.5671 -0.5653  0.6518
11614TIP3    H256334   4.120   5.698  14.627 -0.0029  1.2615 -0.1883
11615TIP3   OH256335   1.627   1.883   1.599  0.6716 -0.0873 -0.0464
11615TIP3    H156336   1.558   1.836   1.554  1.1514 -1.2704  0.4125
11615TIP3    H256337   1.678   1.925   1.529 -0.4335  0.7180 -0.3862
11616TIP3   OH256338   1.648   4.889   2.329 -0.4455 -0.3441  0.2828
11616TIP3    H156339   1.677   4.921   2.414 -1.5937  1.7526 -0.0399
11616TIP3    H256340   1.560   4.926   2.319 -0.1165 -0.0508 -2.0269
11617TIP3   OH256341   2.855   2.325   2.693 -1.1972 -0.4791 -0.0334
11617TIP3    H156342   2.805   2.369   2.762 -1.3529 -1.4003  0.4584
11617TIP3    H256343   2.827   2.367   2.612  0.1404  1.7285  0.5520
11618TIP3   OH256344   6.476   5.450  16.411 -0.0680 -0.2395 -0.3376
11618TIP3    H156345   6.527   5.530  16.423 -0.9796  0.2579  0.2983
11618TIP3    H256346   6.404   5.475  16.353  0.2247 -0.8670 -0.9966
11619TIP3   OH256347   4.254   0.244  15.429 -0.1724 -0.3423  0.0245
11619TIP3    H156348   4.290   0.169  15.476 -2.1534 -0.5710  1.3251
11619TIP3    H256349   4.304   0.319  15.462 -1.2256 -0.5517  2.3270
11620TIP3   OH256350   4.310   3.508  12.367 -0.3437  0.8296  0.0938
11620TIP3    H156351   4.245   3.538  12.430  0.4275  0.3662  1.1331
11620TIP3    H256352   4.377   3.465  12.420  0.9788  1.5776 -0.9170
11621TIP3   OH256353   4.861   1.136  13.644  0.3793  0.3482 -0.3115
11621TIP3    H156354   4.895   1.048  13.659  0.9462  0.7331  0.8563
11621TIP3    H256355   4.792   1.125  13.579  0.0220 -1.0501  0.2675
11622TIP3   OH256356   2.713   4.330  15.058 -0.6611  0.2382  0.3518
11622TIP3    H156357   2.705   4.312  14.964  2.0052  1.4958 -0.2164
11622TIP3    H256358   2.801   4.301  15.081 -1.2408 -0.0296  2.5113
11623TIP3   OH256359   1.405   2.698   2.696 -0.0426 -0.2957  0.2778
11623TIP3    H156360   1.335   2.743   2.744 -0.1240 -0.5131  0.3650
11623TIP3    H256361   1.381   2.709   2.604  1.0955  1.7559  0.1584
11624TIP3   OH256362   5.964   5.225  14.287  0.1558  0.5494 -0.1240
11624TIP3    H156363   5.987   5.144  14.331  0.7310  1.3767  1.1512
11624TIP3    H256364   5.886   5.256  14.333  1.5861  2.1573  1.3618
11625TIP3   OH256365   5.651   6.785   1.320  0.3222 -0.4240  0.4388
11625TIP3    H156366   5.648   6.693   1.297  0.6383  0.3949 -3.6508
11625TIP3    H256367   5.592   6.828   1.258  3.1984  2.4689 -0.6528
11626TIP3   OH256368   5.209   4.418  11.139 -0.2783 -0.5129  0.0024
11626TIP3    H156369   5.115   4.415  11.119  0.0228 -3.3560 -1.5971
11626TIP3    H256370   5.238   4.327  11.130  2.5309  0.1648  1.1366
11627TIP3   OH256371   6.432   1.346  12.104  0.0810 -0.7096 -0.0360
11627TIP3    H156372   6.395   1.345  12.016  1.7990  0.0506 -0.7885
11627TIP3    H256373   6.402   1.428  12.142 -0.0591 -0.6972 -0.1737
11628TIP3   OH256374   0.667   5.673  13.021 -0.1143 -0.1972  0.2000
11628TIP3    H156375   0.704   5.622  13.094  4.0291 -0.0788 -1.5447
11628TIP3    H256376   0.625   5.608  12.965 -1.2288 -0.5973  1.4327
11629TIP3   OH256377   6.349   6.600  12.737 -0.6462  0.2042 -0.4783
11629TIP3    H156378   6.357   6.506  12.756  2.3595  0.8700  2.5953
11629TIP3    H256379   6.289   6.633  12.803  0.3417  0.7766  0.1581
11630TIP3   OH256380   1.079   4.632  14.453 -0.0710 -0.1482 -0.0673
11630TIP3    H156381   1.138   4.589  14.515  0.3880  0.9106  0.2600
11630TIP3    H256382   1.108   4.724  14.453 -2.1502  0.5447  0.5944
11631TIP3   OH256383   5.139   1.287   0.818 -0.3632 -0.4148  0.4980
11631TIP3    H156384   5.049   1.263   0.838 -1.7609 -1.3681 -5.1761
11631TIP3    H256385   5.185   1.204   0.809 -0.0702 -0.1745 -0.4613
11632TIP3   OH256386   2.349   4.595  14.327  0.2820  0.4126 -0.2554
11632TIP3    H156387   2.320   4.608  14.417  0.7945  0.2923 -0.0661
11632TIP3    H256388   2.320   4.507  14.305 -1.1486  0.9707 -0.7338
11633TIP3   OH256389   5.309   0.052  15.676 -0.3971  0.1609 -0.0617
11633TIP3    H156390   5.308  -0.024  15.734  0.0690 -0.4247 -0.8092
11633TIP3    H256391   5.221   0.088  15.682 -0.2261  0.4076  1.3812
11634TIP3   OH256392   5.361   0.920  13.140 -0.1254 -0.0762 -0.2619
11634TIP3    H156393   5.432   0.923  13.204 -1.5322 -0.9964  1.4289
11634TIP3    H256394   5.387   0.983  13.073  2.1481 -0.1955  0.4142
11635TIP3   OH256395   4.974   3.550  16.171 -0.1400  0.6619 -0.1137
11635TIP3    H156396   5.016   3.573  16.254 -0.3681 -1.8451  0.7621
11635TIP3    H256397   4.982   3.630  16.118  1.9067  1.6490  1.5190
11636TIP3   OH256398   3.286   5.835   1.876  0.0756  0.2053  0.4299
11636TIP3    H156399   3.274   5.773   1.804 -0.0729  1.3088 -0.5055
11636TIP3    H256400   3.277   5.781   1.955  0.5099 -1.0761 -0.3556
11637TIP3   OH256401   3.282   1.175  11.962 -0.0948 -0.0573 -0.0421
11637TIP3    H156402   3.350   1.121  11.923  0.7820  1.4639 -0.7427
11637TIP3    H256403   3.317   1.201  12.047  0.0146  0.3261 -0.1975
11638TIP3   OH256404   3.034   0.888   7.132  0.6734  0.3956  0.2185
11638TIP3    H156405   3.014   0.814   7.075 -0.0601  1.0151 -0.3595
11638TIP3    H256406   3.066   0.849   7.213  1.3379 -0.5149 -0.4712
11639TIP3   OH256407   5.579   1.764  17.075 -0.0211 -0.2736  0.1670
11639TIP3    H156408   5.523   1.692  17.106 -0.5751  0.7168  1.6209
11639TIP3    H256409   5.600   1.742  16.985 -1.0052 -1.7560  0.2692
11640TIP3   OH256410   3.645   6.289  16.752 -0.1459  0.0495 -0.0646
11640TIP3    H156411   3.651   6.196  16.777 -0.3953 -0.5489 -2.0721
11640TIP3    H256412   3.590   6.328  16.820  2.2762 -0.5833  2.4671
11641TIP3   OH256413   0.104   6.270   1.642 -0.6098 -0.6247  0.0302
11641TIP3    H156414   0.047   6.293   1.569 -0.3570 -2.2586 -0.7197
11641TIP3    H256415   0.081   6.179   1.663  1.1772 -1.0708  0.1999
11642TIP3   OH256416   2.603   1.812   4.437  0.2114 -0.1436  0.0431
11642TIP3    H156417   2.561   1.758   4.504 -2.2412  1.6650  0.1169
11642TIP3    H256418   2.545   1.805   4.361  1.2177  0.3671 -0.8051
11643TIP3   OH256419   5.522   3.373  16.904 -0.0573 -0.1568 -0.3354
11643TIP3    H156420   5.603   3.357  16.855  0.5022 -0.5587  0.6839
11643TIP3    H256421   5.492   3.286  16.929  0.0507  0.0767  0.6322
11644TIP3   OH256422   6.019   1.828   5.048 -0.2443 -0.0595  0.2543
11644TIP3    H156423   5.936   1.801   5.086 -0.5430  2.7375  1.8681
11644TIP3    H256424   5.995   1.892   4.981  0.5380  1.3928  1.2889
11645TIP3   OH256425   5.243   0.186   1.627 -0.3805  0.0903  0.7216
11645TIP3    H156426   5.231   0.279   1.607 -3.3560 -0.0837  1.3112
11645TIP3    H256427   5.156   0.155   1.653  0.4344 -2.9575  0.2226
11646TIP3   OH256428   3.834   3.328   3.009  0.4124  0.3464  0.5122
11646TIP3    H156429   3.814   3.327   3.103 -0.2588  0.4396  0.3739
11646TIP3    H256430   3.860   3.237   2.989 -1.5920 -0.2211  0.3440
11647TIP3   OH256431   3.592   6.177   5.954 -0.1881  0.2913 -0.3079
11647TIP3    H156432   3.515   6.180   6.010 -0.9032  0.3595 -1.2650
11647TIP3    H256433   3.655   6.124   6.002 -0.9181  0.0397  0.3850
11648TIP3   OH256434   5.612   1.320  12.577  0.6843 -0.4238 -0.4925
11648TIP3    H156435   5.581   1.344  12.664  0.9409  2.3863 -1.0904
11648TIP3    H256436   5.685   1.260  12.593  2.4110  1.9925  1.3959
11649TIP3   OH256437   2.786   6.030   2.196 -0.9269  0.4251 -0.1355
11649TIP3    H156438   2.792   6.088   2.272 -0.7555  3.1342 -2.0718
11649TIP3    H256439   2.702   5.986   2.206 -0.6664  0.2866  1.8561
11650TIP3   OH256440   3.839   1.809   4.049  0.0767 -0.1873  0.0511
11650TIP3    H156441   3.865   1.806   4.141 -0.5773 -0.2207  0.2358
11650TIP3    H256442   3.921   1.797   4.001  0.6493  1.3644  0.6063
11651TIP3   OH256443   3.888   3.658   3.347  0.5306  0.1821  0.2090
11651TIP3    H156444   3.823   3.664   3.417  0.6153  0.6033  0.2495
11651TIP3    H256445   3.860   3.581   3.296  1.3921 -1.1404  1.6328
11652TIP3   OH256446   0.064   3.772  14.298 -0.2001 -0.2031  0.5026
11652TIP3    H156447   0.068   3.681  14.326 -0.3412 -0.2898  0.2465
11652TIP3    H256448   0.139   3.784  14.241 -0.6558 -0.3974 -0.1466
11653TIP3   OH256449   5.705   5.373  11.572 -0.5698  0.3814  0.3136
11653TIP3    H156450   5.613   5.373  11.547 -0.5496  0.6894  0.2389
11653TIP3    H256451   5.741   5.453  11.533  0.1230 -0.5652 -1.1341
11654TIP3   OH256452   4.749   0.239  12.905 -0.5549  0.0317  0.4030
11654TIP3    H156453   4.804   0.314  12.883 -1.1120 -0.2626 -2.4306
11654TIP3    H256454   4.677   0.244  12.842 -2.0882 -1.3663  1.9552
11655TIP3   OH256455   3.449   3.093   3.924 -0.7519  0.0957  0.2070
11655TIP3    H156456   3.541   3.116   3.907 -0.8329 -0.1885 -0.6507
11655TIP3    H256457   3.415   3.167   3.974  0.2034 -0.2211  1.3994
11656TIP3   OH256458   4.155   6.608  17.067 -0.0204  0.0968 -0.1488
11656TIP3    H156459   4.106   6.542  17.017 -0.0970 -1.1118  1.4272
11656TIP3    H256460   4.105   6.617  17.149  2.8925 -2.1084  2.1055
11657TIP3   OH256461   1.764   0.974   3.630  0.1899  0.7475  0.0014
11657TIP3    H156462   1.718   0.899   3.668 -0.6145  0.8334 -0.7694
11657TIP3    H256463   1.832   0.995   3.694 -1.5766  1.3804  1.8029
11658TIP3   OH256464   4.233   6.108   3.182 -0.2778 -0.0345  0.5153
11658TIP3    H156465   4.280   6.159   3.116  0.6269 -0.5504  0.7538
11658TIP3    H256466   4.285   6.029   3.194 -1.0660 -0.4986  0.9823
11659TIP3   OH256467   4.688   1.069   4.050 -0.3363 -0.4613  0.2572
11659TIP3    H156468   4.683   1.158   4.013  0.8806 -0.3726  0.2883
11659TIP3    H256469   4.624   1.019   3.999 -1.0343  0.4300  0.2406
11660TIP3   OH256470   5.665   5.339  12.818 -0.4727  0.3108  0.4197
11660TIP3    H156471   5.741   5.323  12.874 -0.3282 -0.8227 -0.0579
11660TIP3    H256472   5.700   5.340  12.729 -1.2653 -2.8451 -0.0581
11661TIP3   OH256473   1.701   6.364  16.226  0.0337  0.2085 -0.0608
11661TIP3    H156474   1.789   6.328  16.220  0.7292  1.7262  0.4226
11661TIP3    H256475   1.660   6.317  16.298  0.9334  0.4117  0.6003
11662TIP3   OH256476   4.946   0.291  12.637 -0.1600  0.6122 -0.6061
11662TIP3    H156477   4.942   0.196  12.636  0.3911  0.5882 -1.3151
11662TIP3    H256478   5.023   0.311  12.691 -1.6477  0.7389  1.5980
11663TIP3   OH256479   2.163   1.082  11.509 -0.6170 -0.8081  0.1480
11663TIP3    H156480   2.128   1.125  11.432 -0.6637 -0.6566  0.2542
11663TIP3    H256481   2.254   1.065  11.488  0.4052  2.3995  1.3671
11664TIP3   OH256482   4.035   0.333   3.185 -0.2751  0.5429 -0.5262
11664TIP3    H156483   4.009   0.241   3.193 -0.4314  0.6980  1.0775
11664TIP3    H256484   4.074   0.355   3.270  1.5605  1.4257 -1.5352
11665TIP3   OH256485   6.404   1.565   5.096 -0.7031 -0.1423 -0.1790
11665TIP3    H156486   6.421   1.472   5.083  0.2478  0.0695 -0.5353
11665TIP3    H256487   6.346   1.569   5.172  0.5119 -0.9485  0.8409
11666TIP3   OH256488   2.330   3.670  12.854  0.1320 -0.3243 -0.7146
11666TIP3    H156489   2.280   3.601  12.810 -1.3208  0.5064 -0.4205
11666TIP3    H256490   2.421   3.640  12.848 -0.1104 -0.8548 -3.1987
11667TIP3   OH256491   5.458   4.590   4.791 -0.1335 -0.2008 -0.3326
11667TIP3    H156492   5.399   4.534   4.740  0.1592 -0.0195 -0.8830
11667TIP3    H256493   5.499   4.530   4.854  0.1969 -0.6217 -0.9311
11668TIP3   OH256494   3.311   0.328  13.029 -1.0263 -0.4027 -0.6104
11668TIP3    H156495   3.400   0.358  13.013 -1.7098  1.2347 -1.6909
11668TIP3    H256496   3.264   0.407  13.057 -1.7592 -1.5818  1.8032
11669TIP3   OH256497   0.161   4.492  16.934 -0.1095 -0.5773 -0.1701
11669TIP3    H156498   0.129   4.579  16.959  2.4871  0.1060  1.1473
11669TIP3    H256499   0.159   4.492  16.838 -0.3040  0.8824 -0.1890
11670TIP3   OH256500   0.792   2.770  13.672 -0.1940  0.1672  0.1504
11670TIP3    H156501   0.787   2.784  13.578 -1.0119 -0.1735  0.1444
11670TIP3    H256502   0.711   2.726  13.695  1.4321 -2.9368  0.4878
11671TIP3   OH256503   2.019   5.970  15.565 -0.0862  0.6203  0.4698
11671TIP3    H156504   2.094   5.993  15.620 -1.1137  2.0883  1.3283
11671TIP3    H256505   2.055   5.963  15.477  1.6414 -1.9441  1.2688
11672TIP3   OH256506   3.581   0.567   4.125 -0.9231 -0.5863  0.0613
11672TIP3    H156507   3.628   0.591   4.045 -0.2524  1.8006  1.0936
11672TIP3    H256508   3.520   0.639   4.140 -0.5295 -0.6187  2.0731
11673TIP3   OH256509   6.553   3.957   0.652 -0.4462 -0.0103  0.4626
11673TIP3    H156510   6.571   3.969   0.559  0.1638 -0.3301  0.5305
11673TIP3    H256511   6.463   3.987   0.664 -0.0224  1.4881  0.0580
11674TIP3   OH256512   0.244   1.416   1.538 -0.5319 -0.0765  0.0406
11674TIP3    H156513   0.326   1.461   1.559  0.3394 -1.3341 -0.4964
11674TIP3    H256514   0.272   1.327   1.515 -1.8178  0.1026 -2.4256
11675TIP3   OH256515   4.841   3.807   5.683  0.2827 -0.0780 -0.1280
11675TIP3    H156516   4.803   3.892   5.660 -0.4309 -0.5506 -0.7419
11675TIP3    H256517   4.766   3.748   5.687  0.7581 -0.6536  0.4555
11676TIP3   OH256518   1.813   3.312   2.112  0.2162  0.1018 -0.1260
11676TIP3    H156519   1.749   3.313   2.041 -0.4434  1.7223  0.4403
11676TIP3    H256520   1.778   3.250   2.175 -0.7548  0.8516  0.1045
11677TIP3   OH256521   2.583   2.902  12.843  0.3598 -0.0169 -0.6586
11677TIP3    H156522   2.579   2.836  12.774 -0.4948 -1.0357  0.3196
11677TIP3    H256523   2.661   2.953  12.824  0.8014 -1.0413 -1.6944
11678TIP3   OH256524   6.114   5.615  13.949  0.1178  0.3533 -0.5066
11678TIP3    H156525   6.091   5.577  13.864 -1.6124 -0.4672  0.2638
11678TIP3    H256526   6.030   5.627  13.993  1.0152 -0.3554  1.5425
11679TIP3   OH256527   2.328   2.764   2.648  0.4058 -0.2840  0.4806
11679TIP3    H156528   2.335   2.859   2.638 -0.1921 -0.0370  2.0174
11679TIP3    H256529   2.243   2.751   2.690 -0.7597 -1.7450 -2.0960
11680TIP3   OH256530   6.426   0.092  12.041 -0.0686 -0.3446  0.2377
11680TIP3    H156531   6.491   0.040  12.090 -1.3203 -0.8561  1.4168
11680TIP3    H256532   6.418   0.047  11.957  1.2798 -0.1157 -0.0402
11681TIP3   OH256533   0.560   5.226   4.822 -0.4525  0.5371 -0.1004
11681TIP3    H156534   0.621   5.277   4.768 -0.5815  0.1029 -0.6611
11681TIP3    H256535   0.608   5.147   4.846 -0.5149  0.5696  0.1343
11682TIP3   OH256536   6.780   4.589   5.462 -0.4639  0.0464 -0.1017
11682TIP3    H156537   6.856   4.586   5.520 -0.7594  1.6110  0.4257
11682TIP3    H256538   6.718   4.528   5.501  0.3977 -1.0389 -0.3871
11683TIP3   OH256539   5.759   0.956   0.031 -0.6324  0.6026 -0.3197
11683TIP3    H156540   5.708   0.875   0.027 -1.8821  1.3504 -0.1824
11683TIP3    H256541   5.781   0.975  -0.061  0.2880 -0.2616 -0.2841
11684TIP3   OH256542   3.442   2.899   5.015 -0.4660  0.4260 -0.5593
11684TIP3    H156543   3.373   2.859   4.962 -0.6955 -0.3318  0.2831
11684TIP3    H256544   3.511   2.832   5.018 -0.5946  0.3298  0.3646
11685TIP3   OH256545   2.069   4.191  17.053 -0.0596 -0.2854  0.2132
11685TIP3    H156546   2.158   4.226  17.040 -0.8608  1.4817 -0.8901
11685TIP3    H256547   2.058   4.126  16.984  0.1271  0.0107 -0.0961
11686TIP3   OH256548   4.913   1.093   2.426 -0.2094  0.5171  0.6993
11686TIP3    H156549   4.852   1.020   2.421 -0.7898  1.0811 -1.3264
11686TIP3    H256550   4.998   1.055   2.402 -0.2099  0.2269  1.1371
11687TIP3   OH256551   5.290   3.118  17.091  0.0523 -0.0337 -0.1665
11687TIP3    H156552   5.219   3.059  17.066  0.4202 -0.4985 -0.1276
11687TIP3    H256553   5.349   3.063  17.143  0.7394  0.1886 -0.6913
11688TIP3   OH256554   5.963   0.119   2.942 -0.1316  0.5180  0.6877
11688TIP3    H156555   5.890   0.148   2.888  0.8067 -0.0322 -0.9252
11688TIP3    H256556   5.971   0.025   2.925 -1.6723 -0.4072  4.0891
11689TIP3   OH256557   6.310   0.986  17.216 -1.1204 -0.1087 -0.1160
11689TIP3    H156558   6.290   0.933  17.138 -1.0642  0.1619 -0.3181
11689TIP3    H256559   6.394   1.027  17.196 -0.0871 -1.6285  0.9409
11690TIP3   OH256560   0.039   5.610   3.433 -0.1480 -0.1436 -0.2510
11690TIP3    H156561  -0.021   5.647   3.498  0.0389 -1.2644  0.5870
11690TIP3    H256562   0.072   5.686   3.385 -1.0612  0.6175  0.3000
11691TIP3   OH256563   0.768   5.188   5.094 -0.5193  0.2471  0.7121
11691TIP3    H156564   0.672   5.194   5.096 -0.5240  0.0388  1.6715
11691TIP3    H256565   0.787   5.136   5.016 -1.1122  1.3764 -0.2174
11692TIP3   OH256566   4.677   5.323  14.327 -0.4392  0.3442  0.5036
11692TIP3    H156567   4.729   5.389  14.372  0.0380 -0.0126  0.4869
11692TIP3    H256568   4.742   5.267  14.283 -0.8231 -0.2673  0.7036
11693TIP3   OH256569   6.767   3.717  12.326  0.1759  0.6605  0.2926
11693TIP3    H156570   6.711   3.704  12.249  0.9705  0.2252 -0.2284
11693TIP3    H256571   6.776   3.811  12.334  0.5738  0.7007 -0.5231
11694TIP3   OH256572   3.483   1.082   0.584  0.4379 -0.0542 -0.1026
11694TIP3    H156573   3.517   1.002   0.544 -0.0016  0.8334 -2.4125
11694TIP3    H256574   3.561   1.131   0.611  0.7680 -0.5028 -0.2456
11695TIP3   OH256575   3.916   5.588   1.249 -0.6174 -0.1295  0.2372
11695TIP3    H156576   3.946   5.499   1.269  1.0040  0.3288  0.0635
11695TIP3    H256577   3.877   5.619   1.330  1.7591  0.1025  1.3724
11696TIP3   OH256578   1.017   1.731   0.975  0.3315  0.3974  0.2873
11696TIP3    H156579   1.007   1.817   1.015  0.0612 -0.5694  2.4561
11696TIP3    H256580   1.019   1.670   1.049 -0.6217 -1.5830 -1.2173
11697TIP3   OH256581   1.831   3.602   0.814  0.5822 -0.4135  0.3628
11697TIP3    H156582   1.836   3.555   0.897  0.5426 -1.8796 -0.4287
11697TIP3    H256583   1.773   3.676   0.832  2.6449  0.8339  2.3107
11698TIP3   OH256584   1.796   0.252   2.915  0.0292 -0.0938  0.0077
11698TIP3    H156585   1.849   0.328   2.937  1.8233 -0.6559 -2.0627
11698TIP3    H256586   1.849   0.177   2.942 -0.6971 -0.6538 -0.0692
11699TIP3   OH256587   0.427   6.380   4.259  0.3822  0.3053  0.0880
11699TIP3    H156588   0.388   6.293   4.248  0.9155  0.2133 -1.3842
11699TIP3    H256589   0.395   6.411   4.343 -1.9175 -0.2314 -0.5233
11700TIP3   OH256590   1.380   1.121  12.316 -0.0267  0.1089  0.3360
11700TIP3    H156591   1.397   1.215  12.328  0.4205 -0.0833  1.2890
11700TIP3    H256592   1.295   1.118  12.273 -0.2248  0.9481  0.6407
11701TIP3   OH256593   4.260   3.347  12.770  0.1090 -0.2369 -0.0210
11701TIP3    H156594   4.217   3.368  12.687  0.5203 -1.4387 -0.5611
11701TIP3    H256595   4.345   3.312  12.745  2.0892  3.3276  1.0569
11702TIP3   OH256596   2.064   6.186   3.033  0.2426 -0.6355  0.1876
11702TIP3    H156597   2.080   6.259   2.974 -2.0608 -1.5420 -1.7630
11702TIP3    H256598   2.114   6.113   2.995 -1.8700 -1.4313 -1.3047
11703TIP3   OH256599   4.480   1.435   5.089  0.2396  0.5788  0.5517
11703TIP3    H156600   4.389   1.462   5.074  0.4514  0.7171 -0.5292
11703TIP3    H256601   4.472   1.355   5.141 -0.5282  0.2925  0.0224
11704TIP3   OH256602   5.212   2.083  17.092  0.5743  0.0287  0.1816
11704TIP3    H156603   5.249   2.118  17.174  2.5379  0.1014 -0.6875
11704TIP3    H256604   5.245   1.994  17.087 -0.2247 -0.2557 -0.1334
11705TIP3   OH256605   5.545   3.848  12.964  0.0783  0.1985 -0.0883
11705TIP3    H156606   5.613   3.904  12.928 -0.0249 -0.5049 -1.4656
11705TIP3    H256607   5.537   3.777  12.900 -0.9192 -0.5037  0.7909
11706TIP3   OH256608   1.063   5.672  13.565 -0.1573  0.6312 -0.3592
11706TIP3    H156609   1.144   5.658  13.614  0.5837  2.9193 -0.8370
11706TIP3    H256610   1.017   5.740  13.614 -1.5471 -0.2136 -0.4276
11707TIP3   OH256611   2.093   2.054  15.799 -0.4961 -0.2767  0.8045
11707TIP3    H156612   2.008   2.031  15.837 -0.1926  0.0697  1.7285
11707TIP3    H256613   2.130   2.118  15.860  0.5258 -0.5853  0.5312
11708TIP3   OH256614   3.363   3.623  13.770  0.3502  0.0436  0.3350
11708TIP3    H156615   3.418   3.606  13.693 -0.6462 -1.2198 -0.1336
11708TIP3    H256616   3.423   3.618  13.844  1.2350  0.7762 -0.3092
11709TIP3   OH256617   2.880   2.934   4.824 -0.1508  0.4812  0.3808
11709TIP3    H156618   2.893   3.028   4.815  2.3756  0.3327  1.5780
11709TIP3    H256619   2.840   2.923   4.911 -1.3946  0.4716 -0.1721
11710TIP3   OH256620   1.197   4.494  15.768 -0.4371 -0.3190  0.1209
11710TIP3    H156621   1.233   4.486  15.680  3.1406  1.4546  1.2213
11710TIP3    H256622   1.103   4.477  15.758 -0.4179  1.0314 -4.1987
11711TIP3   OH256623   3.964   5.468   1.674  0.4708  0.4684 -0.5243
11711TIP3    H156624   4.036   5.525   1.646  0.0838  0.7839 -0.9117
11711TIP3    H256625   3.969   5.392   1.616 -1.2390  1.7901 -2.6084
11712TIP3   OH256626   3.797   5.097  12.658  0.4267 -0.2212 -0.0881
11712TIP3    H156627   3.791   5.067  12.567 -0.2900 -0.2742 -0.0346
11712TIP3    H256628   3.770   5.021  12.710 -0.6107  0.2417  0.0837
11713TIP3   OH256629   0.728   1.163  15.142  0.2151  0.7614 -0.2493
11713TIP3    H156630   0.687   1.139  15.225  0.1391  0.5804 -0.3400
11713TIP3    H256631   0.674   1.234  15.108  0.6006  1.2661  0.1550
11714TIP3   OH256632   3.564   4.815  15.150  0.4691  0.1236  0.3032
11714TIP3    H156633   3.546   4.895  15.199 -2.4208 -0.5580  0.5876
11714TIP3    H256634   3.613   4.760  15.211  2.7535  1.6770  0.0039
11715TIP3   OH256635   4.588   4.156   4.290  0.3525  0.1566  0.2112
11715TIP3    H156636   4.544   4.169   4.206 -1.4335 -1.9153  0.7204
11715TIP3    H256637   4.669   4.111   4.267 -0.1505 -0.4495 -0.4293
11716TIP3   OH256638   5.246   1.019  11.804 -0.3146  0.8115  0.5748
11716TIP3    H156639   5.264   0.928  11.780 -0.2908  0.9861 -0.0938
11716TIP3    H256640   5.328   1.051  11.841  0.1510  1.0037 -0.5896
11717TIP3   OH256641   4.161   5.560  13.315  0.1272 -0.6641 -0.1193
11717TIP3    H156642   4.255   5.544  13.317  0.4575  0.7403 -2.0013
11717TIP3    H256643   4.145   5.603  13.231 -1.8165  1.3630  1.1711
11718TIP3   OH256644   3.175   6.817   1.009 -0.3576 -0.0881  0.1427
11718TIP3    H156645   3.112   6.779   1.070  0.7941 -1.6927  0.3941
11718TIP3    H256646   3.259   6.781   1.037  0.2147 -0.8633 -2.4012
11719TIP3   OH256647   6.820   3.650   1.476  0.0429  0.0053  0.3063
11719TIP3    H156648   6.797   3.565   1.439 -3.3954  1.0029 -0.1893
11719TIP3    H256649   6.883   3.630   1.546 -3.3649 -3.4936  2.8081
11720TIP3   OH256650   0.707   0.526  16.677 -0.4774  0.2839  0.4093
11720TIP3    H156651   0.741   0.455  16.731  2.0780 -0.3222 -1.7621
11720TIP3    H256652   0.778   0.590  16.674 -1.9877  2.0530  0.7167
11721TIP3   OH256653   6.534   3.613   4.328 -0.1946 -0.1488  0.1567
11721TIP3    H156654   6.586   3.634   4.405  1.3415 -0.6295 -0.7191
11721TIP3    H256655   6.490   3.695   4.305  0.4347  0.3493  0.7204
11722TIP3   OH256656   3.190   0.557   3.208  0.1904  0.5335 -0.2026
11722TIP3    H156657   3.096   0.577   3.205  0.2316  0.7268 -0.2228
11722TIP3    H256658   3.232   0.642   3.221  0.2857  0.3077  1.1073
11723TIP3   OH256659   5.724   4.286  12.001 -0.3838  0.2025 -0.0900
11723TIP3    H156660   5.728   4.369  12.048 -1.0582  0.1277  0.1062
11723TIP3    H256661   5.686   4.225  12.063 -0.6248 -0.0627 -0.4922
11724TIP3   OH256662   6.293   4.061   3.504  0.4177  0.0678  0.3978
11724TIP3    H156663   6.282   4.079   3.411  0.6143 -0.3434  0.2972
11724TIP3    H256664   6.357   4.125   3.534 -2.0228  2.4614  0.9690
11725TIP3   OH256665   4.523   0.830  12.033  0.3969 -0.0254  0.3173
11725TIP3    H156666   4.491   0.899  11.975 -1.2497  0.2134  1.4522
11725TIP3    H256667   4.564   0.767  11.974  0.1144  0.9222 -0.9458
11726TIP3   OH256668   4.929   4.675   2.967  0.6094  0.0746 -0.0373
11726TIP3    H156669   4.942   4.731   3.043  0.5160 -2.1277  1.6773
11726TIP3    H256670   4.979   4.596   2.985 -2.1543 -1.9766 -0.5804
11727TIP3   OH256671   4.297   2.384   3.817 -0.1396  0.2735 -0.4764
11727TIP3    H156672   4.349   2.306   3.798  1.7116  1.0049  1.2563
11727TIP3    H256673   4.212   2.350   3.845  0.5595 -1.1220  0.0403
11728TIP3   OH256674   5.655   2.796   3.396  0.3941 -0.7073  0.0053
11728TIP3    H156675   5.744   2.761   3.405  0.4300 -1.1104 -1.5974
11728TIP3    H256676   5.659   2.853   3.319  0.0275  1.9519  1.8367
11729TIP3   OH256677   3.038   4.928  16.902  0.1185 -0.4419  0.0215
11729TIP3    H156678   3.026   4.882  16.818  1.1894 -2.0354  0.6918
11729TIP3    H256679   2.967   4.991  16.905 -0.0733 -0.5036 -1.9934
11730TIP3   OH256680   1.949   1.741   3.264  0.8018  0.1857  0.0069
11730TIP3    H156681   1.881   1.760   3.329  0.8884  2.1404 -0.4115
11730TIP3    H256682   1.949   1.646   3.256  0.1570 -0.0592  2.1849
11731TIP3   OH256683   1.494   4.286   5.592  0.3484 -0.1136 -0.1228
11731TIP3    H156684   1.546   4.364   5.574  1.1351 -0.3592  0.9549
11731TIP3    H256685   1.424   4.316   5.649  0.9961 -0.2822  0.7805
11732TIP3   OH256686   4.320   6.268   4.378 -0.3316 -0.3303  0.1681
11732TIP3    H156687   4.393   6.209   4.363  1.2445  1.6077 -0.1567
11732TIP3    H256688   4.283   6.240   4.462 -1.8822 -3.8794 -1.4995
11733TIP3   OH256689   1.580   6.537  17.161  0.6893  0.5240 -0.0778
11733TIP3    H156690   1.538   6.537  17.247 -1.3987  1.4616 -1.0326
11733TIP3    H256691   1.534   6.469  17.112  2.3376 -0.4882 -0.2790
11734TIP3   OH256692   6.621   1.607  11.067  0.2527 -0.7453 -0.6468
11734TIP3    H156693   6.554   1.615  11.134 -1.3539  2.5412 -2.4076
11734TIP3    H256694   6.594   1.531  11.014 -1.1793 -0.4475 -0.3800
11735TIP3   OH256695   2.790   0.768  14.251 -0.3468  0.2006 -0.1701
11735TIP3    H156696   2.717   0.709  14.229 -0.3757 -0.3946  1.3923
11735TIP3    H256697   2.783   0.780  14.346  1.4028  0.3912 -0.0405
11736TIP3   OH256698   1.422   2.351   3.208 -0.5457  0.2764 -1.0181
11736TIP3    H156699   1.457   2.302   3.283 -0.4651 -0.0268 -1.2550
11736TIP3    H256700   1.329   2.328   3.206 -0.6754  0.7400 -0.6586
11737TIP3   OH256701   1.446   4.940  12.082  0.0795 -1.1331 -0.3260
11737TIP3    H156702   1.368   4.991  12.103  0.9413  0.5312 -0.9924
11737TIP3    H256703   1.418   4.884  12.009 -0.7697 -1.3418  0.1418
11738TIP3   OH256704   2.722   4.597   4.821  0.2132  0.2876 -0.0595
11738TIP3    H156705   2.660   4.670   4.829  0.4683  0.4366  0.6833
11738TIP3    H256706   2.725   4.559   4.909 -0.3635 -1.0008 -0.5670
11739TIP3   OH256707   0.634   4.393  16.701 -0.0450 -0.0056  0.2822
11739TIP3    H156708   0.555   4.384  16.647 -0.3511  0.0494  0.7110
11739TIP3    H256709   0.607   4.452  16.772  0.8235  1.2601 -0.4023
11740TIP3   OH256710   5.231   5.807  11.672 -0.2917 -0.3786 -0.3360
11740TIP3    H156711   5.171   5.879  11.690  0.1248 -0.6112  2.4037
11740TIP3    H256712   5.298   5.846  11.615 -0.2867  1.3302  0.7610
11741TIP3   OH256713   0.588   4.288   5.046  0.7559 -0.0738 -0.3949
11741TIP3    H156714   0.591   4.382   5.029  0.1509  0.0995  0.4178
11741TIP3    H256715   0.678   4.265   5.073  0.3147  0.8176  2.1017
11742TIP3   OH256716   2.522   3.846   5.514  0.3253 -0.1286  0.5241
11742TIP3    H156717   2.521   3.751   5.526 -0.5582 -0.4344 -1.6271
11742TIP3    H256718   2.605   3.864   5.471 -0.4359 -0.2539 -1.0695
11743TIP3   OH256719   5.858   4.453  15.454  0.1094  0.2708 -0.2284
11743TIP3    H156720   5.887   4.509  15.525 -0.9238  2.2298 -1.2794
11743TIP3    H256721   5.937   4.438  15.401  0.1791  1.8184 -0.6170
11744TIP3   OH256722   5.406   2.889   2.994 -0.1771  0.3312 -0.5731
11744TIP3    H156723   5.412   2.943   2.916 -0.8222 -0.4490 -1.1864
11744TIP3    H256724   5.478   2.827   2.985 -0.7556 -0.2980 -0.9947
11745TIP3   OH256725   6.428   4.244  17.121  0.0532  0.1948 -0.0800
11745TIP3    H156726   6.395   4.288  17.042  0.2612 -0.3135 -0.4552
11745TIP3    H256727   6.479   4.171  17.088  0.0968 -0.0579  0.5353
11746TIP3   OH256728   6.130   6.030   1.852  0.5177  0.2329  0.0950
11746TIP3    H156729   6.195   6.100   1.839  3.1597 -2.1031 -0.1170
11746TIP3    H256730   6.123   5.989   1.766 -1.0608  0.2190  0.2065
11747TIP3   OH256731   2.156   1.396  15.495  0.2783 -0.4319 -0.6908
11747TIP3    H156732   2.241   1.399  15.539  0.7925 -2.1026 -1.4822
11747TIP3    H256733   2.175   1.355  15.410 -0.9149  1.3706 -1.9124
11748TIP3   OH256734   2.880   3.471   4.826 -0.6773 -0.4429 -0.2194
11748TIP3    H156735   2.796   3.497   4.865 -0.6422 -1.0154  0.2551
11748TIP3    H256736   2.862   3.464   4.733 -1.4251 -1.5582 -0.0043
11749TIP3   OH256737   5.837   6.537   4.198  0.0120  0.1009  0.3836
11749TIP3    H156738   5.828   6.578   4.284  0.5724 -1.9170  1.4710
11749TIP3    H256739   5.903   6.590   4.153 -0.4281  1.2939  1.0791
11750TIP3   OH256740   0.780   3.845   1.059 -0.1520 -1.1757  0.5339
11750TIP3    H156741   0.757   3.937   1.046  0.1388 -0.9638  1.4447
11750TIP3    H256742   0.705   3.808   1.105 -0.3770 -1.4697 -0.0485
11751TIP3   OH256743   5.014   4.865  12.284 -0.1032 -0.1937 -0.1134
11751TIP3    H156744   4.959   4.811  12.340  0.2091 -1.1262 -0.6801
11751TIP3    H256745   4.954   4.905  12.221 -0.1389 -1.3895 -0.8763
11752TIP3   OH256746   2.031   1.978   2.385 -0.7545 -0.6150 -0.3490
11752TIP3    H156747   1.951   1.925   2.394 -1.5193  0.3389 -1.2854
11752TIP3    H256748   2.025   2.015   2.297 -2.3373  4.2709  1.5127
11753TIP3   OH256749   6.620   6.448  17.141 -0.1749 -0.7821 -0.7188
11753TIP3    H156750   6.616   6.514  17.210 -0.2215 -0.1113 -1.3468
11753TIP3    H256751   6.536   6.455  17.096 -0.2265 -1.3549 -0.7171
11754TIP3   OH256752   1.576   2.582   6.022  0.0896 -0.5691 -0.4930
11754TIP3    H156753   1.568   2.677   6.012 -1.1946 -0.3865  1.6214
11754TIP3    H256754   1.664   2.562   5.991  1.2862  1.6917  1.1410
11755TIP3   OH256755   2.078   6.196   0.829  0.2605  0.5345 -1.4528
11755TIP3    H156756   1.990   6.211   0.865  0.4103  1.0932 -1.3074
11755TIP3    H256757   2.077   6.240   0.745  0.6706  1.2772 -1.0753
11756TIP3   OH256758   2.429   0.407  14.204 -0.1422 -0.2329 -0.5120
11756TIP3    H156759   2.440   0.361  14.120  1.3307 -0.1745 -0.3715
11756TIP3    H256760   2.384   0.344  14.260 -0.0813 -0.6978 -0.9801
11757TIP3   OH256761   4.205   6.785  16.877 -0.2649  0.2208  0.2800
11757TIP3    H156762   4.183   6.861  16.932 -1.7772 -0.2172  0.3414
11757TIP3    H256763   4.196   6.710  16.935  2.6981  0.0140  0.6322
11758TIP3   OH256764   2.245   4.979   1.091  0.3039  1.1286 -0.1798
11758TIP3    H156765   2.211   4.997   1.179  1.0499  1.3607  0.0683
11758TIP3    H256766   2.204   5.045   1.035 -1.8625 -0.3230 -0.4292
11759TIP3   OH256767   0.163   1.545  16.180 -0.0300 -0.0024  0.9204
11759TIP3    H156768   0.153   1.562  16.274  0.8746 -0.6353  1.1398
11759TIP3    H256769   0.192   1.455  16.175 -0.7811 -0.2061 -0.0252
11760TIP3   OH256770   6.081   1.879   0.610 -0.5473  0.1687  0.1873
11760TIP3    H156771   6.004   1.834   0.644 -0.6203  0.7896  0.8602
11760TIP3    H256772   6.146   1.810   0.597 -0.2923 -0.0244  2.1849
11761TIP3   OH256773   2.763   6.667  14.234  0.0074 -0.1302 -0.5445
11761TIP3    H156774   2.842   6.703  14.274 -0.9607 -0.9850  2.3972
11761TIP3    H256775   2.691   6.705  14.284 -1.2429 -2.2782 -0.5844
11762TIP3   OH256776   1.936   3.668  15.892 -0.7918  0.1393  0.2143
11762TIP3    H156777   1.944   3.575  15.871 -2.6162 -0.2527  1.0096
11762TIP3    H256778   1.900   3.708  15.813  2.2842  0.7074 -1.0331
11763TIP3   OH256779   5.979   1.125   1.269 -0.2328  0.4176  0.1949
11763TIP3    H156780   5.986   1.031   1.258  1.7452  0.6070 -0.6447
11763TIP3    H256781   5.897   1.138   1.316  0.8887 -1.9279  3.1263
11764TIP3   OH256782   4.733   1.774   3.076  0.3729 -0.2282 -0.1549
11764TIP3    H156783   4.728   1.831   3.153  0.9920 -1.7748  1.0884
11764TIP3    H256784   4.766   1.691   3.110  0.8389 -0.9089 -2.1394
11765TIP3   OH256785   6.682   1.437   5.819  0.1179 -0.3103 -0.5291
11765TIP3    H156786   6.683   1.530   5.798  2.3742 -0.2318 -0.2929
11765TIP3    H256787   6.675   1.435   5.915 -0.0804 -0.4011 -0.5446
11766TIP3   OH256788   0.331   0.705   4.663 -0.2896  0.2635 -0.0558
11766TIP3    H156789   0.281   0.696   4.745 -0.3140  1.5150  0.0793
11766TIP3    H256790   0.411   0.655   4.678 -1.6155 -2.0950 -0.4049
11767TIP3   OH256791   4.289   5.230   5.528 -0.0286 -0.1720 -0.4535
11767TIP3    H156792   4.260   5.247   5.618  0.8610 -1.0805  0.0301
11767TIP3    H256793   4.208   5.214   5.480 -0.6606  2.2449 -0.2842
11768TIP3   OH256794   1.678   3.549  13.604 -0.2056  0.0870  0.0526
11768TIP3    H156795   1.680   3.465  13.557 -0.3605  1.0281 -1.7343
11768TIP3    H256796   1.740   3.604  13.556 -0.0570  0.9812  1.2396
11769TIP3   OH256797   4.790   0.206  13.195  0.2467  0.2021  0.5327
11769TIP3    H156798   4.850   0.228  13.123  1.8655 -2.4510  0.9434
11769TIP3    H256799   4.704   0.206  13.155  1.0404 -0.5913 -1.2916
11770TIP3   OH256800   6.311   1.755   0.916  0.0129 -0.0718 -0.1402
11770TIP3    H156801   6.358   1.822   0.866  0.1724 -0.6745 -0.8131
11770TIP3    H256802   6.305   1.791   1.004  2.1684 -0.1988  0.1041
11771TIP3   OH256803   3.463   2.742  15.229 -0.4803  0.7639  0.2326
11771TIP3    H156804   3.400   2.672  15.215 -2.2790  2.0521  1.4432
11771TIP3    H256805   3.499   2.725  15.316 -0.5745  1.0574  0.3328
11772TIP3   OH256806   1.158   3.534   4.267 -0.0413  0.5838 -0.5182
11772TIP3    H156807   1.089   3.471   4.290  1.8300 -1.0270  1.0380
11772TIP3    H256808   1.112   3.618   4.260 -2.1463 -0.3984  0.5115
11773TIP3   OH256809   2.091   2.887   0.074  0.2459 -0.0491  0.0711
11773TIP3    H156810   2.142   2.878   0.154 -0.9278 -0.7057  0.7704
11773TIP3    H256811   2.051   2.801   0.061 -1.2478  0.6251 -0.0457
11774TIP3   OH256812   1.863   5.116  14.297  0.2086  0.1126  0.2372
11774TIP3    H156813   1.812   5.123  14.378  0.7648  1.1202  0.5196
11774TIP3    H256814   1.798   5.100  14.229 -0.0886 -3.1118  1.1337
11775TIP3   OH256815   6.811   3.170   5.518  0.4544  0.1351 -0.0435
11775TIP3    H156816   6.720   3.170   5.547  0.7512 -1.3779  1.0186
11775TIP3    H256817   6.826   3.259   5.486 -0.7844  1.0542  1.7613
11776TIP3   OH256818   1.321   5.356   6.376 -0.7389 -0.0902  0.3014
11776TIP3    H156819   1.339   5.262   6.386  0.2133  0.1474  0.9223
11776TIP3    H256820   1.394   5.389   6.325 -1.8464  0.0714 -1.2833
11777TIP3   OH256821   4.843   2.805   3.613  0.1416  0.5883  0.0276
11777TIP3    H156822   4.913   2.744   3.638  0.7809  1.2621 -0.0879
11777TIP3    H256823   4.828   2.787   3.520  0.3876  0.6612 -0.0274
11778TIP3   OH256824   2.932   1.275   3.648  0.3406  0.3319 -0.1439
11778TIP3    H156825   2.911   1.362   3.616 -0.5287 -0.0095 -0.5115
11778TIP3    H256826   2.873   1.261   3.722 -0.0310 -0.2353 -0.5481
11779TIP3   OH256827   6.721   0.199   0.425 -0.1363 -0.2612  0.0164
11779TIP3    H156828   6.780   0.268   0.396  2.8034 -1.8624  1.6842
11779TIP3    H256829   6.692   0.226   0.511 -0.6274 -0.1870 -0.1690
11780TIP3   OH256830   6.117   3.928  13.217  0.0421  0.0710 -0.7941
11780TIP3    H156831   6.114   3.839  13.182  1.0520 -0.2256 -0.1814
11780TIP3    H256832   6.061   3.925  13.294 -1.7629  0.5890 -2.0250
11781TIP3   OH256833   3.089   4.186  15.851  0.3819 -0.1208  0.1908
11781TIP3    H156834   3.072   4.280  15.845 -1.2513 -0.3293  0.8932
11781TIP3    H256835   3.183   4.178  15.837  0.3606  1.4660 -1.3562
11782TIP3   OH256836   1.484   4.681   1.191 -0.1352 -0.1110  0.1289
11782TIP3    H156837   1.442   4.671   1.105 -2.1291  1.3191  0.8625
11782TIP3    H256838   1.515   4.772   1.191 -0.9522  0.1879  1.2266
11783TIP3   OH256839   1.750   1.665   4.230 -0.6960  0.0172  0.1779
11783TIP3    H156840   1.661   1.668   4.195 -0.2234 -1.1862 -1.2374
11783TIP3    H256841   1.744   1.607   4.307 -1.0296 -0.5953 -0.3005
11784TIP3   OH256842   0.872   3.418  11.040  0.3455 -0.0659  0.2340
11784TIP3    H156843   0.783   3.404  11.071  0.3161 -3.1105 -0.9928
11784TIP3    H256844   0.865   3.424  10.945  1.5239 -1.3229  0.0431
11785TIP3   OH256845   4.634   3.245   4.071 -0.1560  0.1023  0.1975
11785TIP3    H156846   4.576   3.321   4.067 -1.1784 -0.6564  0.1980
11785TIP3    H256847   4.610   3.202   4.153  1.1037  0.3042  0.6883
11786TIP3   OH256848   5.193   3.615  15.582 -0.1113  0.0548 -0.0383
11786TIP3    H156849   5.284   3.600  15.557  0.4372  0.0145  1.7815
11786TIP3    H256850   5.188   3.585  15.673 -1.9986 -0.1031 -0.1498
11787TIP3   OH256851   6.649   4.683  16.970  0.2121 -0.1445  0.2097
11787TIP3    H156852   6.624   4.694  17.061  3.6504 -1.4624  1.4692
11787TIP3    H256853   6.731   4.732  16.961 -1.9517  3.4381 -3.4237
11788TIP3   OH256854   0.908   0.319   5.113  0.6353 -0.0164 -0.7812
11788TIP3    H156855   0.947   0.338   5.198 -0.4926 -2.0149  0.2542
11788TIP3    H256856   0.982   0.315   5.052  1.5152  0.8288  0.2146
11789TIP3   OH256857   2.147   1.130   0.910 -0.5720 -0.0252  0.1611
11789TIP3    H156858   2.181   1.218   0.898 -2.1742  1.0712  2.8460
11789TIP3    H256859   2.159   1.111   1.003  1.4137 -3.4703 -0.5878
11790TIP3   OH256860   4.638   0.429   1.117 -0.9753 -0.1301  0.4359
11790TIP3    H156861   4.560   0.468   1.078 -0.1960  0.7635 -0.2659
11790TIP3    H256862   4.669   0.495   1.179 -0.3764 -0.1733  0.1872
11791TIP3   OH256863   5.858   0.214   2.353 -0.5282  0.3770 -0.1233
11791TIP3    H156864   5.767   0.184   2.346 -0.4190  0.2602 -1.2629
11791TIP3    H256865   5.889   0.176   2.435 -1.6047  0.6983  0.4581
11792TIP3   OH256866   4.730   6.466   1.469 -0.4286 -0.0570 -0.0242
11792TIP3    H156867   4.804   6.416   1.505  0.0934 -0.0262 -1.0024
11792TIP3    H256868   4.761   6.494   1.383 -0.8790  1.5950  0.3243
11793TIP3   OH256869   6.198   0.528  13.695 -0.2369  0.4121 -0.1992
11793TIP3    H156870   6.199   0.432  13.699 -1.0561  0.4216  0.5624
11793TIP3    H256871   6.130   0.549  13.631  1.5949  0.4841 -2.2221
11794TIP3   OH256872   4.831   6.070   2.054  0.4288  0.4439  0.2405
11794TIP3    H156873   4.900   6.115   2.104  0.9906  1.0640 -1.0532
11794TIP3    H256874   4.848   6.094   1.963 -0.8703 -0.2675 -0.2102
11795TIP3   OH256875   2.677   2.458  11.947 -0.4199  0.1156 -0.2305
11795TIP3    H156876   2.669   2.378  12.000  0.3950  1.2317  1.6996
11795TIP3    H256877   2.623   2.442  11.870 -0.5903 -2.1330  0.2908
11796TIP3   OH256878   5.282   5.465  14.276  0.4482 -0.4282  0.5795
11796TIP3    H156879   5.236   5.468  14.360 -2.8633 -0.8177 -1.0398
11796TIP3    H256880   5.329   5.382  14.277  0.6989 -0.3014  2.1215
11797TIP3   OH256881   5.923   6.409   1.571 -0.4177  0.0508  0.6290
11797TIP3    H156882   5.982   6.401   1.645 -0.4297  2.7890  1.0237
11797TIP3    H256883   5.919   6.321   1.534  1.6995 -0.8037  2.2413
11798TIP3   OH256884   5.102   5.952  16.573 -0.6918  0.2532 -0.5284
11798TIP3    H156885   5.045   6.027  16.585 -0.5609  0.5293 -1.5200
11798TIP3    H256886   5.190   5.986  16.585 -0.7135 -0.2140  1.2030
11799TIP3   OH256887   6.562   4.456   3.064  0.5637 -0.0849 -0.3104
11799TIP3    H156888   6.491   4.505   3.024  0.5537 -0.1136 -0.3281
11799TIP3    H256889   6.636   4.517   3.065  0.4987 -0.0092 -0.1648
11800TIP3   OH256890   2.513   5.037   1.028 -0.3295 -0.4194 -0.0644
11800TIP3    H156891   2.424   5.035   1.062 -0.2628  1.4846  0.3440
11800TIP3    H256892   2.558   5.102   1.082  0.7196  0.1804 -1.5796
11801TIP3   OH256893   3.332   5.624   2.521 -0.3721  0.1177  0.7818
11801TIP3    H156894   3.384   5.557   2.477 -1.0665 -0.1622  0.3706
11801TIP3    H256895   3.300   5.582   2.600  1.3990  0.8192  1.9126
11802TIP3   OH256896   5.696   1.522   5.711 -0.3467 -0.3146 -0.5275
11802TIP3    H156897   5.612   1.566   5.726  0.2442  0.9456 -0.8255
11802TIP3    H256898   5.674   1.448   5.655 -1.1846  0.3660 -1.1234
11803TIP3   OH256899   1.144   6.010  14.514  0.1113 -0.5396  0.2197
11803TIP3    H156900   1.068   6.067  14.513  0.3746 -0.1748 -0.8593
11803TIP3    H256901   1.213   6.062  14.557 -0.5693 -1.3576  2.4192
11804TIP3   OH256902   1.923   1.226  12.656 -0.2738 -0.7629  0.3228
11804TIP3    H156903   1.879   1.244  12.739 -0.2879 -1.3989  0.4646
11804TIP3    H256904   1.984   1.155  12.677  1.5581  0.7362  0.3728
11805TIP3   OH256905   1.817   2.937  11.719  0.2036  0.0750  0.1307
11805TIP3    H156906   1.909   2.911  11.711  0.3101  0.6429 -0.5493
11805TIP3    H256907   1.786   2.944  11.629  0.1049  2.0365  0.2719
11806TIP3   OH256908   6.550   4.548  12.028  0.1451  0.0085  0.1355
11806TIP3    H156909   6.590   4.484  12.087 -2.2532 -0.6635  1.1718
11806TIP3    H256910   6.548   4.504  11.943 -0.5827 -0.9467  0.6213
11807TIP3   OH256911   1.960   5.049  12.596  0.5713 -1.5915  0.5562
11807TIP3    H156912   1.970   5.138  12.629  3.4915 -2.5485  2.6297
11807TIP3    H256913   1.885   5.014  12.644  0.3726 -0.7475  0.8864
11808TIP3   OH256914   2.419   1.233   2.176 -0.2194  0.1381 -0.1105
11808TIP3    H156915   2.453   1.173   2.110 -0.0061 -0.4123  0.4834
11808TIP3    H256916   2.472   1.216   2.254  0.1085  1.3815 -0.0402
11809TIP3   OH256917   3.544   4.867   3.768 -0.4007  1.1865  0.7651
11809TIP3    H156918   3.623   4.901   3.725  0.3885  0.3850  1.5418
11809TIP3    H256919   3.528   4.783   3.725  0.1721  0.5580  1.7224
11810TIP3   OH256920   5.229   1.420  12.949  0.1263 -0.3815 -0.5241
11810TIP3    H156921   5.305   1.386  12.901 -0.2828  0.4799 -1.8398
11810TIP3    H256922   5.206   1.500  12.903 -0.8240  0.0315  0.6347
11811TIP3   OH256923   0.811   0.752  13.517  0.7443  0.0510  0.0540
11811TIP3    H156924   0.876   0.808  13.559  1.7647 -1.1196  0.1081
11811TIP3    H256925   0.845   0.738  13.429  0.1822  0.0166 -0.1622
11812TIP3   OH256926   6.077   0.096  17.158 -0.2011  0.4609 -0.2647
11812TIP3    H156927   6.156   0.069  17.112  1.0069  2.2397  0.6489
11812TIP3    H256928   6.096   0.082  17.251 -1.3482 -0.0323 -0.0886
11813TIP3   OH256929   4.876   4.526   4.997 -0.6334  0.0585  0.4869
11813TIP3    H156930   4.903   4.618   4.998 -0.6287  0.0599  0.3560
11813TIP3    H256931   4.780   4.529   4.997 -0.6361  0.0531  0.9957
11814TIP3   OH256932   6.412   5.750  17.188  0.2922  0.0791  0.8205
11814TIP3    H156933   6.413   5.767  17.094  0.0311  0.0916  0.8206
11814TIP3    H256934   6.443   5.832  17.227  0.2296  0.1348  0.7553
11815TIP3   OH256935   1.136   5.737  17.099 -0.9527  0.2773  0.0567
11815TIP3    H156936   1.226   5.733  17.130 -0.7232  1.0135 -0.4920
11815TIP3    H256937   1.123   5.829  17.075 -1.3917 -0.1008 -1.2039
11816TIP3   OH256938   4.312   4.616  13.674  0.4243 -0.4061 -0.2165
11816TIP3    H156939   4.329   4.527  13.645  1.3670  0.3782 -2.2804
11816TIP3    H256940   4.316   4.612  13.770 -0.1898 -2.6656 -0.2445
11817TIP3   OH256941   1.121   1.488   2.221  0.5255 -0.3390  0.2678
11817TIP3    H156942   1.167   1.427   2.279  0.5316 -0.4485  0.1471
11817TIP3    H256943   1.107   1.565   2.276 -0.0437 -0.6826  0.6176
11818TIP3   OH256944   5.974   2.625  12.237  0.1725  0.0174  0.7239
11818TIP3    H156945   5.983   2.720  12.245 -0.9954  0.3938 -1.6580
11818TIP3    H256946   5.880   2.610  12.227  0.5053 -1.0845 -1.4981
11819TIP3   OH256947   2.476   3.691  13.788 -0.0593 -0.1913  0.1484
11819TIP3    H156948   2.514   3.669  13.703  0.1081 -0.5654  0.3167
11819TIP3    H256949   2.545   3.738  13.834  0.0541 -0.4959  0.2929
11820TIP3   OH256950   6.285   1.514  12.581  0.3175 -0.5852 -0.4987
11820TIP3    H156951   6.240   1.507  12.497  0.1769  0.3951 -0.5142
11820TIP3    H256952   6.338   1.435  12.586  2.5584  0.6462 -2.8238
11821TIP3   OH256953   1.387   3.886   6.787  0.1450 -0.1428 -0.4273
11821TIP3    H156954   1.461   3.942   6.763 -0.1155  0.8240  0.9514
11821TIP3    H256955   1.371   3.833   6.708  2.1915 -0.2833 -0.8010
11822TIP3   OH256956   1.512   0.854   1.201 -0.2957 -0.2376 -0.2682
11822TIP3    H156957   1.560   0.869   1.283 -0.0792 -3.0993  0.2351
11822TIP3    H256958   1.427   0.819   1.230 -0.2538 -1.1773 -1.2283
11823TIP3   OH256959   2.044   6.024   2.264 -0.2291 -0.0214 -0.2396
11823TIP3    H156960   1.980   5.959   2.233 -0.4268 -0.4090  0.9148
11823TIP3    H256961   2.046   6.090   2.195 -0.6603 -0.8285 -1.0522
11824TIP3   OH256962   2.517   1.629   1.654 -0.5033 -0.2858 -0.7759
11824TIP3    H156963   2.544   1.667   1.570 -0.2342 -1.1266 -1.0751
11824TIP3    H256964   2.425   1.608   1.643 -0.0692 -1.9492 -1.4594
11825TIP3   OH256965   6.247   6.804  15.230 -0.4255 -0.3025 -0.1374
11825TIP3    H156966   6.241   6.866  15.302  1.4576  0.7366 -0.7890
11825TIP3    H256967   6.323   6.750  15.251 -0.8301 -1.0446 -0.5616
11826TIP3   OH256968   5.935   6.785  13.074  0.0243 -0.5592  0.1120
11826TIP3    H156969   5.911   6.770  13.166 -1.3028 -1.9651 -0.4185
11826TIP3    H256970   5.978   6.870  13.074  0.4723 -0.7357  2.1058
11827TIP3   OH256971   0.091   2.813   1.377 -0.5352  0.6159 -0.2309
11827TIP3    H156972   0.138   2.758   1.440  0.5069  0.6673 -0.9461
11827TIP3    H256973   0.139   2.803   1.295 -1.4448  1.1267 -0.8481
11828TIP3   OH256974   1.159   4.912  14.504 -0.2216 -0.4689 -0.0112
11828TIP3    H156975   1.064   4.917  14.503 -0.1890  0.3743 -0.1714
11828TIP3    H256976   1.186   4.942  14.417  0.2039  0.1115  0.3087
11829TIP3   OH256977   2.543   5.743  16.809  0.4700  0.2001 -0.4658
11829TIP3    H156978   2.460   5.776  16.776 -0.6721 -0.8424  1.2233
11829TIP3    H256979   2.600   5.820  16.812 -0.2711  0.8539 -2.0461
11830TIP3   OH256980   1.942   2.062   3.718 -0.0864 -0.0063 -0.1589
11830TIP3    H156981   2.019   2.006   3.731  0.2634  0.3277 -0.7424
11830TIP3    H256982   1.870   2.014   3.759  0.6683  0.2944  1.5944
11831TIP3   OH256983   2.125   6.097   4.465  0.2009 -0.1038 -0.0215
11831TIP3    H156984   2.190   6.164   4.443 -1.1049  2.3051  2.8655
11831TIP3    H256985   2.050   6.118   4.410  0.0725  0.2967  0.3076
11832TIP3   OH256986   2.329   6.740  16.656  0.0414 -0.1781 -0.0855
11832TIP3    H156987   2.413   6.737  16.609 -0.5689 -1.5378 -1.1579
11832TIP3    H256988   2.344   6.801  16.728  2.0068 -0.5246 -0.1450
11833TIP3   OH256989   2.108   1.173  14.623 -0.2969  0.7024  0.2639
11833TIP3    H156990   2.049   1.248  14.635 -1.6565 -0.4298  0.8133
11833TIP3    H256991   2.064   1.118  14.558  0.6807  0.3372 -0.1152
11834TIP3   OH256992   4.767   2.383  13.160 -0.3167 -0.2681  0.1044
11834TIP3    H156993   4.727   2.306  13.200  0.9228 -0.9973 -0.0109
11834TIP3    H256994   4.782   2.358  13.069  0.8819 -0.2232  0.2749
11835TIP3   OH256995   4.484   3.752   0.916 -0.2444  0.5617 -0.0251
11835TIP3    H156996   4.530   3.761   0.999  0.0284 -3.3730  0.4210
11835TIP3    H256997   4.553   3.753   0.850  0.0733 -0.7748  0.2530
11836TIP3   OH256998   0.312   2.147   0.934 -0.1838  0.5469 -0.3277
11836TIP3    H156999   0.364   2.149   0.854  0.4540 -0.5916  0.0319
11836TIP3    H257000   0.355   2.209   0.993 -1.9132  3.0818 -1.5401
11837TIP3   OH257001   2.691   2.698   0.904 -0.1555  0.3997  0.2276
11837TIP3    H157002   2.712   2.791   0.896  1.6964  0.0853  1.0903
11837TIP3    H257003   2.705   2.662   0.816  1.0576  0.5695  0.3473
11838TIP3   OH257004   0.346   5.331   3.381  0.0642  0.1768 -0.7519
11838TIP3    H157005   0.284   5.278   3.430  0.2776 -0.1949 -0.8825
11838TIP3    H257006   0.421   5.341   3.440  0.5074 -0.6478 -1.1696
11839TIP3   OH257007   1.183   1.635  13.398  0.0243 -0.1100 -0.1401
11839TIP3    H157008   1.179   1.721  13.356  0.2387 -0.6357 -1.2753
11839TIP3    H257009   1.174   1.654  13.491 -2.8289  0.9508 -0.5095
11840TIP3   OH257010   1.665   4.585  14.090  0.9849  0.0999 -0.1098
11840TIP3    H157011   1.581   4.630  14.081  1.8240  1.7699  0.0891
11840TIP3    H257012   1.681   4.583  14.184  0.7923 -1.0030 -0.0810
11841TIP3   OH257013   5.414   6.469  16.029  0.2027 -0.4035 -0.3729
11841TIP3    H157014   5.386   6.456  16.119  0.9159 -0.9560 -0.2306
11841TIP3    H257015   5.497   6.517  16.036  1.5396 -2.5797 -0.6275
11842TIP3   OH257016   6.548   0.064   3.574 -0.0822  0.0947  0.1275
11842TIP3    H157017   6.461   0.078   3.612  0.0936  0.5614  0.3588
11842TIP3    H257018   6.543   0.105   3.488 -0.2554 -0.3391 -0.0715
11843TIP3   OH257019   6.297   2.547  14.627 -0.5092  0.1410  0.3161
11843TIP3    H157020   6.386   2.538  14.592 -1.0762 -2.6373 -0.6042
11843TIP3    H257021   6.242   2.561  14.550 -1.3277 -2.4547  0.3461
11844TIP3   OH257022   3.500   5.273   2.455 -0.1382 -0.0158  0.7664
11844TIP3    H157023   3.413   5.273   2.416  0.0853  1.5265  0.1716
11844TIP3    H257024   3.485   5.266   2.549 -0.9242  0.5724  0.6909
11845TIP3   OH257025   3.990   0.996   0.293 -0.2563  0.0635 -0.0500
11845TIP3    H157026   4.057   0.967   0.233 -0.3868  1.0355 -0.6905
11845TIP3    H257027   3.910   0.951   0.265 -0.5450  1.2588 -1.2800
11846TIP3   OH257028   6.330   2.949   3.293  0.2119 -0.2747 -0.0177
11846TIP3    H157029   6.363   2.955   3.203 -0.5865 -1.6298 -0.4274
11846TIP3    H257030   6.376   2.873   3.330  2.2357  1.5448  1.5132
11847TIP3   OH257031   5.516   5.089  16.159 -0.1993 -0.6885 -0.2893
11847TIP3    H157032   5.541   5.104  16.068  3.1866 -1.5867  0.3450
11847TIP3    H257033   5.545   5.168  16.205 -2.5151  0.0699  0.0130
11848TIP3   OH257034   0.249   6.342  13.874 -0.4361 -0.3482  0.4988
11848TIP3    H157035   0.270   6.361  13.783  0.1792  3.2434  1.2368
11848TIP3    H257036   0.272   6.250  13.885  0.6124 -0.5785 -2.6394
11849TIP3   OH257037   1.505   4.167  13.224 -0.1648 -0.0634 -0.1437
11849TIP3    H157038   1.429   4.142  13.276 -1.1931  1.4185 -0.8558
11849TIP3    H257039   1.547   4.236  13.277 -0.0762  0.0431 -0.3533
11850TIP3   OH257040   0.597   0.698   2.419 -0.0062 -0.9986 -0.5698
11850TIP3    H157041   0.625   0.664   2.334 -1.4375 -1.5035 -0.8725
11850TIP3    H257042   0.519   0.749   2.400 -0.6997 -1.6238  0.5015
11851TIP3   OH257043   1.697   2.077  15.279 -0.3616 -0.0908 -0.3968
11851TIP3    H157044   1.608   2.047  15.262 -1.0175  2.3991 -1.8816
11851TIP3    H257045   1.753   2.020  15.227 -1.2271 -0.6726 -0.7066
11852TIP3   OH257046   4.621   6.643   1.134  0.1440  0.4916  0.1576
11852TIP3    H157047   4.715   6.635   1.154  0.4256  1.0457 -0.8754
11852TIP3    H257048   4.614   6.614   1.043 -0.5232  1.4950 -0.1179
11853TIP3   OH257049   3.617   0.176   5.163 -0.0007  0.0833  0.4295
11853TIP3    H157050   3.582   0.259   5.130 -0.9008  0.0729  1.2987
11853TIP3    H257051   3.658   0.135   5.087  0.1749  1.1756 -0.0830
11854TIP3   OH257052   1.346   3.270  12.508 -0.3822  0.1630  0.8898
11854TIP3    H157053   1.389   3.193  12.546 -2.7173 -0.6705  2.0807
11854TIP3    H257054   1.314   3.239  12.423 -1.2089 -0.1848  1.3132
11855TIP3   OH257055   0.262   5.587  12.926 -0.1697 -0.8573  0.2393
11855TIP3    H157056   0.257   5.635  12.843  1.3639 -0.2709  0.4407
11855TIP3    H257057   0.195   5.519  12.919 -1.7964  0.7256 -0.4354
11856TIP3   OH257058   5.167   2.193   3.219  0.6121 -0.4046 -0.0335
11856TIP3    H157059   5.129   2.210   3.305  2.5535 -0.4557  0.8986
11856TIP3    H257060   5.108   2.130   3.178 -1.0018  0.5543  0.7469
11857TIP3   OH257061   3.217   2.483   5.923  0.5117 -0.5750 -0.1650
11857TIP3    H157062   3.295   2.458   5.973  0.3806  1.3763  1.1090
11857TIP3    H257063   3.176   2.400   5.900  2.0529 -1.5974  0.6178
11858TIP3   OH257064   0.941   4.139   2.913 -0.2181  0.2650 -0.8636
11858TIP3    H157065   1.031   4.156   2.886 -0.3749  1.1170 -0.8917
11858TIP3    H257066   0.897   4.224   2.904 -0.7075  0.1639  0.3929
11859TIP3   OH257067   0.561   0.502  11.925 -0.3583 -0.2024 -0.0819
11859TIP3    H157068   0.501   0.541  11.861 -1.8123 -1.9670  0.1220
11859TIP3    H257069   0.539   0.545  12.007 -1.6571 -1.0786  0.0623
11860TIP3   OH257070   6.435   2.157   0.595 -0.3030  0.0260  0.0269
11860TIP3    H157071   6.438   2.226   0.661 -1.1988 -0.2232  0.3508
11860TIP3    H257072   6.362   2.182   0.538  1.1675  0.8460 -1.5775
11861TIP3   OH257073   1.699   4.338   4.056 -0.0438 -0.5100 -0.5127
11861TIP3    H157074   1.785   4.379   4.048  0.0257 -0.7468 -0.9814
11861TIP3    H257075   1.660   4.346   3.969 -0.9851  0.6570 -0.0141
11862TIP3   OH257076   5.631   4.110  12.196 -0.2841  0.2840  0.0041
11862TIP3    H157077   5.682   4.029  12.199 -0.8974 -0.2189 -1.6577
11862TIP3    H257078   5.542   4.081  12.173 -0.8449  1.3153  0.7732
11863TIP3   OH257079   6.445   2.549   1.267  0.3369 -0.0972  0.3956
11863TIP3    H157080   6.378   2.604   1.227 -0.2308  0.1008  1.5767
11863TIP3    H257081   6.411   2.460   1.260 -1.6847  0.2183  3.7902
11864TIP3   OH257082   1.725   5.493   2.956 -0.3219 -0.4645  0.1018
11864TIP3    H157083   1.678   5.484   2.873 -1.5541  0.7200  0.6148
11864TIP3    H257084   1.816   5.474   2.935 -0.1922  1.9070 -2.0501
11865TIP3   OH257085   4.180   3.562  11.208 -0.5446  0.2914  0.0599
11865TIP3    H157086   4.092   3.529  11.226  0.6996 -2.4133  1.7674
11865TIP3    H257087   4.222   3.567  11.294  1.9751 -1.7178 -0.9248
11866TIP3   OH257088   6.229   2.715  10.951 -0.0996  0.8850  0.2478
11866TIP3    H157089   6.135   2.731  10.938 -0.0440  1.5162  0.6062
11866TIP3    H257090   6.235   2.621  10.967 -0.4520  0.4535 -1.8090
11867TIP3   OH257091   2.189   0.523   3.892 -0.5616 -0.0513  0.0469
11867TIP3    H157092   2.238   0.442   3.880  0.4072 -0.1223  3.5016
11867TIP3    H257093   2.102   0.504   3.856 -0.8086 -3.1844  1.8952
11868TIP3   OH257094   4.553   5.671  12.155  0.0060 -0.6687  0.0909
11868TIP3    H157095   4.589   5.651  12.069 -0.1799  0.9725 -0.3911
11868TIP3    H257096   4.551   5.586  12.200  2.0118 -1.2240 -0.7689
11869TIP3   OH257097   6.033   3.276   2.065  0.4602  0.4999  0.4378
11869TIP3    H157098   6.041   3.270   1.970  0.2266 -0.4324  0.4661
11869TIP3    H257099   6.121   3.258   2.097  0.3597 -0.0868  0.4140
11870TIP3   OH257100   6.614   1.908   5.482 -0.0252  0.0118  0.0133
11870TIP3    H157101   6.561   1.906   5.403  1.0392  1.6316 -0.8033
11870TIP3    H257102   6.698   1.870   5.456  0.4582  0.8904  0.2410
11871TIP3   OH257103   2.320   4.505  11.720  0.1216  0.3985  0.2942
11871TIP3    H157104   2.355   4.464  11.640 -0.0577  0.6606  0.0791
11871TIP3    H257105   2.365   4.460  11.791 -1.1183 -1.2110  0.1392
11872TIP3   OH257106   4.282   2.969  15.573 -0.1748 -0.4513  0.1264
11872TIP3    H157107   4.357   2.963  15.633  0.4332 -0.4487 -0.6190
11872TIP3    H257108   4.277   2.882  15.533 -0.5293 -0.4307  0.1219
11873TIP3   OH257109   2.404   5.792  13.418  0.5648 -0.6160  0.1220
11873TIP3    H157110   2.362   5.732  13.357 -0.5651  0.3450 -0.0718
11873TIP3    H257111   2.452   5.853  13.362 -0.7626  0.4833  0.1536
11874TIP3   OH257112   5.372   0.396   2.167 -0.6834 -0.2426 -0.2875
11874TIP3    H157113   5.283   0.373   2.139 -1.4316  0.7910  1.1042
11874TIP3    H257114   5.359   0.459   2.238  1.1687 -0.2171  0.0747
11875TIP3   OH257115   1.929   0.183  14.035 -0.0831  0.1377 -0.2251
11875TIP3    H157116   1.847   0.189  13.987 -0.0534 -0.8609 -0.4336
11875TIP3    H257117   1.977   0.112  13.992 -0.4829 -1.5010  1.8485
11876TIP3   OH257118   3.414   2.977   3.664 -0.0941 -0.5176  0.4736
11876TIP3    H157119   3.367   2.894   3.661 -2.3820  0.6533  1.3793
11876TIP3    H257120   3.422   2.998   3.757  0.2671  0.3467  0.2635
11877TIP3   OH257121   0.328   0.274   3.699 -0.4068  0.0542 -0.0879
11877TIP3    H157122   0.260   0.325   3.744 -0.4073 -0.3092  0.3263
11877TIP3    H257123   0.291   0.255   3.613 -1.3186 -1.1421  0.5385
11878TIP3   OH257124   4.413   5.449  12.299  0.2758  0.0942  0.0202
11878TIP3    H157125   4.458   5.379  12.347  0.9587  0.4883 -0.0446
11878TIP3    H257126   4.336   5.469  12.353 -0.0228 -0.8156 -0.0421
11879TIP3   OH257127   0.257   3.746   4.682  0.0017  0.2498  0.0904
11879TIP3    H157128   0.337   3.695   4.671 -0.5370 -0.3937 -1.0969
11879TIP3    H257129   0.205   3.695   4.745  0.1892  0.2526  0.2481
11880TIP3   OH257130   6.584   6.379   5.081 -0.1264  0.1463 -0.2192
11880TIP3    H157131   6.643   6.327   5.136  2.1895  1.8582 -0.9158
11880TIP3    H257132   6.592   6.468   5.114  0.5191  1.0445 -2.5840
11881TIP3   OH257133   3.212   5.288   3.322 -0.5083  0.5861 -0.6841
11881TIP3    H157134   3.140   5.237   3.360 -0.6124 -0.8295 -2.5891
11881TIP3    H257135   3.246   5.340   3.395 -1.6319 -0.8150  0.9301
11882TIP3   OH257136   5.216   4.738  11.796 -0.2365  0.1689  0.1663
11882TIP3    H157137   5.179   4.682  11.727  0.8102 -2.1705  1.3905
11882TIP3    H257138   5.304   4.760  11.764 -0.4459  0.6454 -0.0765
11883TIP3   OH257139   1.325   6.265   4.196 -0.0019  0.4287  1.1929
11883TIP3    H157140   1.350   6.238   4.108  1.1982 -1.2319  1.9854
11883TIP3    H257141   1.303   6.184   4.241  0.9496  1.0489  2.8686
11884TIP3   OH257142   0.562   5.282  14.561 -0.5615 -0.6336  0.4608
11884TIP3    H157143   0.516   5.219  14.506  0.0842 -0.1931 -0.6284
11884TIP3    H257144   0.594   5.348  14.500 -0.5298  0.3265  1.4820
11885TIP3   OH257145   6.726   4.702   2.534  0.1833  0.1568 -0.1819
11885TIP3    H157146   6.635   4.675   2.537 -0.5210  2.3463  0.0313
11885TIP3    H257147   6.734   4.753   2.453  0.7385  1.4672  0.6663
11886TIP3   OH257148   0.310   5.608  13.213  0.0546 -0.0971 -0.5109
11886TIP3    H157149   0.363   5.560  13.150 -0.3792 -1.2002 -0.0557
11886TIP3    H257150   0.258   5.541  13.257  0.5441  0.6005  1.2186
11887TIP3   OH257151   0.712   0.570   0.501 -0.0133 -0.4966 -0.1083
11887TIP3    H157152   0.672   0.593   0.585  1.2417 -0.2133  0.4435
11887TIP3    H257153   0.654   0.608   0.435  0.2766  1.5021  0.6991
11888TIP3   OH257154   2.728   1.661   3.158  0.4465  0.5609  1.2351
11888TIP3    H157155   2.645   1.690   3.122  0.7622  1.4321  1.1798
11888TIP3    H257156   2.704   1.608   3.234 -0.2146 -1.0646 -0.0492
11889TIP3   OH257157   0.258   0.634  12.789  0.1075 -0.4975 -0.6101
11889TIP3    H157158   0.260   0.555  12.843  0.2332 -0.4064 -0.4805
11889TIP3    H257159   0.343   0.635  12.746  0.9685  0.6666  0.9905
11890TIP3   OH257160   6.586   1.059  14.830  0.1410  0.3263 -0.1143
11890TIP3    H157161   6.603   0.987  14.891  3.4337 -0.6045 -1.8289
11890TIP3    H257162   6.576   1.136  14.885  1.0088 -0.7655  1.6824
11891TIP3   OH257163   3.381   5.120   0.486  0.1444 -0.1133 -0.5122
11891TIP3    H157164   3.444   5.164   0.543 -1.0257 -0.3873  1.0746
11891TIP3    H257165   3.328   5.066   0.545 -1.2025 -0.3370 -1.8412
11892TIP3   OH257166   5.032   2.227  15.022 -0.3306 -0.0043  0.0699
11892TIP3    H157167   4.990   2.227  15.108 -1.3437 -3.0245 -0.2959
11892TIP3    H257168   5.120   2.195  15.038 -0.9369 -1.8618 -0.1039
11893TIP3   OH257169   2.030   2.618   4.444 -0.5036  0.6061 -0.4075
11893TIP3    H157170   2.048   2.550   4.509 -0.8173 -0.7097 -1.6591
11893TIP3    H257171   1.998   2.692   4.496  0.6216  0.1130  1.0595
11894TIP3   OH257172   5.556   0.229   3.142 -0.0707  0.3440 -0.0793
11894TIP3    H157173   5.556   0.172   3.065 -1.5414 -0.8851  0.7674
11894TIP3    H257174   5.465   0.255   3.153 -0.1756 -0.6644  2.0118
11895TIP3   OH257175   5.521   1.680  14.372 -0.1609  0.2660  0.4676
11895TIP3    H157176   5.613   1.702  14.356 -0.6281  2.3122  0.3636
11895TIP3    H257177   5.512   1.679  14.467  0.1153 -0.6925  0.4940
11896TIP3   OH257178   2.504   1.775  12.214  0.3324  0.8700 -0.4350
11896TIP3    H157179   2.508   1.843  12.281  0.6949 -0.3344  0.8195
11896TIP3    H257180   2.592   1.735  12.215  0.1934  0.5194 -1.2950
11897TIP3   OH257181   4.209   5.201  15.924 -0.4016  0.4919  0.0339
11897TIP3    H157182   4.295   5.221  15.959  1.0493 -1.5664 -2.0464
11897TIP3    H257183   4.168   5.145  15.990  0.6162 -0.0270  0.2335
11898TIP3   OH257184   0.375   1.632   2.961 -0.2218 -0.4117 -0.2252
11898TIP3    H157185   0.295   1.682   2.941 -0.5592 -0.3831  1.1070
11898TIP3    H257186   0.415   1.617   2.876 -1.1224  0.4615 -0.8332
11899TIP3   OH257187   2.345   1.741  13.629 -0.5343 -0.5024 -0.4686
11899TIP3    H157188   2.347   1.678  13.556 -0.2105 -1.3031  0.2216
11899TIP3    H257189   2.344   1.687  13.708  0.1344  0.3601  0.1516
11900TIP3   OH257190   4.522   3.161   4.323 -0.5062 -0.8890 -0.1978
11900TIP3    H157191   4.433   3.184   4.351 -0.0450 -0.7548  1.2467
11900TIP3    H257192   4.542   3.080   4.370  0.4682 -0.4140  0.2535
11901TIP3   OH257193   2.272   6.199  11.547 -0.0187  0.5043 -0.4290
11901TIP3    H157194   2.302   6.225  11.634  0.4439 -0.4241 -0.3019
11901TIP3    H257195   2.210   6.128  11.563  0.5784 -0.1328 -0.8768
11902TIP3   OH257196   1.281   3.043  11.925 -0.2012 -0.2012  0.0992
11902TIP3    H157197   1.216   3.032  11.856 -1.6840 -1.1762  1.5717
11902TIP3    H257198   1.232   3.081  11.999  1.1507  0.0842  0.8900
11903TIP3   OH257199   4.227   2.722  14.440  0.1065 -0.2850  0.2757
11903TIP3    H157200   4.212   2.798  14.384 -2.4872  0.3481  1.6709
11903TIP3    H257201   4.273   2.757  14.516  0.2771 -0.4177  0.2350
11904TIP3   OH257202   1.123   4.343   0.316  0.1734 -0.1201 -0.6587
11904TIP3    H157203   1.103   4.275   0.252  2.3820 -0.2504 -1.3167
11904TIP3    H257204   1.066   4.416   0.293  1.1047 -0.0496 -3.0296
11905TIP3   OH257205   6.292   5.830  14.140  0.2022  0.4923 -0.1764
11905TIP3    H157206   6.234   5.892  14.094  0.5724 -0.0066 -1.3684
11905TIP3    H257207   6.367   5.883  14.166  0.1965  0.6960 -0.5652
11906TIP3   OH257208   0.463   1.417   3.289  0.4524 -0.1329  0.1214
11906TIP3    H157209   0.371   1.406   3.265  0.2206 -1.4530  1.4571
11906TIP3    H257210   0.511   1.358   3.232  0.6319  1.3143 -1.2967
11907TIP3   OH257211   4.940   1.496  13.520  1.0669 -0.4254  0.9551
11907TIP3    H157212   5.005   1.469  13.585  0.0937  1.5375  2.8503
11907TIP3    H257213   4.990   1.542  13.453  1.8216 -0.2531  1.6273
11908TIP3   OH257214   5.177   0.798   4.797  0.1860 -0.3764  0.0819
11908TIP3    H157215   5.215   0.831   4.879 -0.3296  2.4361 -0.7055
11908TIP3    H257216   5.082   0.801   4.812 -0.0008 -4.3167  0.9061
11909TIP3   OH257217   6.779   4.836   1.777  0.0594  0.1238 -0.3821
11909TIP3    H157218   6.715   4.896   1.814  2.1633  2.6137 -0.5440
11909TIP3    H257219   6.806   4.781   1.851 -0.3170  0.8151  0.2805
11910TIP3   OH257220   6.416   1.061   0.423  0.2017  0.3620 -0.0810
11910TIP3    H157221   6.459   1.014   0.352  0.1466  0.6802 -0.3277
11910TIP3    H257222   6.323   1.060   0.399  0.0724 -0.2926  0.4315
11911TIP3   OH257223   3.029   1.162   0.798  0.4208 -0.1943 -0.2915
11911TIP3    H157224   2.941   1.162   0.760  0.8353 -0.5132 -1.2602
11911TIP3    H257225   3.052   1.255   0.804  0.3110 -0.1379 -0.7147
11912TIP3   OH257226   3.093   1.472   4.580 -0.0334 -0.0946 -0.0333
11912TIP3    H157227   3.172   1.420   4.567 -0.4146 -1.0330  1.1488
11912TIP3    H257228   3.097   1.498   4.672 -2.7426 -3.1264  1.1299
11913TIP3   OH257229   6.391   0.809   4.570 -0.4811 -0.4227  0.2104
11913TIP3    H157230   6.382   0.713   4.573 -1.0380 -0.4244 -0.9960
11913TIP3    H257231   6.350   0.834   4.488 -0.1911  0.8503  0.4384
11914TIP3   OH257232   5.432   4.437   1.675  0.1307 -0.8370 -0.9469
11914TIP3    H157233   5.404   4.486   1.753  1.8702  0.6139 -1.1679
11914TIP3    H257234   5.371   4.362   1.671 -1.5153  0.3347  0.4134
11915TIP3   OH257235   6.530   6.466  11.697  0.5484 -0.2298  0.2198
11915TIP3    H157236   6.513   6.376  11.669 -0.4432  0.4626 -1.5660
11915TIP3    H257237   6.584   6.502  11.627  0.7619  0.6232  0.8229
11916TIP3   OH257238   4.271   5.819  12.576 -0.1700  0.1622  0.1324
11916TIP3    H157239   4.263   5.833  12.481 -1.0258 -0.2023  0.1487
11916TIP3    H257240   4.199   5.761  12.598  0.5357 -0.4559  0.8720
11917TIP3   OH257241   3.428   3.128  12.957  0.3844  0.0043 -0.0105
11917TIP3    H157242   3.376   3.131  13.038 -0.3795  3.3612 -0.4593
11917TIP3    H257243   3.519   3.134  12.987  0.6146 -4.1454  0.7004
11918TIP3   OH257244   2.345   4.669  12.925  0.5849  0.2179 -0.2439
11918TIP3    H157245   2.259   4.634  12.905  0.7376 -0.2980 -0.0177
11918TIP3    H257246   2.339   4.762  12.904 -0.0576  0.2053 -0.1234
11919TIP3   OH257247   2.717   3.304   4.062 -0.1338  0.3677 -0.1394
11919TIP3    H157248   2.699   3.310   3.969 -0.0256 -0.1914 -0.2024
11919TIP3    H257249   2.690   3.215   4.086  0.3297  0.3260  0.2501
11920TIP3   OH257250   1.366   1.040   0.713  0.1325 -0.1049  0.6817
11920TIP3    H157251   1.387   0.978   0.783  0.8128 -0.4991  0.1318
11920TIP3    H257252   1.388   0.995   0.632  0.2359  0.7001  0.2465
11921TIP3   OH257253   0.164   4.883  11.031 -0.0843 -0.6014  0.4684
11921TIP3    H157254   0.076   4.906  11.061  1.0616  2.5024  1.8615
11921TIP3    H257255   0.154   4.796  10.992 -3.2757 -1.4260  2.7074
11922TIP3   OH257256   2.555   5.306  11.015 -0.3251 -0.3707 -0.1913
11922TIP3    H157257   2.648   5.319  11.035 -0.4178 -0.1906  0.1312
11922TIP3    H257258   2.531   5.383  10.963 -0.3357 -0.3392 -0.1389
11923TIP3   OH257259   0.262   4.631  15.555  0.1864  0.2458 -0.4064
11923TIP3    H157260   0.325   4.615  15.486 -1.6919 -2.9509 -1.6113
11923TIP3    H257261   0.270   4.555  15.613 -1.3636  0.5988  0.3242
11924TIP3   OH257262   0.894   5.102  16.401  0.0714  0.3188  0.6966
11924TIP3    H157263   0.809   5.142  16.383  1.0587  1.8603 -0.8346
11924TIP3    H257264   0.913   5.125  16.493 -0.1648  1.9766  0.3630
11925TIP3   OH257265   4.337   5.217  10.999  0.5217 -0.5126 -0.1875
11925TIP3    H157266   4.427   5.200  10.971  0.1399 -1.3861 -0.9371
11925TIP3    H257267   4.283   5.173  10.934 -0.4995  1.4212 -0.7212
11926TIP3   OH257268   5.509   4.405   3.534  0.2570 -0.1380 -0.0868
11926TIP3    H157269   5.553   4.364   3.460  0.8963  1.2205 -0.5017
11926TIP3    H257270   5.572   4.470   3.567 -1.0827  1.2764 -0.1688
11927TIP3   OH257271   3.089   0.874  15.518 -0.0313 -0.2063 -0.2475
11927TIP3    H157272   3.075   0.788  15.477  0.3712 -0.8067  0.8235
11927TIP3    H257273   3.171   0.863  15.567  0.0371  0.8045 -0.1235
11928TIP3   OH257274   1.956   3.841   6.098 -0.0764 -0.3572 -0.4198
11928TIP3    H157275   1.881   3.801   6.144 -0.7952  1.5031  0.1411
11928TIP3    H257276   1.923   3.927   6.071  1.0933 -0.4886 -2.4098
11929TIP3   OH257277   3.261   0.213  15.909  0.7401  0.2372 -0.0103
11929TIP3    H157278   3.341   0.166  15.935  1.7159  1.4137 -0.8019
11929TIP3    H257279   3.283   0.254  15.826 -0.3518  1.4302  0.2617
11930TIP3   OH257280   0.108   5.490  12.384 -0.0300  0.1124 -0.0032
11930TIP3    H157281   0.200   5.462  12.391  0.4658  1.4789 -0.6118
11930TIP3    H257282   0.112   5.585  12.394 -1.2819  0.2716 -0.8535
11931TIP3   OH257283   2.648   0.450  14.469 -0.2870  0.0146  0.1184
11931TIP3    H157284   2.738   0.474  14.491 -0.0982 -0.5969  0.0430
11931TIP3    H257285   2.653   0.423  14.377 -0.7907  1.1584 -0.2619
11932TIP3   OH257286   3.775   4.652  11.270  0.4881  0.1466 -0.0295
11932TIP3    H157287   3.748   4.718  11.334  1.8019  0.9082 -0.2205
11932TIP3    H257288   3.760   4.694  11.185 -1.0899 -0.7946 -0.2542
11933TIP3   OH257289   0.912   3.001   4.854  0.1805 -0.2655 -0.2053
11933TIP3    H157290   0.972   3.063   4.895  0.3327  0.0186 -0.8358
11933TIP3    H257291   0.890   2.939   4.923 -1.6317  1.6679  1.0814
11934TIP3   OH257292   2.503   0.146   2.331 -0.0677 -0.4111 -0.1662
11934TIP3    H157293   2.569   0.097   2.379  0.1865  1.2251  1.2488
11934TIP3    H257294   2.553   0.199   2.268  0.0562  1.0299  1.0877
11935TIP3   OH257295   6.775   2.067  15.116  0.3079  1.2069 -0.4537
11935TIP3    H157296   6.859   2.077  15.073  0.2299  0.5922 -0.7575
11935TIP3    H257297   6.796   2.030  15.202  0.3241  0.7230 -0.6630
11936TIP3   OH257298   2.977   0.630   4.168 -0.0007  0.6449  0.8334
11936TIP3    H157299   2.920   0.699   4.203 -2.5142 -1.2124  0.6360
11936TIP3    H257300   2.936   0.548   4.194  2.8096 -0.8707  0.9362
11937TIP3   OH257301   1.874   6.700  11.786  0.1924  0.0748  0.3237
11937TIP3    H157302   1.779   6.696  11.782  0.2355 -0.3831 -0.5578
11937TIP3    H257303   1.900   6.753  11.711  0.7604 -2.7036 -1.6190
11938TIP3   OH257304   1.163   2.802  11.081  0.4319 -0.3730  0.8699
11938TIP3    H157305   1.072   2.809  11.110 -0.1401 -0.0461 -0.9049
11938TIP3    H257306   1.204   2.747  11.148 -1.3020 -1.3614  1.1968
11939TIP3   OH257307   5.532   6.753  11.910  0.3395  0.3864 -0.1483
11939TIP3    H157308   5.597   6.735  11.843  0.6581 -1.2761  0.5447
11939TIP3    H257309   5.458   6.790  11.863  0.7130 -0.3680 -1.3694
11940TIP3   OH257310   5.076   5.694  11.239  0.3301  0.3347 -0.0274
11940TIP3    H157311   5.019   5.686  11.316 -0.8254 -0.9870 -0.9967
11940TIP3    H257312   5.028   5.653  11.168  2.4874 -0.8406 -0.9055
11941TIP3   OH257313   5.692   3.500   3.510  0.7738  0.2189 -0.3148
11941TIP3    H157314   5.737   3.435   3.565  1.5808  1.6378  0.7467
11941TIP3    H257315   5.682   3.576   3.567 -2.7357  0.1134 -0.5981
11942TIP3   OH257316   6.101   3.287  16.238 -0.7946  0.6456 -0.2074
11942TIP3    H157317   6.187   3.328  16.244 -0.4549  0.0436 -0.8830
11942TIP3    H257318   6.046   3.337  16.298  0.1720  0.6625  0.6838
11943TIP3   OH257319   6.239   0.830  16.901  0.3293  0.5191  0.4962
11943TIP3    H157320   6.328   0.815  16.932  0.4205  1.3079  0.6464
11943TIP3    H257321   6.189   0.755  16.932  1.1378 -0.4154 -0.4277
11944TIP3   OH257322   5.056   4.939   5.201 -0.3899 -0.7145 -0.0202
11944TIP3    H157323   5.087   5.014   5.252 -2.1505  0.6401 -0.8050
11944TIP3    H257324   5.058   4.866   5.262  0.2712  0.2284  1.1336
11945TIP3   OH257325   1.662   0.164   3.182 -0.0933 -0.0594  0.5624
11945TIP3    H157326   1.574   0.155   3.146 -0.0579  1.5303  0.0341
11945TIP3    H257327   1.718   0.178   3.106  0.5634 -0.6327  0.9311
11946TIP3   OH257328   2.845   0.400   4.215  0.4934 -0.0957 -0.7959
11946TIP3    H157329   2.778   0.340   4.248  1.0221 -1.1567 -1.5947
11946TIP3    H257330   2.863   0.369   4.126  2.4695 -0.1894 -0.3927
11947TIP3   OH257331   1.924   6.478   3.144 -0.3206  0.1248 -0.1955
11947TIP3    H157332   1.932   6.529   3.063 -0.7450  0.9872  0.2860
11947TIP3    H257333   1.918   6.387   3.115 -0.0561  0.3886 -1.1077
11948TIP3   OH257334   5.288   4.670   0.912 -0.4472 -0.9423 -0.1408
11948TIP3    H157335   5.358   4.648   0.974 -0.8584 -0.2354  0.5814
11948TIP3    H257336   5.319   4.750   0.869 -0.2051 -1.3792 -0.8030
11949TIP3   OH257337   5.649   3.194  11.903  0.4187  0.0349 -0.4483
11949TIP3    H157338   5.744   3.208  11.903  0.9979 -3.1419 -0.8430
11949TIP3    H257339   5.619   3.230  11.820  1.1687  1.3946 -0.1669
11950TIP3   OH257340   5.018   5.956  16.009 -0.3420  0.1761 -0.0750
11950TIP3    H157341   5.080   5.929  15.941 -1.5778 -2.6368 -0.2110
11950TIP3    H257342   5.056   5.925  16.091  1.5557  4.2718  0.8549
11951TIP3   OH257343   6.036   2.448  13.967  0.3283 -0.0900 -0.1155
11951TIP3    H157344   5.991   2.531  13.980 -0.0045 -0.1115 -1.0630
11951TIP3    H257345   6.023   2.428  13.874 -0.5737 -1.7551  0.3359
11952TIP3   OH257346   0.685   1.632  17.185  0.3270 -0.0343 -0.0833
11952TIP3    H157347   0.693   1.582  17.267  0.4626 -0.1974 -0.1933
11952TIP3    H257348   0.762   1.606  17.134  0.0316 -0.2464 -0.4265
11953TIP3   OH257349   3.333   5.460   3.489  0.0644 -0.1517  0.1371
11953TIP3    H157350   3.272   5.526   3.455  0.9136  0.2157 -0.7153
11953TIP3    H257351   3.370   5.500   3.567 -0.5249 -0.2403  0.4689
11954TIP3   OH257352   0.152   4.911   2.122  0.1099 -0.8314  0.0975
11954TIP3    H157353   0.131   4.946   2.035  1.7118 -0.3857 -0.1429
11954TIP3    H257354   0.247   4.914   2.126  0.1780 -2.8568  1.0601
11955TIP3   OH257355   4.545   4.785   2.381  0.3070  0.4341  0.0803
11955TIP3    H157356   4.502   4.774   2.466  0.2693  0.3692  0.0529
11955TIP3    H257357   4.638   4.794   2.402  0.2499  0.8550  0.1614
11956TIP3   OH257358   4.057   3.602   1.616  0.5370 -0.0565  0.1414
11956TIP3    H157359   4.078   3.525   1.564 -0.5699 -0.8036  0.7577
11956TIP3    H257360   4.135   3.657   1.609  1.8590 -1.7502  0.6394
11957TIP3   OH257361   3.822   4.801  16.016 -0.6162  0.1102  0.3581
11957TIP3    H157362   3.853   4.726  16.067  1.1750  0.4574 -0.1847
11957TIP3    H257363   3.769   4.762  15.946  1.9786 -0.8851 -1.1833
11958TIP3   OH257364   3.833   2.615  16.016  0.1511  0.4117  0.0159
11958TIP3    H157365   3.852   2.707  16.035  0.7921  0.5309 -1.0886
11958TIP3    H257366   3.829   2.611  15.920  2.0261 -1.0704 -0.0511
11959TIP3   OH257367   3.600   0.633  12.499  0.0367 -0.3401 -0.2999
11959TIP3    H157368   3.669   0.675  12.550  0.3803  1.3576 -2.0315
11959TIP3    H257369   3.520   0.648  12.550  0.6175 -0.3885  0.6513
11960TIP3   OH257370   2.501   3.923  16.620 -0.1699  0.5980 -0.1107
11960TIP3    H157371   2.407   3.903  16.622 -0.4729  1.7406 -1.5520
11960TIP3    H257372   2.521   3.937  16.527  1.9978 -2.0632 -0.1989
11961TIP3   OH257373   5.741   1.136  11.115  0.2185  0.9669 -0.1393
11961TIP3    H157374   5.748   1.045  11.085  1.0573  1.4098 -1.3783
11961TIP3    H257375   5.829   1.159  11.144  0.4040  1.8655 -1.3443
11962TIP3   OH257376   0.621   3.286   0.712 -0.1656 -0.6666  0.1540
11962TIP3    H157377   0.537   3.267   0.671  0.1880 -1.3129 -0.2872
11962TIP3    H257378   0.604   3.361   0.769 -0.4923  0.8040 -1.8096
11963TIP3   OH257379   4.653   5.442  13.166  0.1136 -0.3674 -0.1851
11963TIP3    H157380   4.699   5.378  13.222  1.3491  0.3464 -0.3408
11963TIP3    H257381   4.591   5.484  13.225  0.1472 -0.8600  0.2215
11964TIP3   OH257382   2.352   4.173  16.965 -0.6193  0.4626  0.1761
11964TIP3    H157383   2.314   4.193  16.879 -0.4302 -0.8671 -0.2397
11964TIP3    H257384   2.433   4.125  16.945 -0.8704 -0.3744  1.0954
11965TIP3   OH257385   2.604   0.382   5.048  0.1799 -0.0657 -0.1659
11965TIP3    H157386   2.690   0.398   5.009 -1.2885  2.5678 -2.7545
11965TIP3    H257387   2.607   0.428   5.132  0.7892  1.5361 -1.0289
11966TIP3   OH257388   2.010   4.097   4.157  0.4092 -0.6146 -0.3146
11966TIP3    H157389   2.071   4.026   4.177  1.0940  0.7195  3.1967
11966TIP3    H257390   1.931   4.076   4.207 -0.6154 -0.4093 -1.7691
11967TIP3   OH257391   5.789   3.009   1.734 -0.1369  0.6658 -0.5416
11967TIP3    H157392   5.853   2.991   1.665 -1.9503  1.9838 -2.6960
11967TIP3    H257393   5.709   2.967   1.703 -0.7382  0.3014  1.3757
11968TIP3   OH257394   0.545   5.928   6.148  0.7227  0.1269 -0.4778
11968TIP3    H157395   0.529   5.967   6.234 -1.4715  2.4728 -1.8216
11968TIP3    H257396   0.480   5.859   6.141 -1.2233  1.9418 -1.3408
11969TIP3   OH257397   3.370   4.469  15.421  0.2577 -0.4113 -0.6178
11969TIP3    H157398   3.332   4.517  15.347  0.8493  0.7358 -0.1978
11969TIP3    H257399   3.421   4.534  15.469 -0.8328 -0.9015  1.3322
11970TIP3   OH257400   5.103   0.374  15.112  0.4924 -0.0834  0.3721
11970TIP3    H157401   5.061   0.459  15.130 -0.4814 -0.5786  0.5265
11970TIP3    H257402   5.106   0.331  15.197  0.3883 -0.4555  0.1890
11971TIP3   OH257403   2.283   4.389   3.129 -0.2294  0.5200 -0.3808
11971TIP3    H157404   2.276   4.484   3.139 -0.0911  0.4944 -0.0227
11971TIP3    H257405   2.323   4.377   3.043 -0.4980  0.7764 -0.5444
11972TIP3   OH257406   5.597   0.121  10.558 -0.6243 -0.1313 -0.1461
11972TIP3    H157407   5.607   0.050  10.622  0.6538 -0.3612 -0.5614
11972TIP3    H257408   5.529   0.091  10.499  0.1492 -1.1974 -0.5291
11973TIP3   OH257409   2.696   1.903  15.881 -0.0976  0.2820 -0.1623
11973TIP3    H157410   2.739   1.835  15.829  0.0606 -1.7551  2.4143
11973TIP3    H257411   2.768   1.948  15.925 -0.2347 -2.3790  3.2506
11974TIP3   OH257412   1.078   5.647   6.084  0.2865  0.1773  0.0553
11974TIP3    H157413   1.106   5.733   6.114 -0.3413  0.4564 -0.1342
11974TIP3    H257414   1.084   5.591   6.161  1.5464  0.1743 -0.0318
11975TIP3   OH257415   3.555   2.084   1.150 -0.2394 -0.3293 -0.0184
11975TIP3    H157416   3.586   2.170   1.178  0.3549 -0.3677 -0.5229
11975TIP3    H257417   3.560   2.030   1.229 -0.5893  0.0933  0.2915
11976TIP3   OH257418   1.161   2.564   4.775  0.4646 -0.0091 -1.0616
11976TIP3    H157419   1.124   2.636   4.827  1.5570  0.6739 -1.2015
11976TIP3    H257420   1.129   2.485   4.818 -1.1121  0.5481 -1.1649
11977TIP3   OH257421   5.260   3.204   0.152  0.5533  0.0964  0.5785
11977TIP3    H157422   5.216   3.285   0.177  0.6136  0.1072  0.6506
11977TIP3    H257423   5.329   3.193   0.217  0.2787 -0.2348  0.8214
11978TIP3   OH257424   4.882   2.248   1.279 -0.1185  0.0397 -0.0679
11978TIP3    H157425   4.896   2.276   1.369 -0.5315  1.0515 -0.3091
11978TIP3    H257426   4.810   2.303   1.247 -3.0629 -3.1933  0.3594
11979TIP3   OH257427   2.335   4.942  15.951  0.1415  0.5021  0.6092
11979TIP3    H157428   2.348   4.873  16.016  0.4268 -0.5109 -0.4621
11979TIP3    H257429   2.241   4.944  15.936  0.1508  0.2016  0.5057
11980TIP3   OH257430   5.483   4.370  16.465 -0.1029 -0.3139  0.2025
11980TIP3    H157431   5.510   4.303  16.528  1.3709  1.1582  1.2280
11980TIP3    H257432   5.403   4.407  16.502  2.0672  2.2892  2.7544
11981TIP3   OH257433   4.224   1.502   5.023  0.4308  0.0525  0.0373
11981TIP3    H157434   4.223   1.581   5.077  0.0371  0.3899 -0.4497
11981TIP3    H257435   4.133   1.472   5.024  0.6129 -0.4981  0.3632
11982TIP3   OH257436   2.694   0.758  16.648 -0.3520 -0.1263  0.3063
11982TIP3    H157437   2.688   0.662  16.641  2.5182 -0.3732  0.1030
11982TIP3    H257438   2.759   0.783  16.583 -2.5672  2.2948 -1.1489
11983TIP3   OH257439   3.093   3.641   1.580 -0.2863  0.0743 -0.0776
11983TIP3    H157440   3.035   3.582   1.629 -2.3964  3.1537  1.4583
11983TIP3    H257441   3.085   3.725   1.624  1.2441  1.9876 -3.0935
11984TIP3   OH257442   3.526   0.012   0.564  0.9636 -0.4687 -0.4266
11984TIP3    H157443   3.442   0.041   0.599  0.5625  0.1300 -1.8178
11984TIP3    H257444   3.524   0.038   0.472  2.3081 -1.2590 -0.7060
11985TIP3   OH257445   4.115   0.541   2.792  0.3970 -1.0915 -0.0015
11985TIP3    H157446   4.206   0.570   2.787  0.8097 -2.3988 -0.6074
11985TIP3    H257447   4.106   0.475   2.723 -1.6988  0.6786 -1.5720
11986TIP3   OH257448   0.318   5.848  11.889  0.4258  0.0198 -0.1407
11986TIP3    H157449   0.357   5.910  11.827 -1.4033  0.1797 -1.2178
11986TIP3    H257450   0.278   5.780  11.834 -0.7555 -0.1423  0.8529
11987TIP3   OH257451   1.295   0.955  13.177 -0.4520  0.3550  0.1345
11987TIP3    H157452   1.312   0.877  13.125  1.0396 -0.2104  1.3916
11987TIP3    H257453   1.223   0.930  13.236  0.0700 -0.1169  0.5815
11988TIP3   OH257454   5.529   3.149   3.392 -0.3548  0.3840  0.0031
11988TIP3    H157455   5.541   3.167   3.485  1.6105 -2.2400  0.3813
11988TIP3    H257456   5.591   3.206   3.348  0.4562 -0.0784  0.5278
11989TIP3   OH257457   3.371   5.348   6.246 -0.3572 -0.3657  0.1288
11989TIP3    H157458   3.424   5.294   6.304 -0.1614 -1.4696 -1.0394
11989TIP3    H257459   3.282   5.313   6.254 -0.1882 -1.0680 -0.8070
11990TIP3   OH257460   5.449   6.488  11.121  0.0790  0.6182 -0.2668
11990TIP3    H157461   5.498   6.443  11.053  1.7051  0.0694  1.1852
11990TIP3    H257462   5.503   6.565  11.142 -1.1439  1.6008 -0.5998
11991TIP3   OH257463   6.576   6.601  13.416  1.0450  0.3932 -0.3382
11991TIP3    H157464   6.611   6.625  13.502 -0.5930  1.7949  0.0009
11991TIP3    H257465   6.639   6.636  13.353  1.3250  1.0067  0.2739
11992TIP3   OH257466   3.316   5.367   1.728 -0.5189 -0.2246  0.0464
11992TIP3    H157467   3.260   5.330   1.660  0.8190 -2.6822  0.1745
11992TIP3    H257468   3.266   5.355   1.809 -1.8830  2.2172 -0.3674
11993TIP3   OH257469   3.948   4.322  13.977  0.5439  0.5651  0.0141
11993TIP3    H157470   3.977   4.234  14.000 -1.8367  0.0681  1.4869
11993TIP3    H257471   3.933   4.318  13.882 -0.0439 -0.8140  0.1390
11994TIP3   OH257472   2.043   0.204  11.827 -0.0743 -0.1690  0.0190
11994TIP3    H157473   2.125   0.232  11.868 -0.3904  1.6486 -0.4816
11994TIP3    H257474   1.991   0.170  11.899 -0.1419  1.8081  0.9657
11995TIP3   OH257475   3.182   0.447   5.217  0.4599 -0.2325  0.4059
11995TIP3    H157476   3.124   0.390   5.167  0.6238 -1.6940  1.8155
11995TIP3    H257477   3.186   0.408   5.304  3.2924 -0.0313  0.4645
11996TIP3   OH257478   1.520   5.379   4.175 -0.2137 -0.1368 -0.7900
11996TIP3    H157479   1.592   5.442   4.178  0.3707 -0.8054 -0.7058
11996TIP3    H257480   1.441   5.433   4.177  0.2828  0.6235 -1.3536
11997TIP3   OH257481   2.227   0.997  15.289 -0.3289 -0.1702 -0.8943
11997TIP3    H157482   2.253   0.973  15.200 -0.5062  0.1326 -1.0295
11997TIP3    H257483   2.185   1.082  15.280 -0.6981 -0.3140 -0.5725
11998TIP3   OH257484   1.379   5.913  13.986 -0.4370  0.3077  0.0146
11998TIP3    H157485   1.393   6.008  13.994 -0.2018  0.3089 -0.3542
11998TIP3    H257486   1.284   5.902  13.993 -0.3085  0.3076  2.5604
11999TIP3   OH257487   0.159   0.329  16.520  0.4047 -0.3911 -0.0592
11999TIP3    H157488   0.233   0.282  16.481  1.1905  0.3810  0.4617
11999TIP3    H257489   0.146   0.405  16.464 -1.3338 -1.5335 -1.3191
12000TIP3   OH257490   0.996   0.009  13.808 -0.2041  0.3695 -0.5009
12000TIP3    H157491   1.044   0.090  13.792  0.5229  0.1942  0.6639
12000TIP3    H257492   0.998  -0.002  13.903 -1.8426 -0.0887 -0.4860
12001TIP3   OH257493   4.162   5.898   3.863  0.0440  0.1353  0.2133
12001TIP3    H157494   4.254   5.924   3.869  0.3783 -0.9737  0.1814
12001TIP3    H257495   4.147   5.884   3.769 -0.3302  0.8730  0.1562
12002TIP3   OH257496   2.521   3.174  12.579 -0.2489 -0.0635 -0.0532
12002TIP3    H157497   2.525   3.213  12.666  1.2291  0.8208 -0.4839
12002TIP3    H257498   2.610   3.141  12.564 -0.6667 -0.8156 -0.9608
12003TIP3   OH257499   3.446   0.300   1.161  0.3038  0.1093 -0.1710
12003TIP3    H157500   3.515   0.305   1.227 -0.6751  2.2210  0.8045
12003TIP3    H257501   3.412   0.211   1.168  2.1126 -0.5921  0.1472
12004TIP3   OH257502   0.662   5.614  15.162 -0.5976 -0.0470  0.6618
12004TIP3    H157503   0.756   5.634  15.164 -0.1802 -1.8350  0.8673
12004TIP3    H257504   0.657   5.535  15.108 -2.0599  0.3068  0.2550
12005TIP3   OH257505   1.458   0.314   1.718 -0.1031 -0.1568  0.7121
12005TIP3    H157506   1.433   0.225   1.741 -0.8392  0.1270  1.0158
12005TIP3    H257507   1.396   0.340   1.650  0.1292  0.1150  0.6002
12006TIP3   OH257508   5.896   0.291   0.671 -0.1351 -0.0465  0.0695
12006TIP3    H157509   5.927   0.228   0.735 -1.8296 -0.8378  0.1633
12006TIP3    H257510   5.805   0.266   0.654 -0.2591  1.1905 -1.3510
12007TIP3   OH257511   6.597   2.240  12.716  0.5644 -0.3385  0.5840
12007TIP3    H157512   6.503   2.251  12.724  0.4738 -0.6764  0.0578
12007TIP3    H257513   6.613   2.240  12.621  0.9448 -1.3988  0.6359
12008TIP3   OH257514   5.101   5.902  13.328  0.4373  0.3662  0.6276
12008TIP3    H157515   5.111   5.845  13.405 -0.7177 -2.7140 -1.2913
12008TIP3    H257516   5.186   5.899  13.285 -0.1587 -1.9494 -0.6064
12009TIP3   OH257517   6.773   3.116  13.048 -0.2046 -0.7654  0.0209
12009TIP3    H157518   6.760   3.201  13.006 -0.4090  0.9561  3.2792
12009TIP3    H257519   6.868   3.104  13.051 -0.1461 -0.2926  0.1543
12010TIP3   OH257520   2.495   4.922  17.267 -0.0466  0.1489 -0.0502
12010TIP3    H157521   2.489   4.843  17.213  0.3670 -0.3612  0.6464
12010TIP3    H257522   2.417   4.920  17.321 -0.3640  0.5622 -0.4835
12011TIP3   OH257523   5.792   4.950   0.907  0.4935  0.2809  0.5031
12011TIP3    H157524   5.857   4.985   0.968 -0.1204  1.4576  0.4942
12011TIP3    H257525   5.820   4.859   0.892  1.7624  0.5731  0.9992
12012TIP3   OH257526   5.654   2.293  14.780  0.4059  0.5646  0.0117
12012TIP3    H157527   5.697   2.210  14.801 -1.4639 -0.6328 -0.6187
12012TIP3    H257528   5.706   2.330  14.708  0.8314 -0.4438 -0.2132
12013TIP3   OH257529   6.206   5.291   4.035 -0.3157 -0.2912 -0.8615
12013TIP3    H157530   6.189   5.317   3.945 -2.7340 -0.2591 -0.4646
12013TIP3    H257531   6.164   5.205   4.044  0.4420 -0.5848  0.0772
12014TIP3   OH257532   3.256   5.999  13.276 -0.3097  0.1519  0.4646
12014TIP3    H157533   3.240   6.064  13.207 -0.2417  0.5498  0.8230
12014TIP3    H257534   3.348   5.975  13.264 -0.4390 -0.1763  0.0838
12015TIP3   OH257535   1.400   5.553  12.953 -0.3397 -0.0534 -0.3158
12015TIP3    H157536   1.305   5.558  12.949 -0.3219 -0.0704 -0.8687
12015TIP3    H257537   1.417   5.477  13.008 -0.6485 -0.1301 -0.3230
12016TIP3   OH257538   0.273   0.811  10.788  0.0329 -0.3702  0.0049
12016TIP3    H157539   0.242   0.725  10.762  1.8422 -1.5765  1.6185
12016TIP3    H257540   0.327   0.840  10.714 -0.5443 -0.5983 -0.5207
12017TIP3   OH257541   4.865   6.602  15.634 -0.1193  0.2666 -0.2533
12017TIP3    H157542   4.894   6.585  15.544 -1.2896 -0.5336 -0.5127
12017TIP3    H257543   4.798   6.534  15.650  0.8642 -0.3208  1.6161
12018TIP3   OH257544   0.140   0.239   5.786 -0.2220  0.1247 -0.5281
12018TIP3    H157545   0.104   0.239   5.697 -0.5736  0.3551 -0.3873
12018TIP3    H257546   0.063   0.230   5.843  0.1418 -2.2061 -0.3032
12019TIP3   OH257547   4.377   4.703  16.604 -0.9676  0.1728 -0.2069
12019TIP3    H157548   4.365   4.712  16.509  2.1797 -1.3188 -0.8659
12019TIP3    H257549   4.345   4.615  16.623  0.1094 -0.2474 -0.2757
12020TIP3   OH257550   4.498   0.225   0.067 -0.5979  0.2262  0.0817
12020TIP3    H157551   4.484   0.190   0.155 -1.6062  0.6494  0.1030
12020TIP3    H257552   4.431   0.293   0.057  0.3410  1.0910 -0.5274
12021TIP3   OH257553   0.138   6.731   0.929  0.5244  0.0502  0.1058
12021TIP3    H157554   0.200   6.799   0.902 -0.0097  0.5129  0.0133
12021TIP3    H257555   0.075   6.777   0.984 -0.8167  0.0110 -1.3071
12022TIP3   OH257556   1.187   6.368   1.743 -0.0429  0.1846  0.0086
12022TIP3    H157557   1.128   6.323   1.804  1.0289 -0.8285  0.3334
12022TIP3    H257558   1.145   6.360   1.658 -1.2951  1.1358  0.5070
12023TIP3   OH257559   1.442   5.342   2.703  0.1049 -0.0059 -0.4266
12023TIP3    H157560   1.355   5.305   2.713  0.6327 -0.8474  1.3417
12023TIP3    H257561   1.431   5.435   2.722 -0.4493 -0.0548 -0.4899
12024TIP3   OH257562   1.938   6.021  11.316 -0.9377  0.9071 -0.2465
12024TIP3    H157563   1.982   5.951  11.268 -0.0438  0.5489  1.0618
12024TIP3    H257564   1.845   5.999  11.309 -0.6452 -0.8315  0.7460
12025TIP3   OH257565   2.640   1.836   5.509 -0.0138 -0.1918 -0.0664
12025TIP3    H157566   2.566   1.791   5.468 -0.5646 -0.2651  0.9902
12025TIP3    H257567   2.657   1.910   5.451  0.3378 -1.2204 -1.3554
12026TIP3   OH257568   6.403   4.522  15.362  0.1250  0.0333 -0.0176
12026TIP3    H157569   6.461   4.488  15.430  0.7397 -0.0326 -0.5728
12026TIP3    H257570   6.392   4.449  15.301  2.0016  0.9794 -1.5856
12027TIP3   OH257571   2.911   6.084  14.019 -0.2617  0.3684  0.3406
12027TIP3    H157572   2.924   6.178  14.012 -0.8148  0.4526  0.3438
12027TIP3    H257573   2.987   6.052  14.069  0.4088  0.6679 -0.4790
12028TIP3   OH257574   2.388   2.372  10.893 -0.0084  0.0523  0.2597
12028TIP3    H157575   2.405   2.387  10.800 -1.0419  0.0561  0.0603
12028TIP3    H257576   2.452   2.426  10.938 -0.0549  0.7136 -0.4484
12029TIP3   OH257577   5.114   0.808  13.146 -0.3173  0.5244  0.7480
12029TIP3    H157578   5.058   0.862  13.203 -1.8605  2.8597 -2.6509
12029TIP3    H257579   5.194   0.859  13.135 -0.5490  0.7029 -0.1471
12030TIP3   OH257580   3.715   6.201  11.258  0.6509  0.2175 -0.1451
12030TIP3    H157581   3.747   6.266  11.196  0.7634  1.7337  1.4164
12030TIP3    H257582   3.655   6.249  11.315  1.4383 -0.7715  1.6409
12031TIP3   OH257583   3.584   2.590   0.890  0.0368  0.0676 -0.1980
12031TIP3    H157584   3.660   2.580   0.947 -0.6218  0.3010  0.7376
12031TIP3    H257585   3.566   2.684   0.890 -0.3097  0.0038 -0.3430
12032TIP3   OH257586   0.103   3.357  14.772 -0.2422  0.3982  0.0565
12032TIP3    H157587   0.168   3.425  14.753  0.2725 -0.2111 -0.4264
12032TIP3    H257588   0.026   3.405  14.804  0.5397  1.1059  0.9198
12033TIP3   OH257589   6.183   0.468   1.126  0.2975  0.3065 -0.6317
12033TIP3    H157590   6.211   0.538   1.184 -0.5930  0.6568 -0.6134
12033TIP3    H257591   6.128   0.511   1.061 -0.8577 -0.4710 -0.1966
12034TIP3   OH257592   2.768   5.539   2.565 -0.4102  0.2122 -0.0449
12034TIP3    H157593   2.674   5.520   2.557 -0.4691  0.8212 -1.0177
12034TIP3    H257594   2.776   5.583   2.650 -1.0416  0.3443 -0.0484
12035TIP3   OH257595   5.062   0.361   3.510  0.3586  0.1877 -0.3858
12035TIP3    H157596   4.979   0.335   3.470  0.9307  1.0351 -2.2907
12035TIP3    H257597   5.043   0.443   3.555  0.4607  1.3774 -2.3696
12036TIP3   OH257598   3.727   0.208   2.132  0.5544 -0.1012 -0.6293
12036TIP3    H157599   3.718   0.275   2.064  0.2868  1.0012  0.4628
12036TIP3    H257600   3.744   0.127   2.083  0.1301  0.6099 -2.0140
12037TIP3   OH257601   5.496   0.738   3.552 -0.8286 -0.0249 -0.0625
12037TIP3    H157602   5.496   0.690   3.469 -0.6287 -1.3337  0.6618
12037TIP3    H257603   5.410   0.722   3.589 -0.2111 -1.2578  0.9456
12038TIP3   OH257604   0.814   4.926  16.049  0.0363 -0.1035 -0.3279
12038TIP3    H157605   0.748   4.912  16.117 -1.2157 -0.6602 -1.6291
12038TIP3    H257606   0.794   5.013  16.013 -0.4057 -0.5545 -1.1775
12039TIP3   OH257607   6.820   3.587  12.022  0.6061 -0.5705  0.2173
12039TIP3    H157608   6.730   3.568  12.048  1.0416 -2.2970  0.6174
12039TIP3    H257609   6.857   3.634  12.097  0.0759  0.0784  0.0800
12040TIP3   OH257610   4.314   2.945   6.255  0.7912  0.6308 -0.5719
12040TIP3    H157611   4.334   3.038   6.244  0.2710  0.8897  0.5167
12040TIP3    H257612   4.398   2.901   6.247  0.9918  1.1544 -1.4421
12041TIP3   OH257613   2.125   2.678   2.785 -0.2669 -0.5876 -0.0762
12041TIP3    H157614   2.080   2.652   2.704  0.8795  0.0825 -0.9466
12041TIP3    H257615   2.174   2.600   2.811 -0.9266 -0.9238  0.2008
12042TIP3   OH257616   0.790   2.951   0.948  0.2983 -0.3855  0.1149
12042TIP3    H157617   0.731   2.896   0.896 -0.6273  0.3668  0.3560
12042TIP3    H257618   0.827   3.013   0.885  0.9848 -0.9606 -0.0676
12043TIP3   OH257619   4.641   1.733   5.131 -0.0970 -0.6377 -0.0487
12043TIP3    H157620   4.600   1.647   5.131  0.2254 -0.7927  0.2166
12043TIP3    H257621   4.595   1.782   5.063 -0.9180 -0.7146  0.4474
12044TIP3   OH257622   5.547   3.312   2.205 -0.2064  0.2413 -0.4317
12044TIP3    H157623   5.638   3.283   2.213 -0.5949 -0.7891  0.5076
12044TIP3    H257624   5.537   3.333   2.112  1.5868  2.5189 -0.2049
12045TIP3   OH257625   2.668   1.597  11.412  0.3621  0.5009 -0.1090
12045TIP3    H157626   2.574   1.589  11.429  0.9434 -0.9789  3.1625
12045TIP3    H257627   2.678   1.686  11.378 -2.1609  0.7901 -0.3149
12046TIP3   OH257628   5.084   5.335   3.251 -0.0084 -0.5595  0.3354
12046TIP3    H157629   5.166   5.359   3.294 -0.6351  1.6064  0.4141
12046TIP3    H257630   5.097   5.358   3.159 -0.6300  0.0655  0.4016
12047TIP3   OH257631   4.026   3.032   5.076  0.2243 -0.5164 -0.3110
12047TIP3    H157632   4.005   3.063   5.164  1.3719  0.2306 -0.2750
12047TIP3    H257633   3.950   3.055   5.023 -0.4466 -0.9041  0.4648
12048TIP3   OH257634   3.481   0.602   2.742 -0.3637  0.1396  0.3570
12048TIP3    H157635   3.506   0.511   2.728 -0.7477 -0.3065  2.2399
12048TIP3    H257636   3.554   0.640   2.791 -0.4245  0.7163  0.0119
12049TIP3   OH257637   5.623   4.110  13.728 -0.5517 -0.5610 -0.5252
12049TIP3    H157638   5.702   4.161  13.746 -0.0515 -0.5828 -2.4166
12049TIP3    H257639   5.576   4.161  13.661 -2.0934 -0.6168  0.4582
12050TIP3   OH257640   6.367   0.196   4.418 -0.6359  0.4475  0.1279
12050TIP3    H157641   6.289   0.250   4.429 -2.0918 -1.7291  1.1619
12050TIP3    H257642   6.340   0.127   4.358  0.4409 -0.4719  0.6685
12051TIP3   OH257643   5.812   6.591   0.195 -0.7488  0.1566  0.0391
12051TIP3    H157644   5.760   6.613   0.272  0.6900  0.1277  1.0557
12051TIP3    H257645   5.852   6.507   0.215  0.8159  0.8320 -0.0809
12052TIP3   OH257646   1.859   2.583   5.577 -0.6758 -0.2254 -0.0019
12052TIP3    H157647   1.795   2.556   5.643 -0.7053  0.3285  0.1997
12052TIP3    H257648   1.818   2.560   5.493  0.6770 -3.9307  0.1790
12053TIP3   OH257649   4.455   2.364   4.253  0.3374  0.1816  0.0429
12053TIP3    H157650   4.461   2.453   4.287  0.3587 -0.1420  0.9306
12053TIP3    H257651   4.520   2.360   4.183  1.0461  0.5808  0.6637
12054TIP3   OH257652   4.680   1.868   2.132  0.1120  0.8818 -0.2637
12054TIP3    H157653   4.720   1.890   2.216  0.7491 -0.8512 -0.0823
12054TIP3    H257654   4.733   1.916   2.067  0.7447  0.7901  0.1823
12055TIP3   OH257655   2.816   6.257   1.225 -0.4770 -0.1898 -0.0120
12055TIP3    H157656   2.845   6.241   1.136  0.0180  0.3143  0.0590
12055TIP3    H257657   2.827   6.172   1.269 -1.8891 -0.7899 -0.7230
12056TIP3   OH257658   5.538   3.475   0.790  0.1032  0.1099 -0.2862
12056TIP3    H157659   5.523   3.407   0.855 -0.6872 -1.3940 -1.9516
12056TIP3    H257660   5.569   3.428   0.713  3.0641  2.0325 -0.4228
12057TIP3   OH257661   4.364   0.463  15.166  0.7405 -0.0735 -0.6937
12057TIP3    H157662   4.411   0.547  15.162  1.1987 -0.2777  0.1713
12057TIP3    H257663   4.403   0.417  15.240  0.9841 -1.3547 -1.5831
12058TIP3   OH257664   6.083   4.136   1.576 -0.2269  0.2754  0.2676
12058TIP3    H157665   6.119   4.066   1.631 -1.7765  0.7099  1.9343
12058TIP3    H257666   6.147   4.146   1.506  0.1731 -2.6372  0.0900
12059TIP3   OH257667   6.142   1.467   3.305  0.0053 -0.5398  0.2480
12059TIP3    H157668   6.175   1.537   3.249 -2.0359  2.0192  2.0240
12059TIP3    H257669   6.067   1.431   3.258 -0.9836  0.7997  0.7600
12060TIP3   OH257670   6.019   0.678   4.855  0.3807 -0.6225 -0.1410
12060TIP3    H157671   5.975   0.602   4.816 -1.2101  0.7780 -1.1919
12060TIP3    H257672   6.023   0.657   4.949 -2.4807 -0.8901  0.0094
12061TIP3   OH257673   3.535   6.211   3.525 -0.6390 -0.3873  0.4775
12061TIP3    H157674   3.481   6.153   3.472 -1.0890  0.8455 -0.4441
12061TIP3    H257675   3.501   6.201   3.614 -1.9764 -0.1283  0.0208
12062TIP3   OH257676   2.853   6.573  13.345 -0.2138 -0.3552 -0.2750
12062TIP3    H157677   2.857   6.656  13.297  0.0449 -0.1538  0.0885
12062TIP3    H257678   2.800   6.515  13.290 -0.7578  0.1872 -0.3373
12063TIP3   OH257679   2.019   2.638   6.145 -0.0077  0.0136 -0.1292
12063TIP3    H157680   2.023   2.636   6.241 -1.8994 -0.4842 -0.0061
12063TIP3    H257681   2.108   2.658   6.117  0.9581 -1.4666  1.6832
12064TIP3   OH257682   4.379   4.531   4.529 -0.1740  0.0516 -0.3606
12064TIP3    H157683   4.438   4.603   4.508  0.3382  0.7985  3.1528
12064TIP3    H257684   4.431   4.452   4.514  0.4615  0.5446 -0.7893
12065TIP3   OH257685   6.123   3.939  11.891  0.0893  0.7085  0.5943
12065TIP3    H157686   6.213   3.905  11.895  0.2382  1.1188  0.9747
12065TIP3    H257687   6.130   4.026  11.932 -0.3482  1.0314 -0.0056
12066TIP3   OH257688   2.077   2.365   5.517 -0.0092  0.1283  0.3907
12066TIP3    H157689   2.089   2.301   5.446 -0.4979 -0.7222  1.0547
12066TIP3    H257690   2.020   2.431   5.478 -0.2007 -0.2820 -0.0530
12067TIP3   OH257691   5.019   5.003   2.072 -0.8383  0.1882  0.1512
12067TIP3    H157692   5.049   5.016   2.162 -1.8921 -0.2716  0.5797
12067TIP3    H257693   5.087   5.045   2.018 -1.1909  2.3013  1.2299
12068TIP3   OH257694   4.541   1.488  11.721  0.6042 -0.3811  0.5779
12068TIP3    H157695   4.470   1.511  11.661 -0.0468  0.5477  1.6737
12068TIP3    H257696   4.508   1.511  11.808  2.4646  0.6382  1.0645
12069TIP3   OH257697   0.058   4.835  12.806 -0.0563 -0.3457 -1.0598
12069TIP3    H157698   0.145   4.837  12.767 -0.1657 -0.9385 -1.3367
12069TIP3    H257699   0.018   4.918  12.780  0.2050 -0.3370 -1.4351
12070TIP3   OH257700   2.220   4.774  14.016 -0.1819 -0.1299 -0.0075
12070TIP3    H157701   2.140   4.799  14.064  0.3291  0.7366  0.4183
12070TIP3    H257702   2.197   4.789  13.924 -1.0374 -1.4273 -0.0317
12071TIP3   OH257703   1.786   2.396  17.254  0.0261  0.2033  0.7185
12071TIP3    H157704   1.746   2.420  17.171 -0.4494  0.5207  1.0329
12071TIP3    H257705   1.716   2.407  17.318  0.5089  0.3980  1.2227
12072TIP3   OH257706   3.591   4.874   0.856 -0.4498  0.1765  0.4098
12072TIP3    H157707   3.580   4.965   0.829  0.9092  0.3499  0.3603
12072TIP3    H257708   3.573   4.874   0.949 -1.8614  0.2110  0.1574
12073TIP3   OH257709   5.261   1.273   1.741  0.0127 -0.4352 -0.3025
12073TIP3    H157710   5.338   1.232   1.701 -0.3050 -1.8529  0.4789
12073TIP3    H257711   5.232   1.211   1.807  0.2710  1.6262  1.9007
12074TIP3   OH257712   2.612   6.152  11.811  0.0542  0.6641 -0.4347
12074TIP3    H157713   2.578   6.101  11.737 -0.4305  1.0332 -0.4706
12074TIP3    H257714   2.697   6.112  11.831 -1.0296 -1.2424  0.6191
12075TIP3   OH257715   3.800   6.164  15.956 -0.0807 -0.6541 -0.3445
12075TIP3    H157716   3.870   6.124  16.008  0.3662 -1.3657 -1.4581
12075TIP3    H257717   3.846   6.214  15.888 -0.6291  1.5918  0.8385
12076TIP3   OH257718   3.672   2.371   2.317  0.5491 -0.0730 -0.4915
12076TIP3    H157719   3.756   2.343   2.352  0.1243 -1.2370 -0.3840
12076TIP3    H257720   3.640   2.436   2.379  1.8576  1.2246 -1.1041
12077TIP3   OH257721   3.434   1.064   6.102  0.3143 -0.1305 -0.0038
12077TIP3    H157722   3.522   1.101   6.107 -0.0627  0.6331  1.6579
12077TIP3    H257723   3.441   0.995   6.035  2.3537 -0.6183  0.6302
12078TIP3   OH257724   4.754   1.917   6.434  0.3781  0.2750  0.3353
12078TIP3    H157725   4.765   1.822   6.435  2.5964  0.4768  1.0141
12078TIP3    H257726   4.838   1.951   6.466 -0.8495  2.4327  1.4901
12079TIP3   OH257727   0.892   6.641   2.968  0.3206 -0.0780  0.6933
12079TIP3    H157728   0.841   6.563   2.947 -0.0206 -0.0495  1.3855
12079TIP3    H257729   0.869   6.704   2.900 -0.7283 -0.0025  1.0842
12080TIP3   OH257730   0.528   1.928  13.183 -0.2686 -0.2504  0.1353
12080TIP3    H157731   0.599   1.912  13.120 -1.3164 -0.7676 -0.9603
12080TIP3    H257732   0.481   2.003  13.147  0.9241  1.4703  1.9776
12081TIP3   OH257733   4.481   6.540   1.382  0.0163  0.9914  0.2045
12081TIP3    H157734   4.494   6.564   1.290  0.6502  0.5304  0.1750
12081TIP3    H257735   4.568   6.516   1.414 -0.1146  1.6419  1.0717
12082TIP3   OH257736   5.346   0.536  11.431 -0.3061  0.3723  0.3751
12082TIP3    H157737   5.354   0.446  11.399 -2.8375 -0.4104  1.7374
12082TIP3    H257738   5.338   0.589  11.351  1.1471 -0.5612 -0.4453
12083TIP3   OH257739   0.344   6.798   5.952 -0.1079  0.2655 -0.0121
12083TIP3    H157740   0.384   6.879   5.921  0.0640 -0.4194 -1.6996
12083TIP3    H257741   0.265   6.826   5.998  0.9232  1.4776  1.1097
12084TIP3   OH257742   1.419   4.567  13.032 -0.0280  0.3195  0.0437
12084TIP3    H157743   1.403   4.478  13.063 -0.5233  0.4283  0.1138
12084TIP3    H257744   1.343   4.587  12.977  0.4809  0.4005 -0.6360
12085TIP3   OH257745   1.042   1.589  15.674 -0.0035  0.1258  0.3609
12085TIP3    H157746   0.986   1.662  15.648 -0.6862 -0.0424  1.2737
12085TIP3    H257747   1.087   1.562  15.594  0.9185  2.0841  0.1575
12086TIP3   OH257748   0.011   0.858   5.015 -0.1713 -0.5934 -0.6677
12086TIP3    H157749   0.000   0.861   4.920  1.1150  1.4065 -0.7942
12086TIP3    H257750   0.104   0.874   5.030 -0.8015  2.3687  0.9721
12087TIP3   OH257751   2.784   1.287  12.540 -0.4594  0.8551 -0.3441
12087TIP3    H157752   2.795   1.193  12.530 -0.8104  0.5265  1.8032
12087TIP3    H257753   2.734   1.296  12.622  0.6310  2.9394  0.1485
12088TIP3   OH257754   0.928   0.875  16.226 -0.5292 -0.2965  0.3868
12088TIP3    H157755   0.961   0.792  16.190 -0.4542 -0.2441  0.3347
12088TIP3    H257756   0.919   0.933  16.151  0.7711  0.2057  0.5886
12089TIP3   OH257757   6.368   6.407  15.602  0.1661  0.3929 -0.1253
12089TIP3    H157758   6.301   6.412  15.534 -1.6221  2.5294  1.6373
12089TIP3    H257759   6.342   6.333  15.657  0.6759 -0.2986 -0.7970
12090TIP3   OH257760   1.560   0.782   5.477  0.3813 -0.5171  0.3943
12090TIP3    H157761   1.564   0.688   5.497  4.1746 -0.5662  0.3041
12090TIP3    H257762   1.590   0.824   5.558  1.2003  0.3758 -0.3422
12091TIP3   OH257763   1.584   3.613  12.362 -0.2295  0.2296  0.2653
12091TIP3    H157764   1.600   3.522  12.386 -1.5005  0.1979  1.0641
12091TIP3    H257765   1.508   3.610  12.304 -0.2635  0.7740  0.2745
12092TIP3   OH257766   0.924   4.493  15.748 -0.1399  0.5130  0.1347
12092TIP3    H157767   0.861   4.529  15.686 -2.3252 -0.1734  1.8215
12092TIP3    H257768   0.899   4.531  15.832  0.1247 -1.6015  1.2570
12093TIP3   OH257769   0.181   1.617  14.341  0.0033 -0.4142  0.4473
12093TIP3    H157770   0.102   1.671  14.350 -0.6057 -0.3637 -3.3365
12093TIP3    H257771   0.183   1.595  14.248  2.9699 -2.8036  0.9540
12094TIP3   OH257772   0.545   1.362  11.578  1.0529 -0.6362  0.0489
12094TIP3    H157773   0.587   1.429  11.524  2.0442 -1.5519 -0.3647
12094TIP3    H257774   0.587   1.371  11.663  0.7681 -0.3622  0.1634
12095TIP3   OH257775   2.056   2.769  12.102  0.3907 -0.2306  0.2713
12095TIP3    H157776   2.141   2.781  12.144  0.5005 -0.0367 -0.0122
12095TIP3    H257777   2.068   2.800  12.013  0.2396 -0.9406  0.0009
12096TIP3   OH257778   0.462   1.222  11.055 -0.2562  0.0214 -0.3455
12096TIP3    H157779   0.470   1.153  10.989  0.1070  1.5016 -1.9229
12096TIP3    H257780   0.372   1.215  11.087 -0.5512 -0.5171 -1.2582
12097TIP3   OH257781   3.695   5.729   2.593  0.1254  0.3244  0.1642
12097TIP3    H157782   3.635   5.792   2.552 -0.4409 -0.1656  0.2423
12097TIP3    H257783   3.782   5.760   2.567 -0.0672  1.8980  1.2554
12098TIP3   OH257784   5.556   5.066   5.763 -0.8386 -0.0145  0.3408
12098TIP3    H157785   5.624   5.102   5.707 -0.6197 -0.7136  0.1415
12098TIP3    H257786   5.508   5.005   5.707 -0.5258 -0.8304  0.9401
12099TIP3   OH257787   6.200   0.578  16.527 -0.5467 -0.2052 -0.0589
12099TIP3    H157788   6.141   0.621  16.588 -1.1689 -0.2926 -0.5837
12099TIP3    H257789   6.255   0.521  16.581 -0.2451  0.6460  0.5470
12100TIP3   OH257790   5.844   1.031  12.952 -0.4071 -0.4991 -0.0967
12100TIP3    H157791   5.893   1.110  12.974  0.1749 -0.4030 -1.6285
12100TIP3    H257792   5.858   0.973  13.027 -0.8486  0.8202  1.0609
12101TIP3   OH257793   4.707   3.554  17.021 -0.4883  0.4917 -0.5102
12101TIP3    H157794   4.743   3.592  16.940  1.1081 -0.9595 -0.5305
12101TIP3    H257795   4.612   3.565  17.011 -0.4397 -0.6811 -3.1521
12102TIP3   OH257796   3.646   4.342   1.510  0.0392  0.1759  0.1389
12102TIP3    H157797   3.668   4.270   1.569  0.9044 -0.1384 -0.5312
12102TIP3    H257798   3.726   4.354   1.457 -0.8448  0.1358 -1.2492
12103TIP3   OH257799   6.522   2.600  15.676  0.5495  0.6326 -0.2287
12103TIP3    H157800   6.472   2.597  15.758  0.5609 -2.2022 -0.2214
12103TIP3    H257801   6.494   2.681  15.634 -2.2687  0.3664  0.8820
12104TIP3   OH257802   0.138   1.959   5.657  0.2410 -0.1124 -0.6469
12104TIP3    H157803   0.055   2.007   5.667 -0.2279 -1.0710  0.2266
12104TIP3    H257804   0.201   2.010   5.709 -0.3913 -0.7294  0.7851
12105TIP3   OH257805   6.428   6.034   1.384 -0.4315  0.6482  0.3282
12105TIP3    H157806   6.364   6.097   1.351  1.2228  2.1275 -0.1602
12105TIP3    H257807   6.449   6.065   1.472 -0.0724  0.4005  0.3328
12106TIP3   OH257808   0.484   3.730   2.824 -0.1807  0.9839  0.1933
12106TIP3    H157809   0.437   3.800   2.780  0.2627  1.0239 -0.2274
12106TIP3    H257810   0.557   3.774   2.869  0.0873  0.8007 -0.0564
12107TIP3   OH257811   3.254   0.327   3.333 -0.2493  0.3277 -0.0498
12107TIP3    H157812   3.178   0.295   3.382  0.7297 -2.9289 -0.4221
12107TIP3    H257813   3.222   0.405   3.287 -2.8378  0.0637  1.1248
12108TIP3   OH257814   0.445   6.506   1.433 -0.3274  0.4233  0.1217
12108TIP3    H157815   0.428   6.487   1.525  1.8196 -0.4166  0.4027
12108TIP3    H257816   0.364   6.546   1.401 -1.8728 -1.1416  1.8390
12109TIP3   OH257817   1.744   5.768  15.096  0.2822  0.1145 -0.1010
12109TIP3    H157818   1.656   5.765  15.058  0.4288  1.0880 -0.5390
12109TIP3    H257819   1.777   5.679  15.087 -0.7528 -0.3328  0.3030
12110TIP3   OH257820   2.051   5.738  13.691 -0.5320 -0.3982  0.5358
12110TIP3    H157821   1.999   5.792  13.632 -0.7316 -0.5988  0.5286
12110TIP3    H257822   1.995   5.722  13.766  0.5386  1.8673  1.9204
12111TIP3   OH257823   5.845   2.190   1.091  0.4201  0.1780 -0.1381
12111TIP3    H157824   5.890   2.145   1.019 -1.1656  0.8850 -1.6418
12111TIP3    H257825   5.880   2.280   1.087  2.9856 -0.5605  2.3461
12112TIP3   OH257826   2.159   2.095   2.594 -0.0430  0.7119 -0.3481
12112TIP3    H157827   2.106   2.029   2.548  0.4029  0.5313 -0.6150
12112TIP3    H257828   2.164   2.168   2.532  0.7796  0.3647 -0.7164
12113TIP3   OH257829   2.752   3.234   0.598 -0.0039 -0.4622  0.1125
12113TIP3    H157830   2.804   3.237   0.679 -1.0011  1.2054  0.7500
12113TIP3    H257831   2.815   3.253   0.529  0.2916  1.6909  0.8866
12114TIP3   OH257832   5.542   6.808   1.659 -0.7392  0.6680 -0.3226
12114TIP3    H157833   5.558   6.800   1.753 -1.6335 -0.6670 -0.2569
12114TIP3    H257834   5.592   6.736   1.620 -1.4136  0.4183 -0.7368
12115TIP3   OH257835   1.251   6.132  12.723 -0.1796 -0.1825 -0.0877
12115TIP3    H157836   1.261   6.053  12.777 -0.8415  0.2314  0.6638
12115TIP3    H257837   1.316   6.193  12.758 -0.3738 -0.0327  0.0102
12116TIP3   OH257838   4.235   2.741  13.797  0.0873  0.7414 -0.1160
12116TIP3    H157839   4.287   2.694  13.863  0.7064  1.4632 -0.0685
12116TIP3    H257840   4.289   2.740  13.718 -0.5239  0.1383 -0.5342
12117TIP3   OH257841   1.192   3.770   2.226  0.7323 -0.3538  0.0177
12117TIP3    H157842   1.104   3.808   2.227  0.9706  0.2559 -1.0005
12117TIP3    H257843   1.251   3.845   2.228  1.2150 -0.4576 -3.5792
12118TIP3   OH257844   2.754   3.268   5.518  0.1199 -0.6328  0.1947
12118TIP3    H157845   2.827   3.206   5.521  0.8089  0.1788  1.4048
12118TIP3    H257846   2.773   3.324   5.443  0.5223 -0.7119  0.2321
12119TIP3   OH257847   0.533   6.253   6.585  0.2345 -0.3455 -0.0803
12119TIP3    H157848   0.578   6.321   6.535 -0.9135 -0.5369 -1.4337
12119TIP3    H257849   0.441   6.279   6.585  0.0170 -1.0680  0.7603
12120TIP3   OH257850   5.707   0.333   5.447 -0.0359  0.3281 -0.1019
12120TIP3    H157851   5.718   0.263   5.511 -1.6859 -0.8793 -1.0638
12120TIP3    H257852   5.721   0.414   5.497  2.0987 -0.6356  0.9863
12121TIP3   OH257853   1.979   4.011  16.831 -0.2899 -0.5165  0.0482
12121TIP3    H157854   1.920   3.940  16.855  0.0820 -1.4552 -1.7229
12121TIP3    H257855   1.940   4.051  16.753  0.8786 -0.5000 -0.5502
12122TIP3   OH257856   1.973   2.058   2.136  0.3818 -0.1267 -0.3086
12122TIP3    H157857   1.949   2.004   2.061 -1.5691  0.9420 -0.5345
12122TIP3    H257858   2.032   2.124   2.100 -0.4798  0.3308 -0.9061
12123TIP3   OH257859   4.067   6.467  11.221 -0.1088  0.5136  0.5156
12123TIP3    H157860   4.110   6.484  11.138  0.3825 -0.1173  0.6349
12123TIP3    H257861   3.973   6.470  11.201  0.0094 -0.3012 -0.2083
12124TIP3   OH257862   1.952   1.532   3.635 -0.2000 -0.3621 -0.8058
12124TIP3    H157863   2.036   1.486   3.626  1.1747  1.7974  0.1947
12124TIP3    H257864   1.890   1.477   3.588  1.5569 -2.5853 -0.7029
12125TIP3   OH257865   1.978   4.799  11.623 -0.5131  0.1552 -0.1505
12125TIP3    H157866   2.053   4.859  11.626 -0.7377  0.4430 -0.2367
12125TIP3    H257867   1.938   4.815  11.538  0.3311 -1.2442 -0.8412
12126TIP3   OH257868   0.849   5.384   3.185  0.6314  0.0724  0.2353
12126TIP3    H157869   0.861   5.402   3.092  0.8977 -2.8532 -0.3934
12126TIP3    H257870   0.771   5.433   3.210 -0.4055 -0.3690 -1.9488
12127TIP3   OH257871   1.052   0.735   2.793  0.0768 -0.2587  0.3780
12127TIP3    H157872   0.961   0.727   2.823  0.0179  0.7523  0.4887
12127TIP3    H257873   1.082   0.819   2.827  0.4623  0.2824 -1.2014
12128TIP3   OH257874   2.233   5.598   0.023 -0.6503  0.4217 -0.0587
12128TIP3    H157875   2.276   5.539   0.084  0.9573  2.6012  1.0639
12128TIP3    H257876   2.302   5.627  -0.036 -1.4110  1.1263 -0.6293
12129TIP3   OH257877   2.261   6.571   3.922  0.2980  0.5446 -0.2624
12129TIP3    H157878   2.197   6.508   3.954  0.3400  0.0262 -1.1640
12129TIP3    H257879   2.253   6.567   3.827  1.4135  0.7267 -0.3808
12130TIP3   OH257880   0.716   5.298  12.256 -0.0148 -0.2120 -0.4862
12130TIP3    H157881   0.642   5.300  12.196 -0.2903  0.8791 -0.1457
12130TIP3    H257882   0.707   5.379  12.307 -0.3472 -1.5679  1.6977
12131TIP3   OH257883   6.141   1.193  17.108 -0.2436 -1.1610 -0.4775
12131TIP3    H157884   6.054   1.163  17.136 -0.3547  0.7262  1.4496
12131TIP3    H257885   6.202   1.151  17.169  0.0048 -0.8432 -0.5032
12132TIP3   OH257886   6.263   5.168   1.112  0.0334 -0.1417  0.4471
12132TIP3    H157887   6.247   5.229   1.185  2.8979  1.9895 -0.5441
12132TIP3    H257888   6.238   5.217   1.034 -1.1101 -1.6877 -0.2275
12133TIP3   OH257889   0.448   0.177   4.512  0.2340  0.3430  0.1899
12133TIP3    H157890   0.488   0.142   4.432  2.0019  1.2146  0.6224
12133TIP3    H257891   0.522   0.190   4.571 -0.9335  0.5481  1.6538
12134TIP3   OH257892   3.584   2.976  15.752  0.8967 -0.4471  0.0320
12134TIP3    H157893   3.633   3.054  15.722  1.2040 -0.2584  0.9928
12134TIP3    H257894   3.611   2.965  15.843 -1.2707 -0.0079  0.7900
12135TIP3   OH257895   5.718   6.211  12.009  0.0026 -0.5414  0.4278
12135TIP3    H157896   5.801   6.232  12.051  0.5614 -1.6495 -0.0965
12135TIP3    H257897   5.665   6.172  12.079  0.2778 -0.7319  0.5292
12136TIP3   OH257898   1.552   4.084  12.255  0.6165  0.1234  0.6675
12136TIP3    H157899   1.519   4.148  12.193  0.0691  1.0934  1.9125
12136TIP3    H257900   1.474   4.051  12.301  0.8924 -1.3900  0.1144
12137TIP3   OH257901   4.704   2.586   5.378  0.0774 -0.7543 -0.2676
12137TIP3    H157902   4.786   2.634   5.385  0.0824 -0.6420 -1.0125
12137TIP3    H257903   4.728   2.494   5.388 -0.1046 -0.5893  2.6334
12138TIP3   OH257904   4.283   0.585  16.875 -0.6974  0.4023 -0.1517
12138TIP3    H157905   4.217   0.635  16.922 -0.8980  1.2602 -1.2998
12138TIP3    H257906   4.236   0.507  16.843 -0.9414  0.5865 -0.2433
12139TIP3   OH257907   0.333   5.039  16.228 -0.1170 -0.3539  0.3260
12139TIP3    H157908   0.399   5.002  16.170  0.1048  0.1450  0.2577
12139TIP3    H257909   0.306   4.966  16.283  0.8002 -0.4634  0.6442
12140TIP3   OH257910   6.062   1.263  15.196  0.8391  1.0137  0.4617
12140TIP3    H157911   6.026   1.344  15.231 -3.0135 -0.0296 -0.5576
12140TIP3    H257912   6.114   1.290  15.121 -0.9794  2.5539 -0.3174
12141TIP3   OH257913   5.382   6.469  16.300  0.2828  0.3710  0.4355
12141TIP3    H157914   5.333   6.419  16.366  2.3573 -3.1195 -0.3838
12141TIP3    H257915   5.402   6.552  16.343 -2.9838  0.4426  2.1258
12142TIP3   OH257916   4.473   3.156  12.967  0.6141  0.2817  0.1319
12142TIP3    H157917   4.461   3.126  12.877 -2.5718 -0.3326  0.6523
12142TIP3    H257918   4.456   3.250  12.964 -0.3105  0.1242  0.1884
12143TIP3   OH257919   1.919   2.934   5.578  0.1021 -0.2424  0.3989
12143TIP3    H157920   1.905   2.863   5.641  0.2979  1.5227  2.5781
12143TIP3    H257921   2.010   2.923   5.550  0.2212 -0.7044  0.9351
12144TIP3   OH257922   3.044   4.542  12.028  0.3849 -0.0180  0.0798
12144TIP3    H157923   3.075   4.481  12.094 -0.3627 -0.0630  0.4025
12144TIP3    H257924   3.025   4.622  12.076  2.1533  0.7625 -0.4721
12145TIP3   OH257925   2.399   2.841  16.201 -0.0783 -0.3242 -0.0462
12145TIP3    H157926   2.438   2.816  16.117 -0.2414  0.8228 -0.4888
12145TIP3    H257927   2.343   2.768  16.225  1.1722 -1.3480 -0.1559
12146TIP3   OH257928   3.311   3.075   1.228 -0.5484 -0.5811  0.1009
12146TIP3    H157929   3.248   3.142   1.254 -0.2239  0.2821 -1.2335
12146TIP3    H257930   3.258   2.998   1.209 -0.9975 -0.4997  0.9956
12147TIP3   OH257931   3.052   2.972   3.490  0.0573  0.4022 -0.4265
12147TIP3    H157932   3.139   2.966   3.527 -1.2700  0.3861  2.9989
12147TIP3    H257933   3.019   2.883   3.491 -1.0843  0.7930  1.3791
12148TIP3   OH257934   4.711   3.198  12.247  0.1360  0.7680  0.2218
12148TIP3    H157935   4.675   3.208  12.159  1.8755  0.0058 -0.6177
12148TIP3    H257936   4.776   3.268  12.255  0.3228  0.5422  0.7061
12149TIP3   OH257937   4.736   4.852   5.458  0.0235  0.0351 -0.3754
12149TIP3    H157938   4.710   4.816   5.374 -1.0369  1.9566 -0.9315
12149TIP3    H257939   4.663   4.908   5.484  0.6476  0.0596  1.4786
12150TIP3   OH257940   3.352   2.569  12.221  0.2700 -0.2455 -0.3077
12150TIP3    H157941   3.333   2.532  12.308 -0.1793  2.0090  0.6187
12150TIP3    H257942   3.415   2.508  12.183 -1.0658 -2.4111  0.7365
12151TIP3   OH257943   5.761   0.359  14.767  0.0274 -0.6152 -0.2151
12151TIP3    H157944   5.740   0.327  14.679  0.1002  0.5136 -0.6562
12151TIP3    H257945   5.802   0.444  14.753  2.4767 -1.5325  0.7591
12152TIP3   OH257946   0.849   6.702  15.054 -0.1511  0.4962  0.5446
12152TIP3    H157947   0.891   6.780  15.091  1.5254 -0.2126  0.2498
12152TIP3    H257948   0.918   6.635  15.056 -1.1228 -0.5779 -0.5074
12153TIP3   OH257949   4.030   6.119   2.920  0.4298 -0.5987  0.0095
12153TIP3    H157950   4.010   6.184   2.987 -1.1898  0.1443 -1.1082
12153TIP3    H257951   3.956   6.057   2.923  0.1735 -0.3868 -1.2335
12154TIP3   OH257952   3.299   2.888  16.068 -0.2630 -0.5581  0.2651
12154TIP3    H157953   3.329   2.926  16.151 -0.4020 -0.5409  0.3077
12154TIP3    H257954   3.337   2.944  16.001  0.7772 -1.2222  0.2790
12155TIP3   OH257955   6.532   1.143  11.144  0.2201  0.5594  0.5420
12155TIP3    H157956   6.616   1.186  11.157  1.6701 -1.8402 -0.1702
12155TIP3    H257957   6.512   1.156  11.051  0.7829 -0.4281  0.2677
12156TIP3   OH257958   6.077   4.590   4.212  0.3129  0.0883 -0.6348
12156TIP3    H157959   6.149   4.541   4.251 -0.2238 -0.8418 -0.7654
12156TIP3    H257960   6.118   4.667   4.173  1.1227 -0.0283 -0.0373
12157TIP3   OH257961   6.222   3.958   1.779  0.4515  0.2427  0.5368
12157TIP3    H157962   6.308   3.965   1.736  0.6603  0.3922  0.9695
12157TIP3    H257963   6.212   3.864   1.795 -0.4775 -0.0671 -1.5094
12158TIP3   OH257964   0.110   6.015  14.045 -0.3692 -0.2733  0.4905
12158TIP3    H157965   0.124   6.104  14.077 -0.9047 -0.2829  0.7647
12158TIP3    H257966   0.182   5.999  13.984 -1.6214  1.2869 -1.5350
12159TIP3   OH257967   0.046   0.131  16.121 -0.1857  0.0262  0.0726
12159TIP3    H157968  -0.008   0.149  16.198 -0.0852 -0.2290  0.2033
12159TIP3    H257969   0.099   0.210  16.110 -0.4960  0.2272  0.0177
12160TIP3   OH257970   2.125   3.071  13.839  0.4918 -0.1956  0.2088
12160TIP3    H157971   2.042   3.110  13.866  1.6360  1.5874  1.3472
12160TIP3    H257972   2.142   3.004  13.905  0.9505  0.8873  1.2223
12161TIP3   OH257973   5.891   2.819   3.078  0.3822 -0.6409 -0.5944
12161TIP3    H157974   5.939   2.856   3.004 -0.3886 -0.0326 -0.8082
12161TIP3    H257975   5.954   2.819   3.150  0.3374  1.5057 -0.4665
12162TIP3   OH257976   3.612   5.270  15.568 -0.4801  0.1454 -0.2629
12162TIP3    H157977   3.658   5.292  15.487 -0.0888  0.6671  0.0939
12162TIP3    H257978   3.616   5.350  15.620 -0.9855 -0.0963  0.1559
12163TIP3   OH257979   4.258   1.568   5.437 -0.6897 -0.6126  0.1219
12163TIP3    H157980   4.202   1.559   5.514 -0.2943 -1.1548  0.3499
12163TIP3    H257981   4.312   1.489   5.436  1.7330  0.9193  1.2574
12164TIP3   OH257982   5.518   4.138   0.016 -0.2535  0.1656  0.3774
12164TIP3    H157983   5.465   4.208  -0.022  0.4789  0.2906 -0.4419
12164TIP3    H257984   5.544   4.085  -0.059  1.9198  0.8877  0.5472
12165TIP3   OH257985   3.488   0.398   0.582 -0.1904  0.1444  0.2500
12165TIP3    H157986   3.482   0.463   0.652 -0.3051  0.9478 -0.4942
12165TIP3    H257987   3.424   0.331   0.606 -0.4435  0.5625  0.7597
12166TIP3   OH257988   4.380   4.638   0.492 -0.5964  0.3630 -0.1296
12166TIP3    H157989   4.358   4.612   0.582 -0.6712  0.2682 -0.1748
12166TIP3    H257990   4.345   4.567   0.438  0.2058 -0.0071 -0.1744
12167TIP3   OH257991   0.577   2.432   6.315 -0.1689  0.0424  0.1003
12167TIP3    H157992   0.626   2.505   6.278  0.6333 -0.8859 -0.7054
12167TIP3    H257993   0.504   2.473   6.361  0.0636  1.3286 -0.6475
12168TIP3   OH257994   4.866   4.365  11.892 -0.2890  0.1735 -0.1728
12168TIP3    H157995   4.821   4.308  11.830  0.3797 -0.8982  0.3030
12168TIP3    H257996   4.845   4.330  11.978 -1.0082  1.5064  0.2247
12169TIP3   OH257997   2.749   0.461   1.090  0.3968  0.2215  0.2415
12169TIP3    H157998   2.730   0.533   1.150 -0.9491 -0.1706  0.3099
12169TIP3    H257999   2.825   0.491   1.040  0.0828  1.5261  0.5219
12170TIP3   OH258000   3.614   1.587   1.386 -0.7036 -0.7138 -0.1903
12170TIP3    H158001   3.687   1.569   1.328 -0.3861 -2.5620  0.7085
12170TIP3    H258002   3.652   1.637   1.458 -0.5520 -0.7916 -0.2168
12171TIP3   OH258003   5.947   4.959  12.263 -0.2480 -0.1655 -1.5305
12171TIP3    H158004   5.964   5.006  12.345  0.9094  1.0341 -2.4145
12171TIP3    H258005   6.034   4.931  12.234 -0.4090  1.0191 -3.2583
12172TIP3   OH258006   4.776   6.685  11.388  0.5764 -0.2190 -0.4001
12172TIP3    H158007   4.804   6.770  11.421  0.6929 -0.6572  0.6943
12172TIP3    H258008   4.856   6.645  11.353  1.0059 -0.7382  1.0783
12173TIP3   OH258009   0.226   4.604   2.540  0.0895  0.2667 -0.3631
12173TIP3    H158010   0.277   4.672   2.583 -1.9323  0.7657  1.4149
12173TIP3    H258011   0.141   4.644   2.524 -0.7567 -1.4414 -0.4034
12174TIP3   OH258012   1.492   0.797   4.296  0.0696 -0.3653 -0.1528
12174TIP3    H158013   1.544   0.865   4.339  0.2441 -0.4820 -0.1777
12174TIP3    H258014   1.405   0.836   4.286 -0.4321 -0.8954  1.7452
12175TIP3   OH258015   4.091   1.169   4.163 -0.5179  0.7161  0.6660
12175TIP3    H158016   4.096   1.122   4.080 -0.6694  1.0565  0.4599
12175TIP3    H258017   4.025   1.122   4.214 -1.2724  1.1932  0.1415
12176TIP3   OH258018   5.742   2.562   1.692  0.5234  0.4629 -0.4827
12176TIP3    H158019   5.744   2.532   1.783 -0.6927  0.8583 -0.3056
12176TIP3    H258020   5.833   2.587   1.672  0.9280 -0.2946  0.3888
12177TIP3   OH258021   4.860   2.067   5.431 -0.2206  0.0865  0.3553
12177TIP3    H158022   4.927   2.102   5.372  0.3843 -0.9633  0.3789
12177TIP3    H258023   4.809   2.007   5.376 -1.7440  1.5337  0.1086
12178TIP3   OH258024   0.697   3.098  15.148  0.3225 -0.0037 -0.2688
12178TIP3    H158025   0.659   3.075  15.063 -2.1113  0.5308  0.5697
12178TIP3    H258026   0.722   3.190  15.139 -1.2239  0.4708 -0.0527
12179TIP3   OH258027   4.640   4.457  11.503 -0.3215  0.0184 -0.0694
12179TIP3    H158028   4.585   4.486  11.430 -4.4864 -1.4350  2.1488
12179TIP3    H258029   4.626   4.523  11.571 -0.0782 -0.8672  0.8675
12180TIP3   OH258030   3.343   4.072   2.895  0.4644  0.4925 -0.1123
12180TIP3    H158031   3.437   4.090   2.890  0.5171  0.1150 -0.5576
12180TIP3    H258032   3.334   3.983   2.863  0.0387  0.2411  0.6681
12181TIP3   OH258033   1.444   5.382  13.159  0.4418 -0.0407 -0.1739
12181TIP3    H158034   1.451   5.286  13.156  2.0834  0.0723 -0.5958
12181TIP3    H258035   1.398   5.399  13.241  0.7658 -1.1663  0.2750
12182TIP3   OH258036   4.747   3.373  14.054  0.2499  0.7725 -0.8040
12182TIP3    H158037   4.666   3.343  14.012  0.0248  0.5084 -0.2013
12182TIP3    H258038   4.812   3.375  13.984 -0.2177  0.7404 -1.2425
12183TIP3   OH258039   1.696   1.556   3.452  0.4747 -0.9110 -0.3088
12183TIP3    H158040   1.747   1.483   3.416  1.2136 -0.9041  0.6928
12183TIP3    H258041   1.628   1.514   3.504  1.2054 -0.9053  0.6821
12184TIP3   OH258042   5.524   4.030   5.812  0.0672 -0.8693 -0.4393
12184TIP3    H158043   5.438   4.039   5.769  0.1753 -3.2691 -1.2885
12184TIP3    H258044   5.519   3.945   5.856  1.4335 -0.2652  0.9257
12185TIP3   OH258045   4.102   2.417   2.697  0.6562 -0.0132  0.3646
12185TIP3    H158046   4.083   2.502   2.737 -0.5646 -0.3647  0.5623
12185TIP3    H258047   4.067   2.423   2.609  1.3821 -0.0147  0.0626
12186TIP3   OH258048   4.438   4.131  11.756  0.3551  0.2534  0.0419
12186TIP3    H158049   4.416   4.224  11.757 -2.5992 -0.3411  0.2924
12186TIP3    H258050   4.353   4.087  11.753  1.6064 -2.4699  1.3440
12187TIP3   OH258051   2.970   5.109  15.828 -0.6055  0.0887 -0.7052
12187TIP3    H158052   2.942   5.133  15.916  0.4632  0.1204 -0.3483
12187TIP3    H258053   2.942   5.018  15.817 -1.1683  0.2424 -0.5183
12188TIP3   OH258054   5.408   1.736   3.862  0.2183 -0.1464 -0.1212
12188TIP3    H158055   5.317   1.735   3.890 -0.3108 -0.0926 -1.7671
12188TIP3    H258056   5.405   1.751   3.768  1.9030 -0.6904 -0.3070
12189TIP3   OH258057   6.529   4.080   4.721 -0.0319 -0.0544  0.6695
12189TIP3    H158058   6.498   4.025   4.649 -0.5012 -0.8708  1.4712
12189TIP3    H258059   6.590   4.141   4.680  0.0330 -0.7743 -0.3503
12190TIP3   OH258060   0.621   3.843   2.167 -0.3854  0.1244  0.1947
12190TIP3    H158061   0.574   3.912   2.214  1.6247  0.6896  1.5013
12190TIP3    H258062   0.570   3.763   2.185 -2.3598  1.0798 -0.7691
12191TIP3   OH258063   1.152   6.732  11.645  0.9086  0.5794  0.2953
12191TIP3    H158064   1.136   6.682  11.565  2.4988  1.5873 -0.6985
12191TIP3    H258065   1.239   6.705  11.674 -0.4473 -1.4807  3.0771
12192TIP3   OH258066   3.475   5.750  14.921 -0.1753  0.1023 -1.0930
12192TIP3    H158067   3.568   5.730  14.912 -0.3507 -2.0373  0.9239
12192TIP3    H258068   3.455   5.806  14.846  3.0942  2.0612 -0.6886
12193TIP3   OH258069   6.174   6.459   3.080 -0.2244  0.2051  0.4160
12193TIP3    H158070   6.126   6.494   3.155 -1.8205  1.5286 -1.1176
12193TIP3    H258071   6.106   6.447   3.013  1.2405 -0.3190 -1.0259
12194TIP3   OH258072   2.602   2.306   5.646 -0.1732  0.0097 -0.6110
12194TIP3    H158073   2.542   2.254   5.593  0.9638 -1.4578 -0.5422
12194TIP3    H258074   2.560   2.311   5.732  0.1796 -1.8214 -0.2834
12195TIP3   OH258075   5.880   0.163  14.926 -0.4166 -0.4643 -0.1578
12195TIP3    H158076   5.832   0.223  14.870  0.7880  0.1583 -0.5694
12195TIP3    H258077   5.971   0.193  14.920 -0.2161 -0.5193  1.9483
12196TIP3   OH258078   6.300   4.896  14.414 -0.0283  0.3252 -0.5227
12196TIP3    H158079   6.326   4.938  14.332 -1.4283  1.1296 -0.5990
12196TIP3    H258080   6.323   4.960  14.482  1.0086 -0.2834 -0.2879
12197TIP3   OH258081   1.074   6.199  10.574 -0.0381 -0.6095 -0.3125
12197TIP3    H158082   1.050   6.270  10.514 -0.8291 -0.3124  0.3366
12197TIP3    H258083   1.089   6.124  10.517  2.7069  0.4901 -1.2218
12198TIP3   OH258084   5.660   1.499  12.358 -0.2088  0.2071  0.9631
12198TIP3    H158085   5.645   1.454  12.441 -2.0837  1.0467  1.1157
12198TIP3    H258086   5.613   1.581  12.366 -1.7603 -0.3386 -1.4848
12199TIP3   OH258087   3.931   1.876  11.365  0.0233  0.1307  0.1753
12199TIP3    H158088   3.839   1.878  11.392  0.5713  0.7086  2.1568
12199TIP3    H258089   3.947   1.962  11.326 -0.4207 -0.2130 -0.8058
12200TIP3   OH258090   6.740   5.785   6.361  0.7902 -0.1368  0.2588
12200TIP3    H158091   6.724   5.850   6.292  1.8680 -0.3117 -0.1821
12200TIP3    H258092   6.832   5.797   6.384  0.7465 -0.8761  0.8415
12201TIP3   OH258093   5.305   0.003  11.756  0.2997 -0.7078 -0.1912
12201TIP3    H158094   5.255   0.069  11.708  0.6575 -0.3385 -0.0619
12201TIP3    H258095   5.244  -0.069  11.769 -0.0610 -0.4475 -0.4306
12202TIP3   OH258096   2.204   1.633  11.693 -0.1662 -0.2832  0.4585
12202TIP3    H158097   2.296   1.622  11.718 -0.0359  0.8485  0.5471
12202TIP3    H258098   2.188   1.565  11.629 -0.0548 -2.2753  2.4247
12203TIP3   OH258099   2.280   3.655  16.491  0.4627 -0.0999  0.5435
12203TIP3    H158100   2.320   3.611  16.416  1.4066  0.9984  0.3644
12203TIP3    H258101   2.318   3.613  16.567  1.3447  0.3719  0.3748
12204TIP3   OH258102   2.792   3.025  13.338  0.6781 -0.3371 -0.1023
12204TIP3    H158103   2.845   3.104  13.328  1.9978 -1.0999  0.5794
12204TIP3    H258104   2.846   2.955  13.303 -0.2921 -1.0201 -0.2891
12205TIP3   OH258105   4.048   3.385  15.751  0.1861  0.0016 -0.0022
12205TIP3    H158106   4.107   3.426  15.688  1.5946 -2.4450 -0.3816
12205TIP3    H258107   4.058   3.291  15.736 -4.3176 -0.6097 -0.5281
12206TIP3   OH258108   3.882   0.763   5.719 -0.0755  0.4628  0.4511
12206TIP3    H158109   3.936   0.740   5.795  2.4035  1.2381 -0.9733
12206TIP3    H258110   3.893   0.857   5.709  2.3067  0.0253 -2.6415
12207TIP3   OH258111   4.105   2.202  13.054  0.7466 -0.7153 -0.1340
12207TIP3    H158112   4.199   2.194  13.071  0.7396 -2.2207 -0.6514
12207TIP3    H258113   4.081   2.119  13.014 -0.5367  0.2054 -1.3638
12208TIP3   OH258114   0.097   3.894   5.624  0.0122  0.6995  0.2142
12208TIP3    H158115   0.143   3.953   5.683  1.0051  0.6768 -0.5052
12208TIP3    H258116   0.125   3.921   5.536  0.3341 -0.6967 -0.1380
12209TIP3   OH258117   0.793   0.519   4.411  0.9879 -0.0047  0.7589
12209TIP3    H158118   0.838   0.601   4.435 -2.5243  1.6311  2.3523
12209TIP3    H258119   0.751   0.539   4.327 -1.8106  0.8257  2.2324
12210TIP3   OH258120   5.777   6.798   5.421  0.4517 -0.0163  0.4659
12210TIP3    H158121   5.787   6.844   5.504  0.6276  0.4388  0.1921
12210TIP3    H258122   5.730   6.717   5.444 -0.9619  0.8616  0.7495
12211TIP3   OH258123   4.825   4.080   4.666  0.7434 -0.8223 -0.4022
12211TIP3    H158124   4.819   4.014   4.596 -0.2886 -0.2687 -0.8602
12211TIP3    H258125   4.756   4.055   4.728  1.6063 -1.2684  0.4042
12212TIP3   OH258126   5.549   2.060  14.564 -0.6306 -0.5213  0.3790
12212TIP3    H158127   5.536   2.007  14.485 -1.0119 -1.0160  0.7638
12212TIP3    H258128   5.510   2.145  14.543 -0.0839 -0.4139 -0.2164
12213TIP3   OH258129   5.025   3.028   4.022  0.5958  0.0715  0.1229
12213TIP3    H158130   4.954   2.965   4.030  1.4190 -0.8532  0.2822
12213TIP3    H258131   5.090   2.985   3.967 -0.1066  1.9627 -2.3419
12214TIP3   OH258132   3.902   6.395   2.505  0.0197 -0.2977  0.6185
12214TIP3    H158133   3.896   6.362   2.594  1.7182  1.3370  1.4143
12214TIP3    H258134   3.850   6.334   2.453 -1.5906 -0.9094  2.8080
12215TIP3   OH258135   1.823   5.001   4.317 -0.5076  0.0650  0.4651
12215TIP3    H158136   1.885   5.056   4.269  2.6565 -0.4623  3.4835
12215TIP3    H258137   1.758   5.061   4.351  0.1917  1.1939 -0.1246
12216TIP3   OH258138   0.957   3.376  15.814 -0.0651  0.5595  0.0978
12216TIP3    H158139   0.920   3.292  15.842 -1.0326  1.0905  0.4765
12216TIP3    H258140   1.003   3.409  15.891 -0.3967  0.7562  0.2137
12217TIP3   OH258141   0.751   1.849   4.414 -0.3324 -0.1309  0.2947
12217TIP3    H158142   0.672   1.843   4.361 -1.1448  1.6637  1.2184
12217TIP3    H258143   0.822   1.859   4.351 -1.1379  0.6644 -0.5152
12218TIP3   OH258144   1.008   1.813   4.798 -0.1950  0.4138  0.3700
12218TIP3    H158145   0.995   1.892   4.851 -1.8757 -0.0829  0.7766
12218TIP3    H258146   1.046   1.750   4.859 -0.9705  0.2278  0.6783
12219TIP3   OH258147   1.132   6.042   0.925  0.9305  0.2847  0.5420
12219TIP3    H158148   1.080   6.087   0.992 -0.3983  0.2629 -0.4242
12219TIP3    H258149   1.067   6.015   0.859  2.0287 -0.7991 -0.1395
12220TIP3   OH258150   2.395   1.075  11.081  0.3074  0.2464  0.5304
12220TIP3    H158151   2.404   1.034  11.167  0.2636 -0.1318  0.3522
12220TIP3    H258152   2.408   1.004  11.019  0.3558  0.5240  0.2218
12221TIP3   OH258153   2.003   1.503  12.622 -0.2112  0.5470  0.0525
12221TIP3    H158154   1.928   1.561  12.611 -0.8990 -0.5884 -1.6900
12221TIP3    H258155   1.967   1.415  12.612  1.4005 -0.0224 -1.2956
12222TIP3   OH258156   3.687   6.150  11.921 -0.2887  0.2491 -0.0221
12222TIP3    H158157   3.662   6.222  11.978 -0.4304 -0.1115  0.3731
12222TIP3    H258158   3.606   6.100  11.908 -0.1301 -0.0016 -0.0604
12223TIP3   OH258159   4.418   2.020  15.524  0.4933 -0.1820 -0.3954
12223TIP3    H158160   4.359   2.088  15.493  0.5236  0.5626  1.1336
12223TIP3    H258161   4.381   1.939  15.489 -0.5219  0.4369 -0.7948
12224TIP3   OH258162   6.564   2.585  10.627  0.1573 -0.0900 -0.3099
12224TIP3    H158163   6.544   2.679  10.632  2.2525  0.4280 -0.7225
12224TIP3    H258164   6.497   2.544  10.680 -0.5543  1.6901  0.2557
12225TIP3   OH258165   1.854   4.579  14.654  0.2229  0.4431 -0.0292
12225TIP3    H158166   1.836   4.485  14.657 -0.0984  0.4887 -0.4062
12225TIP3    H258167   1.916   4.594  14.725  1.2612 -0.2725 -0.7563
12226TIP3   OH258168   1.253   1.384   4.460 -0.5584  0.2770 -0.0019
12226TIP3    H158169   1.338   1.358   4.496 -0.3302 -1.0145 -1.3925
12226TIP3    H258170   1.239   1.472   4.494  0.4717 -0.1683  1.7353
12227TIP3   OH258171   0.310   0.404   2.456 -0.5624 -0.6992  0.3282
12227TIP3    H158172   0.275   0.408   2.545 -0.8066  3.9613  0.2610
12227TIP3    H258173   0.233   0.414   2.400 -0.0141  1.3099 -0.1332
12228TIP3   OH258174   3.073   5.114   5.744  0.3421  0.1032  0.1359
12228TIP3    H158175   3.083   5.074   5.831 -1.2565 -1.9251 -0.5246
12228TIP3    H258176   3.078   5.208   5.761  3.1187 -0.2327  1.9578
12229TIP3   OH258177   5.607   0.773   1.411  0.2142 -0.1983 -0.8977
12229TIP3    H158178   5.563   0.760   1.495  2.2018 -0.2040  0.2102
12229TIP3    H258179   5.544   0.819   1.357 -0.9619  0.1939  0.7553
12230TIP3   OH258180   1.709   0.695  13.565  0.0706 -0.1263 -0.1310
12230TIP3    H158181   1.731   0.694  13.472 -0.2930 -1.0733 -0.2138
12230TIP3    H258182   1.715   0.788  13.590  1.2233  0.0136 -0.8359
12231TIP3   OH258183   1.769   2.602   2.581 -0.0453 -0.4458 -0.5851
12231TIP3    H158184   1.706   2.653   2.529 -0.4696 -2.0776 -1.7540
12231TIP3    H258185   1.715   2.540   2.629  0.3336  1.1081  2.0177
12232TIP3   OH258186   2.712   2.512  14.523  0.0040  0.2196  0.3929
12232TIP3    H158187   2.741   2.528  14.613  2.2846 -0.0490 -0.2378
12232TIP3    H258188   2.786   2.540  14.469 -0.9670 -0.4811 -1.3690
12233TIP3   OH258189   2.282   2.087   6.107  0.2610  0.2633 -0.2841
12233TIP3    H158190   2.285   2.181   6.119 -1.3735  0.1472  1.4207
12233TIP3    H258191   2.209   2.057   6.162  0.8484 -2.0117 -0.6176
12234TIP3   OH258192   5.331   4.854   3.404 -0.1468  0.0339 -0.0883
12234TIP3    H158193   5.304   4.764   3.422 -0.0924  0.5507  2.9579
12234TIP3    H258194   5.420   4.860   3.437  0.7649  0.6570 -2.4101
12235TIP3   OH258195   2.541   3.337   6.765  0.1491 -0.1412  0.0053
12235TIP3    H158196   2.588   3.291   6.696  0.6474 -1.0729  0.9380
12235TIP3    H258197   2.596   3.328   6.843 -0.3242  1.0145  0.5102
12236TIP3   OH258198   4.343   5.561  11.555  0.3997  0.4159 -0.3299
12236TIP3    H158199   4.265   5.566  11.499  1.4711  0.7872 -1.8338
12236TIP3    H258200   4.375   5.472  11.542 -0.7499 -0.3725  1.7249
12237TIP3   OH258201   1.390   1.133  12.000 -0.5742 -0.2998 -0.2197
12237TIP3    H158202   1.470   1.171  11.963 -0.7244  0.2931  0.0522
12237TIP3    H258203   1.402   1.140  12.095 -0.2785 -1.6294 -0.1270
12238TIP3   OH258204   5.217   3.467  12.536  0.4863 -0.4188  0.2778
12238TIP3    H158205   5.293   3.471  12.593  0.2795 -0.0653  0.5301
12238TIP3    H258206   5.223   3.545  12.482  2.1682 -2.0677 -2.1070
12239TIP3   OH258207   3.790   5.374  11.339  0.4754 -0.0057 -0.0342
12239TIP3    H158208   3.753   5.462  11.341 -0.7441 -0.4923 -0.1650
12239TIP3    H258209   3.720   5.320  11.302  1.0067 -1.1219  0.5485
12240TIP3   OH258210   2.978   5.741  16.182  0.3649 -0.4792  0.4872
12240TIP3    H158211   2.919   5.815  16.195 -2.2145 -2.0450 -1.4659
12240TIP3    H258212   3.059   5.780  16.149 -1.7866  1.4126 -3.1011
12241TIP3   OH258213   5.952   4.369  15.047  0.0264  0.4479  0.4531
12241TIP3    H158214   5.972   4.411  15.130  0.9642  0.5859  0.1747
12241TIP3    H258215   6.034   4.375  14.997 -0.3557 -0.1278 -0.2625
12242TIP3   OH258216   6.478   2.647  14.927  0.4723  1.0613 -0.1560
12242TIP3    H158217   6.550   2.620  14.869  3.8714  4.0682  2.2417
12242TIP3    H258218   6.418   2.694  14.869  1.5221  0.3356 -1.9248
12243TIP3   OH258219   4.970   2.326  15.331 -0.5726 -0.3395 -0.3230
12243TIP3    H158220   4.955   2.420  15.329 -0.0574 -0.2150  0.9349
12243TIP3    H258221   4.967   2.303  15.424 -0.5283 -1.5395 -0.5998
12244TIP3   OH258222   1.665   1.849   0.208  0.4262 -0.1119  1.1233
12244TIP3    H158223   1.631   1.939   0.208  0.4759 -0.0897  1.9021
12244TIP3    H258224   1.760   1.861   0.214  0.5519 -0.1945 -0.2195
12245TIP3   OH258225   5.861   1.538  13.025  0.1394  0.6466 -0.2266
12245TIP3    H158226   5.850   1.586  13.107  0.5867  2.4823 -1.1789
12245TIP3    H258227   5.774   1.536  12.986  0.2976  1.6127 -0.6522
12246TIP3   OH258228   5.470   0.879  15.808  0.4699  0.0410 -0.2655
12246TIP3    H158229   5.528   0.811  15.845 -0.2154 -0.1543  0.4762
12246TIP3    H258230   5.527   0.928  15.748  1.3409 -0.3100  0.2419
12247TIP3   OH258231   4.177   0.337   2.580 -0.4091 -0.6264 -0.0139
12247TIP3    H158232   4.159   0.374   2.494  0.3398 -0.3996 -0.0824
12247TIP3    H258233   4.256   0.383   2.610 -1.8269  0.8583  1.7237
12248TIP3   OH258234   4.070   6.406   1.410  0.1436 -0.3540  0.2099
12248TIP3    H158235   4.047   6.315   1.428 -2.7967  0.0036 -1.1142
12248TIP3    H258236   4.129   6.401   1.335 -1.6794 -1.1933 -1.2603
12249TIP3   OH258237   2.024   2.394  14.529  0.4338  0.1910  0.0325
12249TIP3    H158238   2.106   2.373  14.485 -0.1828 -0.4259 -0.8691
12249TIP3    H258239   2.038   2.369  14.620  0.7243 -1.4506 -0.4263
12250TIP3   OH258240   2.550   2.168  11.564 -0.4107  0.0072  0.0828
12250TIP3    H158241   2.494   2.111  11.510  0.9127 -0.3792 -0.9414
12250TIP3    H258242   2.608   2.212  11.501  2.8075 -2.2013  1.2209
12251TIP3   OH258243   3.941   0.889  14.983  0.3341 -0.3934  0.2513
12251TIP3    H158244   3.992   0.811  15.005  0.3989 -0.5325 -0.3674
12251TIP3    H258245   3.858   0.878  15.030  0.1812 -1.0422 -0.1574
12252TIP3   OH258246   5.945   4.398   2.520 -0.5958  0.4644 -0.1148
12252TIP3    H158247   5.983   4.443   2.595 -1.7586  0.8260  0.2817
12252TIP3    H258248   5.923   4.468   2.459 -0.0593  0.2061 -0.6096
12253TIP3   OH258249   6.013   2.325   1.676 -0.1799  0.1296 -0.3389
12253TIP3    H158250   6.048   2.374   1.601 -1.0363  0.6547 -0.4069
12253TIP3    H258251   6.011   2.389   1.747  1.0986 -0.4966  0.2865
12254TIP3   OH258252   4.613   4.447   0.879 -0.1273  0.0286 -0.0498
12254TIP3    H158253   4.542   4.384   0.871  0.3550 -0.7569  1.4383
12254TIP3    H258254   4.589   4.501   0.954  0.4303  0.3141 -0.0721
12255TIP3   OH258255   1.719   1.429  16.153 -0.1131 -0.1605  0.0923
12255TIP3    H158256   1.656   1.502  16.156  0.0371  0.0519 -1.1523
12255TIP3    H258257   1.697   1.382  16.072 -1.2257 -2.4740  1.6269
12256TIP3   OH258258   6.794   5.379   3.209  0.3158  0.5584 -0.4810
12256TIP3    H158259   6.823   5.311   3.269 -0.4829 -2.2129 -2.9961
12256TIP3    H258260   6.874   5.415   3.172  0.7605  1.3290  1.1376
12257TIP3   OH258261   0.180   1.455  11.969  0.1605 -0.0478  0.5126
12257TIP3    H158262   0.223   1.478  11.887 -0.7385 -1.7050 -0.4631
12257TIP3    H258263   0.089   1.439  11.945 -0.3307  0.3652  2.0083
12258TIP3   OH258264   1.845   4.204  10.878 -0.4725  0.0732  0.1404
12258TIP3    H158265   1.782   4.229  10.945 -0.2846 -0.3081  0.4722
12258TIP3    H258266   1.927   4.245  10.907 -0.8454  1.7342 -1.0294
12259TIP3   OH258267   0.633   4.434   5.900  0.0386  1.3047  0.3765
12259TIP3    H158268   0.583   4.455   5.978 -0.9414 -1.4070  0.5678
12259TIP3    H258269   0.705   4.378   5.931 -0.8474 -0.5210 -0.6762
12260TIP3   OH258270   5.600   0.152  12.555 -0.5167  0.3376  0.1837
12260TIP3    H158271   5.593   0.084  12.622  1.0775  0.0052  0.0525
12260TIP3    H258272   5.577   0.233  12.600  2.7715  0.4919  1.8780
12261TIP3   OH258273   5.904   3.541   1.962 -0.5576 -0.1299 -0.1066
12261TIP3    H158274   5.855   3.578   2.035  0.2855  0.4289  0.1964
12261TIP3    H258275   5.962   3.476   2.002  0.3726  0.6375 -0.1623
12262TIP3   OH258276   3.235   2.273  15.846  0.5930 -0.5610  0.0856
12262TIP3    H158277   3.281   2.188  15.843  0.0907 -0.8284 -1.8975
12262TIP3    H258278   3.304   2.337  15.828  0.9917 -0.4956  1.6791
12263TIP3   OH258279   3.860   1.465   4.485 -0.3118 -0.7176  0.0738
12263TIP3    H158280   3.928   1.411   4.444 -0.6463 -0.2669 -1.1333
12263TIP3    H258281   3.903   1.502   4.562  1.1913  0.4221 -1.2350
12264TIP3   OH258282   2.502   4.066  11.140  0.0499 -0.1890  0.6404
12264TIP3    H158283   2.548   4.136  11.187 -0.0947 -1.4448  2.7631
12264TIP3    H258284   2.570   4.000  11.123  0.4405  0.8160 -2.3430
12265TIP3   OH258285   5.573   3.805  16.033 -0.2468  0.0207 -0.2562
12265TIP3    H158286   5.588   3.753  15.954 -1.7952  0.4762 -0.8890
12265TIP3    H258287   5.648   3.786  16.089  0.9639 -0.2125 -1.8837
12266TIP3   OH258288   5.368   3.856   2.103 -0.0146  0.2592  0.0081
12266TIP3    H158289   5.290   3.839   2.156  0.6807  0.6116  1.1975
12266TIP3    H258290   5.335   3.895   2.022 -1.0575  0.5639  0.5630
12267TIP3   OH258291   2.286   5.578   1.990  0.1056 -0.0771 -0.0814
12267TIP3    H158292   2.292   5.657   1.937 -1.4364 -1.2043 -2.0950
12267TIP3    H258293   2.265   5.610   2.078  1.8051  1.8059 -0.2871
12268TIP3   OH258294   6.711   5.151   1.508  0.5085 -0.5863 -0.2642
12268TIP3    H158295   6.715   5.160   1.413  0.8472 -1.1888 -0.3110
12268TIP3    H258296   6.783   5.091   1.530  0.8597  0.0832  0.4433
12269TIP3   OH258297   5.960   1.483  13.842 -0.0537  0.1804 -0.3542
12269TIP3    H158298   6.011   1.507  13.919 -1.9715 -0.0053  1.0325
12269TIP3    H258299   5.908   1.407  13.870  1.4279 -1.9139 -2.7904
12270TIP3   OH258300   0.554   0.215  16.141 -0.0505  0.5387  0.3002
12270TIP3    H158301   0.568   0.309  16.131  0.2019  0.4707  0.0072
12270TIP3    H258302   0.631   0.184  16.189 -0.4123  0.5746  0.9144
12271TIP3   OH258303   3.642   2.006  11.210 -0.0817  0.1218  0.2765
12271TIP3    H158304   3.577   1.937  11.195  0.3826 -0.6643  1.5995
12271TIP3    H258305   3.594   2.074  11.258 -0.8868  1.4133 -2.1932
12272TIP3   OH258306   1.944   3.579   4.968 -0.1909 -0.0177 -0.5915
12272TIP3    H158307   1.909   3.532   5.044  0.6197 -1.2285 -0.9560
12272TIP3    H258308   1.998   3.649   5.006 -1.1223  0.4317 -0.0556
12273TIP3   OH258309   4.851   1.054   3.098  0.0409 -0.0384  0.7760
12273TIP3    H158310   4.790   1.096   3.037  1.4517  0.7260 -0.1731
12273TIP3    H258311   4.851   0.962   3.072 -1.8117 -0.3792  1.7833
12274TIP3   OH258312   2.312   4.120  10.935  0.4761 -0.0880 -0.1023
12274TIP3    H158313   2.354   4.097  11.018 -1.4882  0.6946  1.1934
12274TIP3    H258314   2.279   4.037  10.900 -0.9043 -0.1541  1.2436
12275TIP3   OH258315   1.513   2.329   2.520  0.7781 -0.4641  0.4727
12275TIP3    H158316   1.539   2.373   2.601  2.2163  0.8094 -0.6242
12275TIP3    H258317   1.434   2.280   2.543  0.1676  1.2250  2.2190
12276TIP3   OH258318   6.013   5.327   1.236 -0.0684 -0.5276  0.0224
12276TIP3    H158319   6.088   5.299   1.288  0.2424  0.7948  0.3228
12276TIP3    H258320   5.971   5.394   1.289 -0.2083  0.2821 -1.0853
12277TIP3   OH258321   3.880   4.631  15.142  0.0956 -0.0799 -0.0597
12277TIP3    H158322   3.925   4.710  15.110  1.5357 -1.4687 -1.6698
12277TIP3    H258323   3.906   4.562  15.081 -1.5498 -1.7187  0.9788
12278TIP3   OH258324   2.796   6.343   6.956 -0.0530 -0.3229 -0.3940
12278TIP3    H158325   2.806   6.436   6.978  1.2904  0.0200 -2.2002
12278TIP3    H258326   2.862   6.299   7.010 -0.5171 -0.2160  0.2748
12279TIP3   OH258327   2.485   4.075   6.052 -0.0964  0.5018 -0.2788
12279TIP3    H158328   2.463   4.013   5.983  2.0584  0.1738 -0.7476
12279TIP3    H258329   2.581   4.071   6.059 -0.0414  2.3991  0.9714
12280TIP3   OH258330   4.880   2.862  11.073  0.2733  0.4040  0.1726
12280TIP3    H158331   4.896   2.945  11.028  2.1026 -0.4466 -0.8920
12280TIP3    H258332   4.788   2.864  11.097 -0.1469  1.9991 -1.3871
12281TIP3   OH258333   1.197   0.362   3.857  0.4592  0.4033  0.0089
12281TIP3    H158334   1.193   0.273   3.821 -0.3936  0.2687  0.3914
12281TIP3    H258335   1.277   0.363   3.909 -1.3369 -1.4415  3.1585
12282TIP3   OH258336   1.176   1.625  16.941  0.3134 -0.3223  0.2641
12282TIP3    H158337   1.258   1.583  16.915  1.9409  2.4283  0.6378
12282TIP3    H258338   1.144   1.572  17.014  1.0194 -2.1903 -0.7096
12283TIP3   OH258339   1.272   2.956   6.516  0.3774  0.0274  0.4584
12283TIP3    H158340   1.224   2.989   6.440  0.3240 -0.2391  0.3762
12283TIP3    H258341   1.288   2.864   6.496 -0.5943 -0.3333  1.2376
12284TIP3   OH258342   3.991   1.404  14.436 -0.3055  0.0894 -0.3379
12284TIP3    H158343   4.079   1.429  14.406 -0.4376  0.6367 -0.2773
12284TIP3    H258344   3.963   1.337  14.373 -0.3408  0.7954 -1.0944
12285TIP3   OH258345   6.310   4.811   0.945  0.4312  0.3261  0.3864
12285TIP3    H158346   6.363   4.771   1.014  0.2371  1.7930  1.4430
12285TIP3    H258347   6.229   4.837   0.988 -0.7144 -0.8699 -0.9627
12286TIP3   OH258348   5.348   5.391  13.451 -0.6874  0.7453  0.1157
12286TIP3    H158349   5.415   5.390  13.519  0.1974 -0.3358 -0.7294
12286TIP3    H258350   5.274   5.344  13.489  0.5038 -1.6086 -0.2811
12287TIP3   OH258351   6.769   2.136   0.100 -0.0595 -0.5499  0.2034
12287TIP3    H158352   6.731   2.142   0.013 -1.0415 -0.1760  0.6515
12287TIP3    H258353   6.817   2.053   0.099 -0.3454 -0.7120 -0.5792
12288TIP3   OH258354   2.892   5.407  12.380 -0.5413  0.4635  0.0163
12288TIP3    H158355   2.919   5.484  12.430  0.6074 -0.2508  0.5350
12288TIP3    H258356   2.971   5.381  12.333 -1.1413  0.0750 -0.8092
12289TIP3   OH258357   6.518   2.456   6.187  0.3143 -0.0459  0.4501
12289TIP3    H158358   6.438   2.504   6.205  0.5417 -0.5628  3.2949
12289TIP3    H258359   6.492   2.364   6.191  0.5017 -0.2555 -1.7770
12290TIP3   OH258360   1.978   6.655  15.276  0.0994  0.1446  0.1582
12290TIP3    H158361   1.957   6.656  15.369  0.5706  1.0612  0.2630
12290TIP3    H258362   1.905   6.701  15.235  0.7584  1.3211  0.2766
12291TIP3   OH258363   4.122   3.745  16.057 -0.2457  0.1857  0.0819
12291TIP3    H158364   4.171   3.825  16.038  1.8229 -1.6265 -3.0440
12291TIP3    H258365   4.039   3.755  16.011  0.0709  0.4749 -0.4260
12292TIP3   OH258366   1.161   0.825  15.677  0.2734  0.6740 -0.1201
12292TIP3    H158367   1.187   0.917  15.673  2.1548  0.3578  2.3722
12292TIP3    H258368   1.213   0.783  15.609 -0.2340  1.3275 -0.9440
12293TIP3   OH258369   0.823   0.621  15.896 -0.1076 -0.4138  0.5403
12293TIP3    H158370   0.869   0.622  15.812  0.5882 -0.0151  0.9239
12293TIP3    H258371   0.803   0.528  15.912  0.2007 -0.5420  0.1794
12294TIP3   OH258372   3.844   6.382   3.733 -0.0967  0.4329 -0.2007
12294TIP3    H158373   3.866   6.290   3.745 -3.8656 -0.5516  0.7070
12294TIP3    H258374   3.903   6.413   3.665  1.1217 -2.7281 -0.7376
12295TIP3   OH258375   2.183   4.680  16.535  0.0903  0.3489  0.1924
12295TIP3    H158376   2.114   4.632  16.583 -0.7214  0.9714 -0.3255
12295TIP3    H258377   2.228   4.731  16.602 -0.1766  0.1992  0.4866
12296TIP3   OH258378   1.872   1.989   4.309  0.3792 -0.2848  0.2528
12296TIP3    H158379   1.963   1.966   4.326  0.2615 -0.8361  0.1638
12296TIP3    H258380   1.825   1.961   4.388  0.1129 -1.1264 -0.1866
12297TIP3   OH258381   4.050   4.568  14.048  0.3604  0.2021  0.0528
12297TIP3    H158382   4.084   4.535  14.131 -3.4240  1.1413  2.1974
12297TIP3    H258383   3.985   4.504  14.020  2.0229 -0.4644 -2.7131
12298TIP3   OH258384   0.036   5.397  12.135 -1.0617  0.6272  0.0295
12298TIP3    H158385  -0.053   5.364  12.152 -2.2010  2.8039 -1.1552
12298TIP3    H258386   0.075   5.408  12.221 -1.3822 -1.6608  0.5282
12299TIP3   OH258387   6.246   4.060   5.285  0.5148  0.1353 -0.3210
12299TIP3    H158388   6.293   4.053   5.202 -0.4517  1.9077 -1.0723
12299TIP3    H258389   6.157   4.086   5.260 -0.1625 -0.5745  1.2071
12300TIP3   OH258390   2.514   1.911   1.019 -0.0253 -0.3582 -0.0561
12300TIP3    H158391   2.598   1.880   1.053  0.1963  0.6563  0.3323
12300TIP3    H258392   2.490   1.983   1.076 -0.9285 -0.3243 -0.4690
12301TIP3   OH258393   2.706   5.508   4.013 -0.1642 -0.4229  0.0013
12301TIP3    H158394   2.796   5.522   3.983  0.0848  0.2447  1.0272
12301TIP3    H258395   2.653   5.558   3.951  0.1986 -0.4996 -0.3794
12302TIP3   OH258396   4.960   2.247   1.762  0.3662  0.3694  0.0878
12302TIP3    H158397   5.013   2.203   1.697 -1.8809 -1.1885 -0.8203
12302TIP3    H258398   5.010   2.241   1.843  1.2414 -1.6735 -0.5630
12303TIP3   OH258399   5.298   6.666   3.477  0.3077  0.0695 -0.1396
12303TIP3    H158400   5.251   6.646   3.558  0.1667 -1.2587 -0.5283
12303TIP3    H258401   5.297   6.762   3.472  1.1700  0.2528  1.9375
12304TIP3   OH258402   4.465   4.311  15.306 -0.2012  1.0796  0.4731
12304TIP3    H158403   4.382   4.309  15.355 -0.8011 -0.8107 -0.5265
12304TIP3    H258404   4.519   4.246  15.349 -0.4543 -0.0493 -0.8581
12305TIP3   OH258405   5.151   4.085   6.087  0.0055  0.5514  0.1631
12305TIP3    H158406   5.184   3.995   6.076  0.4033  0.5835  1.0094
12305TIP3    H258407   5.083   4.093   6.021 -1.9020 -1.2658  1.7513
12306TIP3   OH258408   5.226   6.068   0.151 -0.5888 -0.5384 -0.2068
12306TIP3    H158409   5.203   6.043   0.061 -0.6152 -0.2423 -0.2853
12306TIP3    H258410   5.310   6.026   0.167  1.0732  1.9667 -1.5505
12307TIP3   OH258411   2.160   5.865  16.943  0.2050 -0.4607  0.4623
12307TIP3    H158412   2.109   5.935  16.903 -0.1840 -1.5904 -1.1342
12307TIP3    H258413   2.210   5.827  16.871 -0.2731 -2.3852  1.0696
12308TIP3   OH258414   1.756   3.386  16.121  0.2116 -0.2249  0.2690
12308TIP3    H158415   1.808   3.365  16.044  0.2439  0.3149  0.1391
12308TIP3    H258416   1.717   3.302  16.147  2.9465 -1.1622  1.7730
12309TIP3   OH258417   4.959   2.405   0.736  0.4293  0.3007  0.0121
12309TIP3    H158418   5.029   2.345   0.711  0.7085  0.6197  0.0206
12309TIP3    H258419   4.879   2.353   0.728  0.7688 -0.4352  1.2156
12310TIP3   OH258420   5.251   4.049   4.399  0.1650  0.2762 -0.1732
12310TIP3    H158421   5.242   3.955   4.412  1.4549  0.1557 -0.0076
12310TIP3    H258422   5.165   4.085   4.421 -0.2212 -0.8172  0.1616
12311TIP3   OH258423   0.017   5.300   3.767 -0.3588 -0.4658  0.0668
12311TIP3    H158424   0.015   5.289   3.862  0.6287  0.4498  0.2132
12311TIP3    H258425  -0.015   5.217   3.733 -0.9685 -0.7141  1.2043
12312TIP3   OH258426   6.701   5.477  15.628  0.1407  0.4254  0.2233
12312TIP3    H158427   6.719   5.391  15.591 -1.0190  0.5087 -0.5598
12312TIP3    H258428   6.614   5.469  15.667 -0.3854  1.4779 -0.6689
12313TIP3   OH258429   3.918   0.336   1.895 -0.1330 -0.6024 -0.2682
12313TIP3    H158430   3.977   0.272   1.855  0.4150  0.3645 -1.0639
12313TIP3    H258431   3.973   0.385   1.956 -0.1373  0.1880 -0.8813
12314TIP3   OH258432   6.379   1.095  11.714 -0.0259  0.2601  0.2588
12314TIP3    H158433   6.356   1.185  11.737 -0.4053  0.2663 -0.1238
12314TIP3    H258434   6.387   1.050  11.798 -1.4730  0.2554  0.4277
12315TIP3   OH258435   2.627   0.672  13.252 -1.0093  0.4695 -0.1541
12315TIP3    H158436   2.722   0.685  13.253 -0.7086 -1.3612 -1.0825
12315TIP3    H258437   2.602   0.683  13.160 -1.6853  0.7039  0.0471
12316TIP3   OH258438   4.977   2.448  13.736 -0.3226 -0.2144 -0.2666
12316TIP3    H158439   4.910   2.410  13.678  0.2697 -0.3310 -0.8918
12316TIP3    H258440   5.055   2.394  13.720 -0.3204 -0.6446  1.1185
12317TIP3   OH258441   0.120   4.657  11.340 -0.2133 -0.4555  0.7596
12317TIP3    H158442   0.137   4.563  11.333  1.8263 -0.0248 -1.8966
12317TIP3    H258443   0.039   4.670  11.290  0.8977 -0.5453 -1.1445
12318TIP3   OH258444   3.658   3.169   2.743  0.3326 -0.8989  0.1441
12318TIP3    H158445   3.639   3.168   2.837 -0.4163 -0.2163  0.0055
12318TIP3    H258446   3.589   3.116   2.704  1.2143 -2.0233  0.0645
12319TIP3   OH258447   2.282   1.881  16.695 -0.0742  0.0867 -0.0537
12319TIP3    H158448   2.216   1.828  16.739  0.1424 -0.6460 -0.6065
12319TIP3    H258449   2.322   1.932  16.766  0.3805 -1.1926  0.6472
12320TIP3   OH258450   1.565   0.918   0.567  0.2531 -0.3867  0.3292
12320TIP3    H158451   1.531   0.829   0.577 -1.1164  0.1516  0.6186
12320TIP3    H258452   1.641   0.907   0.509  0.1964 -1.7562  0.4663
12321TIP3   OH258453   4.557   4.490  10.696  0.1430  0.1393  0.1516
12321TIP3    H158454   4.581   4.500  10.788 -1.4801  1.4929  0.4701
12321TIP3    H258455   4.590   4.569  10.654 -0.3291  0.1755 -0.1558
12322TIP3   OH258456   6.149   6.683  12.907 -0.0177 -0.0206  0.0837
12322TIP3    H158457   6.088   6.753  12.927  0.2995  0.2227  0.2149
12322TIP3    H258458   6.149   6.628  12.985 -0.4521 -0.3072 -0.1146
12323TIP3   OH258459   5.422   2.954  15.316  0.0132  0.3254 -0.1124
12323TIP3    H158460   5.385   2.870  15.344 -2.3976  0.5415 -2.3220
12323TIP3    H258461   5.516   2.937  15.309 -0.2193 -1.7231  0.9529
12324TIP3   OH258462   6.408   6.056   1.001 -0.2536 -0.1400 -0.0826
12324TIP3    H158463   6.337   6.087   0.944 -1.0997 -0.2804  0.8690
12324TIP3    H258464   6.370   6.057   1.089  0.6664 -1.0229  0.3390
12325TIP3   OH258465   3.656   4.125   1.693 -0.4840  0.3923 -1.2071
12325TIP3    H158466   3.572   4.104   1.653 -0.5383 -0.3702 -0.7201
12325TIP3    H258467   3.681   4.045   1.739  0.3642  0.7084 -1.0933
12326TIP3   OH258468   5.835   6.634  11.496 -0.0792 -0.2860  0.1292
12326TIP3    H158469   5.900   6.565  11.509  0.9091  0.7107  0.6612
12326TIP3    H258470   5.886   6.709  11.465 -1.0564  0.3641  0.0589
12327TIP3   OH258471   4.636   0.164  11.563  0.4053  0.3672 -0.0392
12327TIP3    H158472   4.610   0.206  11.644  0.3949  1.4993 -0.6134
12327TIP3    H258473   4.566   0.184  11.501 -0.2327 -1.5700 -0.0182
12328TIP3   OH258474   1.080   0.218   2.689  0.2821  0.0291 -0.1262
12328TIP3    H158475   1.172   0.229   2.664  0.4588  0.8224  0.8234
12328TIP3    H258476   1.062   0.292   2.746 -1.1368  0.2208 -0.7884
12329TIP3   OH258477   2.579   3.665   1.777 -0.1146  0.1011 -0.1701
12329TIP3    H158478   2.659   3.683   1.726  1.6083 -0.6071  2.1206
12329TIP3    H258479   2.530   3.604   1.722  1.6505 -0.6231 -1.0427
12330TIP3   OH258480   6.407   2.087  13.980  0.3839  0.0910  0.4218
12330TIP3    H158481   6.360   2.118  13.903  1.4027 -0.1036 -0.2973
12330TIP3    H258482   6.495   2.066  13.948  0.9472  0.3761  1.7117
12331TIP3   OH258483   2.763   0.882  14.979  0.1559  0.3796  0.0981
12331TIP3    H158484   2.842   0.857  14.932  1.2541 -1.0205  2.5071
12331TIP3    H258485   2.782   0.969  15.015  0.8686 -0.1628  1.0962
12332TIP3   OH258486   6.309   2.871  12.156 -0.0217  0.7116 -0.8392
12332TIP3    H158487   6.298   2.841  12.066 -2.1066 -1.0912 -0.0696
12332TIP3    H258488   6.222   2.902  12.181  0.1914 -0.0438  0.9490
12333TIP3   OH258489   5.092   2.142  12.832  0.6809  0.3889 -0.8997
12333TIP3    H158490   5.110   2.228  12.871 -1.6953  1.5236 -2.0640
12333TIP3    H258491   5.136   2.080  12.890  0.2258  2.1963  1.5857
12334TIP3   OH258492   0.998   5.487   4.831  0.3677  0.1974 -0.2558
12334TIP3    H158493   0.928   5.524   4.885  0.2980 -1.6423  0.9910
12334TIP3    H258494   1.070   5.551   4.838 -0.5377  1.2237 -0.0900
12335TIP3   OH258495   2.163   5.330  16.930  0.1064  0.2645 -0.0570
12335TIP3    H158496   2.250   5.359  16.955  0.0736  1.8540 -1.5235
12335TIP3    H258497   2.107   5.356  17.003  0.7971 -0.4339  0.7288
12336TIP3   OH258498   0.058   6.206   4.115 -0.1399  0.9151 -0.1576
12336TIP3    H158499   0.141   6.199   4.161  0.4248 -1.2921 -1.3701
12336TIP3    H258500   0.081   6.193   4.023 -1.5596  2.6673 -0.8205
12337TIP3   OH258501   3.233   0.762  11.251 -0.1559  0.2551  0.0721
12337TIP3    H158502   3.272   0.845  11.224  0.5803  0.2737  1.1300
12337TIP3    H258503   3.214   0.716  11.169  0.0766  1.1696 -0.5060
12338TIP3   OH258504   2.946   0.089   0.795  0.8337  0.0399  0.4460
12338TIP3    H158505   2.903   0.004   0.788  0.9377 -0.1379  1.7229
12338TIP3    H258506   2.924   0.135   0.714 -1.7576 -0.0442  1.0375
12339TIP3   OH258507   3.374   0.351  15.668 -0.0956  0.0108 -0.4322
12339TIP3    H158508   3.376   0.292  15.593 -1.2206 -1.1699  0.4379
12339TIP3    H258509   3.446   0.322  15.724 -0.8541 -0.8009  0.1555
12340TIP3   OH258510   3.727   3.055  13.598 -0.3879  0.0755 -0.4453
12340TIP3    H158511   3.741   3.094  13.511 -1.1023  0.6753 -0.3003
12340TIP3    H258512   3.767   2.968  13.592  0.4896  0.5054 -1.0455
12341TIP3   OH258513   1.125   4.411  16.540  0.4245 -0.1048 -0.4016
12341TIP3    H158514   1.040   4.382  16.507  0.2112 -0.0818  0.1094
12341TIP3    H258515   1.113   4.415  16.635  0.4022  1.7692 -0.4434
12342TIP3   OH258516   0.085   0.868   1.548  0.5475  0.8140  0.6338
12342TIP3    H158517   0.053   0.954   1.521 -1.0041 -0.6227 -2.6918
12342TIP3    H258518   0.008   0.811   1.543  2.0634 -1.3039 -0.0868
12343TIP3   OH258519   1.300   1.752   2.727 -0.6230 -0.4122  0.2247
12343TIP3    H158520   1.276   1.822   2.787 -2.7870  0.0006 -1.0264
12343TIP3    H258521   1.305   1.674   2.782  1.5636  0.5758  1.5976
12344TIP3   OH258522   2.975   0.923   2.081 -0.1322 -0.6336  0.7026
12344TIP3    H158523   3.065   0.894   2.091 -0.1642 -1.8000 -1.7967
12344TIP3    H258524   2.981   1.008   2.038 -0.2091  0.3330  2.5278
12345TIP3   OH258525   1.665   3.094   5.116  0.7643  0.1069 -0.5530
12345TIP3    H158526   1.758   3.117   5.109  1.1037  0.2317  2.7796
12345TIP3    H258527   1.665   2.999   5.128  0.2352 -0.1912 -2.5426
12346TIP3   OH258528   4.089   0.517  15.257 -0.1615 -0.0130  0.3392
12346TIP3    H158529   4.115   0.430  15.227  0.6756  0.8236 -1.5019
12346TIP3    H258530   4.155   0.540  15.323  0.6180 -0.1153 -0.3833
12347TIP3   OH258531   5.382   0.604  12.667  0.1701 -0.4900 -0.4148
12347TIP3    H158532   5.438   0.574  12.595 -0.4126  0.7749 -1.4227
12347TIP3    H258533   5.377   0.699  12.656  1.0255 -0.0815  2.0151
12348TIP3   OH258534   3.836   4.805   6.047 -0.2255 -0.0577  0.1527
12348TIP3    H158535   3.869   4.786   5.959  1.9805  0.1823  0.8691
12348TIP3    H258536   3.858   4.897   6.062 -0.8382 -0.0188  0.8347
12349TIP3   OH258537   2.897   2.959  11.108  0.6500 -0.0251 -0.4563
12349TIP3    H158538   2.852   3.032  11.066  0.2849  0.7009  1.1213
12349TIP3    H258539   2.888   2.886  11.046 -1.5962  0.4410 -0.7659
12350TIP3   OH258540   2.293   3.145   3.480  0.0303  0.2869 -0.0280
12350TIP3    H158541   2.202   3.163   3.456  0.0386  0.1808 -0.1408
12350TIP3    H258542   2.344   3.200   3.421  0.0690 -0.4284 -0.6733
12351TIP3   OH258543   3.029   4.963  15.458 -0.1046  0.2163 -0.2741
12351TIP3    H158544   2.938   4.935  15.442 -0.1914  0.9617 -1.2101
12351TIP3    H258545   3.025   5.059  15.457  0.7689  0.2584 -0.8636
12352TIP3   OH258546   0.596   2.097  14.028 -0.6657  0.2733 -0.3971
12352TIP3    H158547   0.525   2.034  14.040  0.3030 -1.4688 -2.9698
12352TIP3    H258548   0.581   2.135  13.942  1.5467 -0.2882 -1.0967
12353TIP3   OH258549   0.392   0.883  12.066  0.1784 -0.1423  0.0642
12353TIP3    H158550   0.402   0.892  11.972  0.4850 -1.6087 -0.0700
12353TIP3    H258551   0.482   0.877  12.099  0.0744 -2.2065  0.1224
12354TIP3   OH258552   2.340   3.024  17.238  0.2856 -0.6771  0.1701
12354TIP3    H158553   2.434   3.041  17.228  0.3547 -0.4003  1.1744
12354TIP3    H258554   2.332   2.985  17.325 -0.3845 -1.9199 -0.4225
12355TIP3   OH258555   1.461   6.305  12.601 -0.5590 -0.1892 -0.1258
12355TIP3    H158556   1.449   6.276  12.691  0.2494  1.1282  0.4469
12355TIP3    H258557   1.404   6.249  12.549  1.7425 -3.6268  0.6850
12356TIP3   OH258558   6.282   6.325  12.703 -0.2132 -0.4151 -0.7022
12356TIP3    H158559   6.209   6.294  12.756  1.1492 -1.6338  0.5585
12356TIP3    H258560   6.258   6.303  12.613 -2.5971  1.7404 -0.6990
12357TIP3   OH258561   2.110   0.969  16.535 -0.0651  0.0542 -0.8398
12357TIP3    H158562   2.163   0.905  16.488 -1.6602 -1.5662 -0.5550
12357TIP3    H258563   2.066   1.019  16.466  0.6980  0.4164 -1.0677
12358TIP3   OH258564   3.450   1.748   0.658 -0.0277  0.0116  0.0002
12358TIP3    H158565   3.390   1.769   0.729  1.6036 -1.4196  1.9225
12358TIP3    H258566   3.415   1.667   0.620 -0.5560  0.4448 -0.4664
12359TIP3   OH258567   6.276   3.822   0.052  0.4120  0.0552  0.3391
12359TIP3    H158568   6.309   3.884  -0.014 -0.2028 -1.9387 -2.0147
12359TIP3    H258569   6.181   3.831   0.048  0.2553 -1.6065 -0.7437
12360TIP3   OH258570   6.397   1.401  16.134  0.4847  0.2167 -0.7997
12360TIP3    H158571   6.412   1.441  16.219 -0.2792 -0.9064 -0.1158
12360TIP3    H258572   6.446   1.457  16.073  0.7144  1.2715  0.3019
12361TIP3   OH258573   5.611   4.139   1.719 -0.2534  0.0371  0.2022
12361TIP3    H158574   5.688   4.189   1.746 -0.2819  0.2794 -0.1624
12361TIP3    H258575   5.630   4.113   1.629 -1.1467  1.1923 -0.3468
12362TIP3   OH258576   1.853   3.214  11.448  0.2538 -0.0233  0.1935
12362TIP3    H158577   1.818   3.181  11.366  1.5360 -2.5355  0.5671
12362TIP3    H258578   1.776   3.232  11.502 -0.5428 -0.3958 -0.8059
12363TIP3   OH258579   0.659   1.396  14.789  0.1301 -0.5199 -0.3007
12363TIP3    H158580   0.665   1.337  14.714 -1.2278 -0.9197 -0.1142
12363TIP3    H258581   0.569   1.428  14.789  0.2743 -0.0300  0.7962
12364TIP3   OH258582   6.253   1.745   5.422 -0.2053 -0.3567  0.3493
12364TIP3    H158583   6.167   1.786   5.433 -0.0816 -0.4812  2.0259
12364TIP3    H258584   6.237   1.672   5.362 -0.7886  0.9736 -1.2070
12365TIP3   OH258585   2.897   6.327   3.983  0.0789 -0.0170  0.0990
12365TIP3    H158586   2.807   6.315   3.952 -0.5706  1.2961  1.3769
12365TIP3    H258587   2.903   6.273   4.062 -0.3415  1.6453  1.3094
12366TIP3   OH258588   1.105   5.946  11.827  0.1841 -0.1863  0.3634
12366TIP3    H158589   1.017   5.970  11.857  0.3285  1.1616 -0.2285
12366TIP3    H258590   1.160   5.958  11.904  0.3045  1.8144  0.0294
12367TIP3   OH258591   0.404   0.026  15.961  0.2679  0.3186  0.4213
12367TIP3    H158592   0.415   0.076  16.042  0.3883 -1.9582  1.9016
12367TIP3    H258593   0.309   0.019  15.949  0.2485  0.5652  0.4355
12368TIP3   OH258594   2.201   3.865  13.851  0.5702 -0.9058 -0.2302
12368TIP3    H158595   2.292   3.890  13.834  0.1972 -0.8953 -2.6020
12368TIP3    H258596   2.154   3.891  13.771 -1.9276  0.9836  1.6890
12369TIP3   OH258597   0.307   3.300  14.434  0.0928  0.1596 -0.2946
12369TIP3    H158598   0.236   3.282  14.496  0.5614 -0.4158  0.0922
12369TIP3    H258599   0.265   3.301  14.348 -0.4237  0.0880 -0.0487
12370TIP3   OH258600   5.374   6.685  15.102 -0.5417  0.2037 -0.9340
12370TIP3    H158601   5.301   6.686  15.040  0.5340  0.1767 -2.2520
12370TIP3    H258602   5.380   6.776  15.133 -0.3402  0.5020 -1.8125
12371TIP3   OH258603   4.565   5.517   2.735  0.0810  0.1797 -0.1134
12371TIP3    H158604   4.656   5.526   2.762  0.0508  1.6847 -0.4464
12371TIP3    H258605   4.558   5.426   2.704  1.0383 -0.4607  1.4077
12372TIP3   OH258606   0.613   4.224   0.232 -0.2578 -0.3002  0.3349
12372TIP3    H158607   0.644   4.263   0.150 -0.5989  0.2106  0.4464
12372TIP3    H258608   0.693   4.198   0.278  0.0169  0.9206  0.5773
12373TIP3   OH258609   2.543   1.141   4.246  0.1294  0.1018 -0.6185
12373TIP3    H158610   2.461   1.093   4.239 -1.2553  2.3895 -1.2826
12373TIP3    H258611   2.548   1.193   4.165  1.6536  0.8908 -0.0734
12374TIP3   OH258612   1.148   1.006   3.072  0.0579  0.1624 -0.1180
12374TIP3    H158613   1.193   1.031   3.153 -1.4844  2.2306  0.1929
12374TIP3    H258614   1.208   1.032   3.002  0.3956  0.6146  0.3304
12375TIP3   OH258615   0.416   3.819   0.238 -0.0933 -0.0484 -0.4323
12375TIP3    H158616   0.382   3.888   0.296  0.0378  0.3301 -0.7959
12375TIP3    H258617   0.367   3.832   0.156 -1.0595 -1.2613 -0.0681
12376TIP3   OH258618   1.901   4.666   5.122 -0.0481 -0.0114 -0.0831
12376TIP3    H158619   1.832   4.601   5.114  1.2004 -1.3480 -0.4631
12376TIP3    H258620   1.963   4.628   5.184  1.1898  0.3457 -1.0480
12377TIP3   OH258621   0.256   0.487   6.141  0.5050 -0.3234 -0.4320
12377TIP3    H158622   0.306   0.521   6.066 -1.1436 -0.0588 -1.4839
12377TIP3    H258623   0.177   0.542   6.143 -0.5349 -1.7617  0.0813
12378TIP3   OH258624   4.132   2.722   3.169 -0.0689  0.2773 -0.6556
12378TIP3    H158625   4.183   2.677   3.236  0.1677  3.8383  1.8287
12378TIP3    H258626   4.041   2.695   3.185  0.1174  0.2690  0.4200
12379TIP3   OH258627   1.163   5.978   3.679 -0.1688 -0.3451 -0.3839
12379TIP3    H158628   1.187   6.066   3.707  0.4621 -0.4102 -0.7079
12379TIP3    H258629   1.073   5.986   3.647 -1.4703 -0.5016  2.8235
12380TIP3   OH258630   5.873   4.944  16.336 -0.6301  0.2048 -0.1047
12380TIP3    H158631   5.880   4.885  16.411 -0.3721 -0.3641 -0.5689
12380TIP3    H258632   5.835   5.024  16.373  1.0877  0.5748  0.9769
12381TIP3   OH258633   0.051   3.137  13.546 -0.3133 -0.9005 -0.2680
12381TIP3    H158634   0.096   3.066  13.591 -1.6436 -0.2412  2.3245
12381TIP3    H258635  -0.030   3.098  13.514  0.2322 -1.1697 -1.3375
12382TIP3   OH258636   5.021   5.586   5.254  0.0434  0.1911  0.7498
12382TIP3    H158637   5.104   5.538   5.262  0.6366  0.2572 -2.9492
12382TIP3    H258638   5.042   5.674   5.286  1.6658  0.3593 -0.5758
12383TIP3   OH258639   6.726   1.240  16.478  0.5727  0.3723 -0.0571
12383TIP3    H158640   6.723   1.145  16.475  0.3064  0.3491  0.7861
12383TIP3    H258641   6.811   1.260  16.516  1.1115  0.5083 -1.2840
12384TIP3   OH258642   5.967   5.431   0.260 -0.5737  0.4606 -0.0543
12384TIP3    H158643   6.054   5.468   0.276 -0.0878 -0.7058  0.0905
12384TIP3    H258644   5.983   5.358   0.201 -1.7208  1.4766 -1.6980
12385TIP3   OH258645   1.224   3.626   3.358  0.0899  0.6535 -0.0568
12385TIP3    H158646   1.161   3.558   3.380  0.2757  0.5592  0.1831
12385TIP3    H258647   1.182   3.707   3.386  0.8212  0.4350  1.7768
12386TIP3   OH258648   0.645   5.839   1.401  0.4936 -0.1827 -0.2253
12386TIP3    H158649   0.687   5.797   1.476  0.5863  0.8350  0.3001
12386TIP3    H258650   0.591   5.770   1.362  2.3763 -1.4327 -0.7193
12387TIP3   OH258651   0.400   4.765   5.006 -0.4386 -0.3468  0.2626
12387TIP3    H158652   0.325   4.711   4.983 -0.6243  0.1323 -0.2916
12387TIP3    H258653   0.372   4.854   4.986 -0.5310  0.0890  2.1975
12388TIP3   OH258654   0.004   2.667  17.101  0.3866  0.2578  0.5100
12388TIP3    H158655   0.008   2.737  17.036  1.0208 -0.9001 -0.7524
12388TIP3    H258656   0.065   2.695  17.170  0.7469  0.8707 -0.0483
12389TIP3   OH258657   5.965   2.281   3.756 -0.3786  0.5317 -0.3901
12389TIP3    H158658   5.874   2.261   3.780  0.1160 -1.4084  0.0118
12389TIP3    H258659   6.005   2.311   3.837  0.2411 -2.1743  0.4224
12390TIP3   OH258660   1.770   2.292   3.896 -0.1023  0.1152 -0.3101
12390TIP3    H158661   1.790   2.232   3.968 -0.1293  1.2539  0.6810
12390TIP3    H258662   1.855   2.311   3.857 -0.1736 -1.1368 -1.1263
12391TIP3   OH258663   3.415   3.684   0.935  0.4504  0.1102 -0.0589
12391TIP3    H158664   3.370   3.605   0.965  0.0635  0.8941  1.5764
12391TIP3    H258665   3.385   3.752   0.995  0.5543  1.5729 -1.5988
12392TIP3   OH258666   3.150   2.323   1.019  0.2438  0.1138 -0.5129
12392TIP3    H158667   3.212   2.390   0.989  2.0324 -2.0142 -1.8665
12392TIP3    H258668   3.126   2.275   0.940 -2.0650 -0.0517  0.2185
12393TIP3   OH258669   5.097   1.935  11.404 -0.4815  0.5454  1.6078
12393TIP3    H158670   5.099   1.936  11.308 -1.8353  3.4571  1.5132
12393TIP3    H258671   5.027   1.873  11.426 -1.4467  1.2508  0.6131
12394TIP3   OH258672   1.802   3.323  15.127  0.6621 -0.1106  0.1835
12394TIP3    H158673   1.712   3.331  15.160 -0.0666 -2.6842 -0.9547
12394TIP3    H258674   1.796   3.344  15.034  1.5496  1.0138  0.3479
12395TIP3   OH258675   6.660   6.813   4.939  0.2675  0.2156  0.0799
12395TIP3    H158676   6.634   6.754   5.010 -0.5357 -0.8165 -1.0213
12395TIP3    H258677   6.636   6.766   4.859 -0.3323  1.9964 -0.8548
12396TIP3   OH258678   5.161   1.398  15.847  0.1896  0.0667  0.3933
12396TIP3    H158679   5.079   1.447  15.843  0.8446  1.3035  1.2777
12396TIP3    H258680   5.162   1.360  15.935  0.3418 -0.3332  0.2184
12397TIP3   OH258681   5.046   4.790  12.862 -0.4840  0.1504 -0.0286
12397TIP3    H158682   5.123   4.742  12.890 -0.8297  0.2141  1.0953
12397TIP3    H258683   4.975   4.726  12.864 -1.3056  0.9654  3.1708
12398TIP3   OH258684   1.044   6.342   1.103  0.1324 -0.5022 -0.0916
12398TIP3    H158685   0.981   6.404   1.142  0.5963  0.2096 -0.4465
12398TIP3    H258686   0.996   6.259   1.099 -0.9539  0.1289 -0.7996
12399TIP3   OH258687   0.548   4.141  14.255  0.5305 -0.1098  0.0459
12399TIP3    H158688   0.525   4.096  14.337  0.7360 -0.0421  0.1428
12399TIP3    H258689   0.465   4.159  14.213  0.3260  1.1483  0.9273
12400TIP3   OH258690   4.284   4.042   2.455 -0.0249  0.2899  0.7719
12400TIP3    H158691   4.372   4.061   2.488  1.7459 -2.9059 -1.5677
12400TIP3    H258692   4.253   3.971   2.512  0.2447 -0.6454 -0.2114
12401TIP3   OH258693   6.197   3.105   5.846 -0.2457 -0.6041  0.1330
12401TIP3    H158694   6.289   3.131   5.848 -0.4866  0.2709  1.7105
12401TIP3    H258695   6.191   3.036   5.911 -0.7160 -0.6358  0.0562
12402TIP3   OH258696   0.336   0.500  11.512 -0.3305 -0.4088 -1.1328
12402TIP3    H158697   0.275   0.571  11.532  0.4611  0.2690 -1.0877
12402TIP3    H258698   0.345   0.501  11.417 -0.1618 -0.3181 -1.1160
12403TIP3   OH258699   4.503   5.809   4.664  0.4525 -0.9777 -0.1946
12403TIP3    H158700   4.452   5.794   4.584  1.0029 -3.0830 -0.1937
12403TIP3    H258701   4.592   5.785   4.641  0.7212 -1.1124  0.9126
12404TIP3   OH258702   5.829   3.087  14.428 -0.1824 -0.1988  0.2345
12404TIP3    H158703   5.805   3.060  14.517 -0.4431  1.9772  0.8876
12404TIP3    H258704   5.751   3.133  14.396 -0.0556 -0.8740 -1.1080
12405TIP3   OH258705   2.020   0.498  14.842 -0.0670  0.5661 -0.1661
12405TIP3    H158706   2.097   0.555  14.836  0.6671 -0.3555  0.1175
12405TIP3    H258707   1.963   0.541  14.904  0.0812  1.4171 -0.5981
12406TIP3   OH258708   4.952   4.367  13.080  0.2621  0.3598 -0.0865
12406TIP3    H158709   5.027   4.378  13.139 -0.7833  0.7513  1.2179
12406TIP3    H258710   4.895   4.305  13.125 -0.1829  0.0183 -1.0929
12407TIP3   OH258711   6.486   3.513  12.148 -0.5887  0.0851 -0.2394
12407TIP3    H158712   6.521   3.424  12.138 -0.1592  0.3232 -0.9862
12407TIP3    H258713   6.469   3.522  12.242 -0.5755 -0.7608 -0.1472
12408TIP3   OH258714   5.795   0.724  15.600  1.0066 -0.2866 -0.4559
12408TIP3    H158715   5.744   0.658  15.554  0.5327  0.5639 -1.1870
12408TIP3    H258716   5.785   0.702  15.692 -1.2937  0.2367 -0.5086
12409TIP3   OH258717   6.073   5.880  13.754 -0.1274 -0.6688 -0.0685
12409TIP3    H158718   6.129   5.837  13.689  0.9008  0.1018  0.2695
12409TIP3    H258719   6.129   5.948  13.791 -1.2029 -0.0950  0.5325
12410TIP3   OH258720   4.765   4.519   0.016  0.1723 -0.1242  0.0209
12410TIP3    H158721   4.827   4.561   0.075 -0.0850  0.4983 -0.1397
12410TIP3    H258722   4.683   4.512   0.066  0.2118 -0.4358  0.0457
12411TIP3   OH258723   5.640   1.647  10.905 -0.3168 -0.4183 -0.4695
12411TIP3    H158724   5.549   1.621  10.891 -0.1515 -1.9275  0.8976
12411TIP3    H258725   5.653   1.638  10.999  1.3052 -0.4674 -0.6759
12412TIP3   OH258726   4.988   5.800  13.056  0.1864  0.2059  0.2999
12412TIP3    H158727   4.909   5.800  13.002 -0.5252  2.2030  1.2533
12412TIP3    H258728   4.962   5.754  13.135  0.3256 -0.1265  0.1521
12413TIP3   OH258729   3.777   5.382  14.154  0.1253 -0.5215 -0.2562
12413TIP3    H158730   3.768   5.293  14.189  1.5514 -0.8748 -0.7222
12413TIP3    H258731   3.800   5.434  14.231 -2.5558 -0.1324  0.3977
12414TIP3   OH258732   3.182   6.244  16.588 -0.0165  0.3987 -0.0557
12414TIP3    H158733   3.260   6.276  16.543 -0.1564  1.8098  0.6552
12414TIP3    H258734   3.121   6.220  16.518  1.3527 -1.6211 -0.6400
12415TIP3   OH258735   3.570   2.492  12.710  0.2050  0.4630  0.3078
12415TIP3    H158736   3.528   2.480  12.625 -2.4160 -0.9685  1.6587
12415TIP3    H258737   3.517   2.559  12.754  2.0609  1.8489  0.5388
12416TIP3   OH258738   6.345   3.159   5.543 -0.2649 -0.1676  0.1015
12416TIP3    H158739   6.302   3.107   5.475 -0.1927 -0.8104  0.5279
12416TIP3    H258740   6.280   3.223   5.570 -0.1486  0.3733 -0.8600
12417TIP3   OH258741   6.209   3.855  14.218  0.0935  0.5486 -0.1695
12417TIP3    H158742   6.279   3.819  14.164 -0.1107  0.5205 -0.4166
12417TIP3    H258743   6.247   3.933  14.258 -0.0411  1.0999 -1.0853
12418TIP3   OH258744   2.332   5.827   3.811 -0.5731  0.0933 -0.2367
12418TIP3    H158745   2.310   5.740   3.846 -0.6442 -0.4745 -1.6218
12418TIP3    H258746   2.260   5.846   3.750  0.1030  0.5546 -0.8979
12419TIP3   OH258747   1.047   1.660  10.277  1.0716 -0.2397 -0.2238
12419TIP3    H158748   0.978   1.692  10.220 -1.8490 -2.2837  1.8816
12419TIP3    H258749   1.030   1.566  10.286  1.7094 -0.1493  3.4177
12420TIP3   OH258750   5.407   4.301   5.621  0.1970  0.2671 -0.1155
12420TIP3    H158751   5.416   4.287   5.715 -0.7954 -0.3140 -0.0997
12420TIP3    H258752   5.440   4.390   5.608 -0.1729  0.5690  0.8654
12421TIP3   OH258753   5.863   2.499   3.033 -0.0639 -0.6184 -0.0894
12421TIP3    H158754   5.901   2.439   3.097  1.2110 -0.1302 -0.3588
12421TIP3    H258755   5.867   2.585   3.076  0.9690 -0.2601 -0.8811
12422TIP3   OH258756   6.810   5.530  15.960 -0.0395  0.6295  0.6328
12422TIP3    H158757   6.804   5.517  15.866  2.0231  0.0247  0.5129
12422TIP3    H258758   6.720   5.534  15.991 -0.7549 -0.3712 -1.2108
12423TIP3   OH258759   4.965   5.180  15.165 -0.2225  0.9931 -0.3426
12423TIP3    H158760   4.999   5.227  15.241  1.1343  0.9807 -0.9266
12423TIP3    H258761   5.027   5.109  15.149 -0.5399  0.9250 -1.3952
12424TIP3   OH258762   4.016   6.709   4.558 -0.0656 -0.2199 -0.3174
12424TIP3    H158763   4.057   6.628   4.527  0.7673  0.3156 -0.6519
12424TIP3    H258764   3.953   6.680   4.624  0.2881 -1.1321 -0.3642
12425TIP3   OH258765   1.963   3.153   5.401 -0.6119 -0.3739  0.3029
12425TIP3    H158766   1.959   3.107   5.485  0.9619  1.9427  1.7739
12425TIP3    H258767   1.873   3.184   5.386 -1.3499 -2.4951  0.0485
12426TIP3   OH258768   6.431   5.157  12.607 -0.1349 -0.4606 -0.5189
12426TIP3    H158769   6.479   5.075  12.599  2.1210  0.7193  0.2556
12426TIP3    H258770   6.451   5.188  12.695  0.7974  1.9214 -1.4943
12427TIP3   OH258771   3.735   2.270   1.487 -0.1290 -0.3086  0.0260
12427TIP3    H158772   3.722   2.181   1.520  0.8317  0.3536  2.3489
12427TIP3    H258773   3.795   2.259   1.412 -0.9773 -1.6994 -0.4847
12428TIP3   OH258774   5.014   1.413  12.109 -0.5893  0.3257  0.2771
12428TIP3    H158775   5.002   1.410  12.204 -0.0967  0.6244  0.3501
12428TIP3    H258776   5.027   1.321  12.083 -0.6537  0.2523  0.5039
12429TIP3   OH258777   2.085   1.663  16.479  0.0080 -0.1491 -0.0609
12429TIP3    H158778   2.120   1.650  16.567  1.7717  1.3231 -0.4869
12429TIP3    H258779   2.128   1.596  16.426  2.4431  1.6980 -0.5960
12430TIP3   OH258780   4.882   0.509   3.992  0.2443  0.4580  0.1955
12430TIP3    H158781   4.829   0.547   3.922  1.2665  0.9413 -0.3424
12430TIP3    H258782   4.842   0.424   4.009 -0.5500  0.7075 -0.3532
12431TIP3   OH258783   0.548   2.334  14.154  0.0015 -0.2511  0.3073
12431TIP3    H158784   0.565   2.250  14.112 -1.2325 -0.0962 -0.5514
12431TIP3    H258785   0.513   2.389  14.084 -0.2094  0.6527  1.1001
12432TIP3   OH258786   5.682   6.514   5.362  0.0141 -0.7621  0.0297
12432TIP3    H158787   5.744   6.496   5.432  1.9617  0.6246 -1.2210
12432TIP3    H258788   5.617   6.572   5.402  0.5835 -0.7090  0.9078
12433TIP3   OH258789   6.529   4.619   3.990  0.3731 -0.5020  0.1774
12433TIP3    H158790   6.511   4.538   4.039  0.7700 -0.1715  0.8887
12433TIP3    H258791   6.567   4.589   3.908 -0.2337 -1.0716  0.0994
12434TIP3   OH258792   4.370   5.502  10.864 -0.4196 -0.6894 -0.0789
12434TIP3    H158793   4.383   5.411  10.889  1.2822 -1.2843 -2.7170
12434TIP3    H258794   4.380   5.552  10.945 -1.6658 -2.8215  1.4730
12435TIP3   OH258795   0.864   4.318   6.342 -0.0448 -0.0541  0.0709
12435TIP3    H158796   0.784   4.372   6.341 -0.4027 -0.5317 -2.3670
12435TIP3    H258797   0.924   4.363   6.282  3.2471  2.5312  4.6620
12436TIP3   OH258798   5.318   5.897   0.427 -0.3525  0.2860 -0.3324
12436TIP3    H158799   5.257   5.837   0.386  0.5425 -0.6934 -0.2793
12436TIP3    H258800   5.376   5.924   0.355 -0.0569  0.1900 -0.1303
12437TIP3   OH258801   2.963   0.946   2.956 -0.9658 -0.1166 -0.5034
12437TIP3    H158802   3.031   0.879   2.950 -1.2539 -0.4727  0.1156
12437TIP3    H258803   2.994   1.017   2.899 -0.5219 -0.6539 -0.9374
12438TIP3   OH258804   3.309   2.625  12.812  0.3822  0.0485 -0.3327
12438TIP3    H158805   3.323   2.719  12.825 -3.3225  0.9798 -1.6330
12438TIP3    H258806   3.240   2.603  12.875  2.4985 -2.3686  1.3001
12439TIP3   OH258807   1.601   6.107   5.122 -0.5057 -0.3486 -0.2443
12439TIP3    H158808   1.531   6.120   5.185 -1.5036 -1.5113 -1.0766
12439TIP3    H258809   1.612   6.012   5.116  4.0414 -0.3601  2.9646
12440TIP3   OH258810   1.657   1.664   2.085 -0.0553 -0.7306 -0.3594
12440TIP3    H158811   1.566   1.635   2.093 -0.8845  1.4968 -0.9293
12440TIP3    H258812   1.668   1.685   1.992  0.3910  0.8734  0.0132
12441TIP3   OH258813   6.759   3.144   3.949 -0.2423 -0.2752 -0.0489
12441TIP3    H158814   6.842   3.121   3.907  0.2541 -1.5179  1.5062
12441TIP3    H258815   6.697   3.155   3.877  0.6932 -1.7681 -1.1325
12442TIP3   OH258816   6.367   4.278  11.005  0.3209 -0.1831  0.7375
12442TIP3    H158817   6.308   4.350  11.025  0.2667 -0.1054  0.2859
12442TIP3    H258818   6.310   4.207  10.975  0.6178  0.6920 -2.1132
12443TIP3   OH258819   5.741   5.604  12.588 -0.1752  0.0914  0.1203
12443TIP3    H158820   5.827   5.608  12.628 -0.1952  1.1083  0.0742
12443TIP3    H258821   5.680   5.622  12.659 -0.4683 -1.9355  0.4561
12444TIP3   OH258822   3.237   6.054   2.575 -0.0976  0.4055 -0.0716
12444TIP3    H158823   3.220   6.123   2.511 -0.5422  1.8091  1.4772
12444TIP3    H258824   3.312   6.086   2.626 -0.6740  0.0653  1.0441
12445TIP3   OH258825   0.295   2.673  16.840  0.5898  0.2420 -0.2553
12445TIP3    H158826   0.273   2.581  16.827 -0.0340  0.2995  0.3772
12445TIP3    H258827   0.224   2.722  16.798  0.9602  0.4374 -0.6605
12446TIP3   OH258828   1.885   0.465  16.903 -0.3045 -0.4163  0.1327
12446TIP3    H158829   1.923   0.401  16.962 -1.5377 -0.8126  0.5417
12446TIP3    H258830   1.840   0.527  16.961  0.2547  0.4067 -0.2957
12447TIP3   OH258831   0.334   6.272   3.566  0.4038 -0.0464 -0.3853
12447TIP3    H158832   0.293   6.347   3.609  0.8909 -0.1918  0.3485
12447TIP3    H258833   0.408   6.309   3.517  0.2484  0.0366 -0.5562
12448TIP3   OH258834   2.699   5.236  12.545 -0.2899  0.1299  0.2696
12448TIP3    H158835   2.669   5.164  12.489  0.2337 -0.3003  0.5340
12448TIP3    H258836   2.773   5.273  12.498 -0.2330  0.1608  0.3849
12449TIP3   OH258837   0.499   2.986   3.906  0.0022 -0.0601 -0.3744
12449TIP3    H158838   0.476   2.896   3.926  0.0683 -0.4504 -1.9215
12449TIP3    H258839   0.424   3.020   3.857 -1.2771  1.6662  2.4943
12450TIP3   OH258840   2.611   4.166  16.691 -0.5463  0.1886 -0.0754
12450TIP3    H158841   2.525   4.173  16.732 -0.0810 -1.1318  1.2137
12450TIP3    H258842   2.607   4.086  16.638  0.2803 -0.6546  1.0829
12451TIP3   OH258843   1.777   6.736  15.066  0.8519 -0.1288  0.3853
12451TIP3    H158844   1.701   6.690  15.101 -0.5099  1.3469 -0.5098
12451TIP3    H258845   1.778   6.714  14.973  0.6453  0.9978  0.1056
12452TIP3   OH258846   2.784   0.527   3.622  0.2981 -0.2843  0.2112
12452TIP3    H158847   2.792   0.489   3.710  0.4277 -0.7982 -0.0206
12452TIP3    H258848   2.799   0.454   3.563 -0.4355 -0.0748 -0.2476
12453TIP3   OH258849   4.716   6.133  12.335  0.4319 -0.0409  0.2094
12453TIP3    H158850   4.761   6.190  12.273  0.0462 -0.5735 -0.5686
12453TIP3    H258851   4.726   6.045  12.299  0.4143 -0.3896  1.0323
12454TIP3   OH258852   4.268   4.258  14.077 -0.4807 -0.6997 -0.2472
12454TIP3    H158853   4.234   4.216  13.998 -2.0930  1.2010 -0.6456
12454TIP3    H258854   4.205   4.234  14.146 -2.2563  2.0541 -0.7784
12455TIP3   OH258855   4.985   0.824   4.528  0.5025  0.5139  0.9968
12455TIP3    H158856   4.938   0.900   4.495 -1.2480 -0.1470  1.8707
12455TIP3    H258857   4.981   0.833   4.623 -1.0818 -1.4235  1.1596
12456TIP3   OH258858   1.131   5.258   1.503  0.0080 -0.4638 -0.0318
12456TIP3    H158859   1.079   5.187   1.540 -0.4394  0.3378  0.9647
12456TIP3    H258860   1.206   5.266   1.562 -0.4642  0.5207  0.4720
12457TIP3   OH258861   1.455   3.935   1.725 -0.6514  0.4111  0.2876
12457TIP3    H158862   1.373   3.978   1.699 -0.5719  1.0113  1.0194
12457TIP3    H258863   1.430   3.844   1.741 -1.0506  0.4443 -0.1220
12458TIP3   OH258864   4.222   4.509   5.454 -0.2150 -0.0162 -0.1538
12458TIP3    H158865   4.279   4.515   5.377  0.0863  0.1344  0.0781
12458TIP3    H258866   4.145   4.561   5.431  0.8517  1.9574  0.4922
12459TIP3   OH258867   0.038   6.575   1.675 -0.4933 -0.3821 -0.0997
12459TIP3    H158868  -0.046   6.548   1.639 -0.7654  0.8275 -0.4298
12459TIP3    H258869   0.100   6.562   1.604 -1.0532  2.1281 -1.1417
12460TIP3   OH258870   4.383   6.394  11.634 -0.3114 -0.7525 -0.2780
12460TIP3    H158871   4.329   6.453  11.582  0.6124  1.5040  1.1761
12460TIP3    H258872   4.466   6.440  11.645  0.3196 -2.1415  1.2981
12461TIP3   OH258873   2.709   5.659  14.764 -0.4031 -0.1488  0.7005
12461TIP3    H158874   2.642   5.633  14.701 -0.8571  0.3733  0.9562
12461TIP3    H258875   2.783   5.601  14.746  0.2924  1.3753 -1.7348
12462TIP3   OH258876   6.624   2.792  16.260  0.4640  0.0265  0.3009
12462TIP3    H158877   6.600   2.721  16.319  1.0732  0.1620  0.7278
12462TIP3    H258878   6.706   2.826  16.296  0.4152  0.6483 -0.1586
12463TIP3   OH258879   3.987   2.450   2.072  0.0804  0.3925  0.2191
12463TIP3    H158880   3.965   2.378   2.012  0.2968 -0.5191  1.1966
12463TIP3    H258881   3.964   2.529   2.024 -0.1091 -0.3265 -0.9167
12464TIP3   OH258882   3.983   4.328   3.604  0.3718  0.5076  0.7959
12464TIP3    H158883   3.985   4.239   3.569  0.3348  0.8488 -0.1001
12464TIP3    H258884   3.894   4.340   3.635 -0.1171  0.8042 -0.6488
12465TIP3   OH258885   5.905   2.831  13.669 -0.2835  0.1268  0.0026
12465TIP3    H158886   5.923   2.915  13.712  0.5541  0.4606 -0.9284
12465TIP3    H258887   5.855   2.855  13.591 -0.8557 -0.3431  0.2243
12466TIP3   OH258888   2.623   3.614   0.524  0.2759 -0.1141  0.2081
12466TIP3    H158889   2.602   3.559   0.448 -0.6893 -0.1386  0.4789
12466TIP3    H258890   2.684   3.680   0.491 -0.4741  0.1386 -0.6884
12467TIP3   OH258891   0.441   1.891  12.868  0.1964  0.0947 -0.2538
12467TIP3    H158892   0.390   1.960  12.826 -1.0471 -1.0612 -0.7150
12467TIP3    H258893   0.390   1.811  12.854  0.9346 -0.7195  1.4143
12468TIP3   OH258894   4.800   2.176   6.692 -0.3352 -0.1548  0.2784
12468TIP3    H158895   4.859   2.106   6.663 -2.3998 -1.2758 -1.4424
12468TIP3    H258896   4.827   2.194   6.782  1.5095 -1.7970  0.1224
12469TIP3   OH258897   5.387   5.470   0.491  0.2082 -0.2239  0.3827
12469TIP3    H158898   5.374   5.552   0.540  0.5922 -0.3501  0.7026
12469TIP3    H258899   5.473   5.438   0.520  0.6133 -0.1195 -0.6428
12470TIP3   OH258900   5.507   2.256   2.852 -0.6022 -0.1060  0.2643
12470TIP3    H158901   5.457   2.273   2.933  1.8968 -0.5229  2.0154
12470TIP3    H258902   5.454   2.296   2.783 -2.3532  1.2546  2.2402
12471TIP3   OH258903   5.209   5.634   3.808 -0.3658  0.3521  0.0057
12471TIP3    H158904   5.301   5.636   3.834 -0.8928  0.0917  2.0486
12471TIP3    H258905   5.187   5.541   3.801 -0.6047  0.4052  0.0361
12472TIP3   OH258906   3.203   4.612   2.755 -0.2227 -0.4384 -0.7155
12472TIP3    H158907   3.215   4.698   2.795 -1.7792  1.0915 -3.2688
12472TIP3    H258908   3.122   4.578   2.793 -0.0561 -0.4048 -0.3303
12473TIP3   OH258909   0.528   3.468   0.894  0.3517  0.0606  0.1992
12473TIP3    H158910   0.436   3.483   0.915 -0.4117 -2.3261 -1.0838
12473TIP3    H258911   0.564   3.556   0.881 -1.1587  1.1792  2.8131
12474TIP3   OH258912   2.663   2.041   6.622 -0.2562 -0.3189  0.1856
12474TIP3    H158913   2.592   2.096   6.589 -0.7834 -1.7271 -1.1378
12474TIP3    H258914   2.666   1.966   6.562  0.6399 -1.5859  1.7132
12475TIP3   OH258915   1.703   3.839  16.015 -0.1863 -0.2950 -0.2996
12475TIP3    H158916   1.787   3.812  15.979 -0.3027 -1.7910  0.4520
12475TIP3    H258917   1.722   3.863  16.106 -0.0525  2.5314 -0.9908
12476TIP3   OH258918   1.505   3.317   5.954 -0.3799  0.1967 -0.1426
12476TIP3    H158919   1.546   3.249   5.901  1.3006  1.0644 -0.0337
12476TIP3    H258920   1.515   3.285   6.044 -0.7527  0.0111 -0.1625
12477TIP3   OH258921   2.667   3.226  14.074 -0.7142  0.4785  0.6062
12477TIP3    H158922   2.692   3.315  14.098 -1.2839  0.4225  1.4595
12477TIP3    H258923   2.573   3.222  14.089 -1.1763  0.4941 -1.9299
12478TIP3   OH258924   2.308   6.380  14.437 -0.1889 -0.0671 -0.0395
12478TIP3    H158925   2.317   6.290  14.467  0.2618  1.0272  3.7326
12478TIP3    H258926   2.372   6.429  14.490 -1.1829  2.6137 -1.1248
12479TIP3   OH258927   0.915   4.798  11.251 -0.3895 -0.2916 -0.2551
12479TIP3    H158928   0.923   4.704  11.234  1.2012 -0.2337 -0.0171
12479TIP3    H258929   0.868   4.832  11.176  1.6184 -0.8634 -1.8784
12480TIP3   OH258930   0.660   4.048   5.851 -0.7107 -0.0982 -0.5227
12480TIP3    H158931   0.609   3.980   5.894 -1.4677  0.3060 -0.7740
12480TIP3    H258932   0.660   4.122   5.912  1.4062 -0.8081  0.4503
12481TIP3   OH258933   2.199   0.877  11.687  0.1955  0.4638  0.0952
12481TIP3    H158934   2.161   0.939  11.625  0.0989  0.7837  0.4687
12481TIP3    H258935   2.146   0.887  11.766  0.0998 -0.1864  0.1172
12482TIP3   OH258936   2.294   5.623  16.251 -0.1632  0.3097  0.2002
12482TIP3    H158937   2.224   5.656  16.195 -0.9551 -0.4202  0.7187
12482TIP3    H258938   2.341   5.560  16.196  0.5734  1.3505 -0.3865
12483TIP3   OH258939   3.639   1.886  16.207  0.0798 -0.3091 -0.1503
12483TIP3    H158940   3.711   1.937  16.244 -0.6578  1.2883 -0.8032
12483TIP3    H258941   3.583   1.952  16.166 -0.2522 -1.7719 -2.1869
12484TIP3   OH258942   1.028   1.438   0.563  0.0567 -0.5237  0.4200
12484TIP3    H158943   1.024   1.358   0.511  1.7388 -1.2681  1.3470
12484TIP3    H258944   0.969   1.423   0.636  0.0834 -0.7609  0.3929
12485TIP3   OH258945   3.334   3.940  11.501  0.0596  0.2052  0.2558
12485TIP3    H158946   3.340   3.844  11.497  0.2131  0.2341 -0.3470
12485TIP3    H258947   3.303   3.965  11.414 -1.8559  0.5816  0.9858
12486TIP3   OH258948   2.107   6.546  17.267  0.3208 -0.5939  0.4214
12486TIP3    H158949   2.045   6.474  17.250 -0.4623  0.0195  0.5950
12486TIP3    H258950   2.166   6.544  17.192 -1.8426  0.7811 -1.4623
12487TIP3   OH258951   3.789   4.352   3.807  0.2736 -0.5746 -0.0424
12487TIP3    H158952   3.856   4.299   3.851  0.9598  0.1612 -0.1727
12487TIP3    H258953   3.708   4.303   3.819  0.7359 -1.2039  0.6164
12488TIP3   OH258954   2.853   4.464   3.648 -0.0242 -0.0399 -0.5483
12488TIP3    H158955   2.789   4.489   3.581  0.7098 -0.9124 -1.6030
12488TIP3    H258956   2.931   4.516   3.627  0.4920 -0.9399 -0.9090
12489TIP3   OH258957   4.185   5.049   1.079 -0.4502  0.3189 -0.0038
12489TIP3    H158958   4.190   5.006   1.165 -0.6927 -1.3718 -0.7973
12489TIP3    H258959   4.111   5.007   1.036 -0.8396  1.7342 -0.7509
12490TIP3   OH258960   4.973   3.757  15.533  0.2894 -0.4543 -0.1025
12490TIP3    H158961   5.063   3.724  15.538 -0.0827 -1.8778 -1.7376
12490TIP3    H258962   4.919   3.685  15.568 -0.2366  0.2492  0.5519
12491TIP3   OH258963   4.253   1.528  16.660  0.0961  0.1540 -0.0758
12491TIP3    H158964   4.192   1.474  16.609  0.1536 -0.2763  0.3061
12491TIP3    H258965   4.200   1.599  16.694  0.3901  1.4784 -2.2015
12492TIP3   OH258966   5.962   2.449   3.539  0.1222 -0.1273  0.3791
12492TIP3    H158967   5.964   2.393   3.617 -2.1909  0.2928  0.8050
12492TIP3    H258968   5.967   2.538   3.573 -0.4417  0.0443  0.0204
12493TIP3   OH258969   0.568   6.481  16.997  0.1432 -0.3094 -0.0144
12493TIP3    H158970   0.654   6.450  16.967 -0.4586 -2.8974  0.6247
12493TIP3    H258971   0.552   6.431  17.077 -1.2518  1.3719  0.8219
12494TIP3   OH258972   4.900   6.390   5.954 -0.0792  0.5082 -0.6049
12494TIP3    H158973   4.898   6.303   5.994 -2.5224  0.5579 -0.4965
12494TIP3    H258974   4.991   6.419   5.966  0.2645 -1.1110  1.2999
12495TIP3   OH258975   3.175   5.918   1.293 -0.6360 -0.2244 -0.1136
12495TIP3    H158976   3.248   5.914   1.355  1.4161  0.9363 -2.2750
12495TIP3    H258977   3.098   5.935   1.347  1.0152  0.6944  2.1031
12496TIP3   OH258978   0.503   5.786  15.917 -0.5708 -0.2848 -0.5443
12496TIP3    H158979   0.449   5.713  15.886 -1.2284  0.0403 -0.1716
12496TIP3    H258980   0.593   5.755  15.906 -0.8394 -1.0632 -0.6079
12497TIP3   OH258981   2.086   3.481   2.388  0.2167 -0.1326  0.0315
12497TIP3    H158982   1.990   3.474   2.393  0.2770 -0.3731  1.0741
12497TIP3    H258983   2.102   3.570   2.358 -0.3563 -0.6610 -2.0518
12498TIP3   OH258984   3.316   4.996  14.407 -0.8975 -0.0750  0.2996
12498TIP3    H158985   3.286   5.083  14.382  0.4474  0.0770 -0.9438
12498TIP3    H258986   3.354   5.007  14.494  1.3640  1.1462 -0.7595
12499TIP3   OH258987   3.455   3.289  15.719  0.1813  0.5756 -0.1697
12499TIP3    H158988   3.536   3.337  15.702  1.6798 -1.6480  0.2066
12499TIP3    H258989   3.396   3.316  15.648  1.1905  2.3378 -0.3890
12500TIP3   OH258990   5.906   2.666  11.490  0.0593 -0.1356  0.1154
12500TIP3    H158991   5.914   2.601  11.559 -0.4224  1.8383  2.1414
12500TIP3    H258992   5.941   2.747  11.528 -3.6319  1.9850 -0.5038
12501TIP3   OH258993   3.994   1.289  14.685 -0.3804 -0.0097 -0.2472
12501TIP3    H158994   3.984   1.369  14.738  1.3131 -0.5468  0.9830
12501TIP3    H258995   3.965   1.315  14.598 -1.3581  1.4961  0.4582
12502TIP3   OH258996   6.259   4.558   4.747  0.4040 -1.0305  0.3915
12502TIP3    H158997   6.227   4.647   4.763 -0.6938 -1.2202 -0.6043
12502TIP3    H258998   6.224   4.506   4.819  1.3916 -0.5877  1.2019
12503TIP3   OH258999   4.518   5.035   6.877 -0.6813 -0.1159  0.0620
12503TIP3    H159000   4.469   4.975   6.821  0.1597 -0.9647  0.2066
12503TIP3    H259001   4.508   5.121   6.835  0.4438 -0.8179 -1.8035
12504TIP3   OH259002   4.699   0.670   5.288 -0.2989  0.3892  0.1141
12504TIP3    H159003   4.632   0.703   5.348  0.2090  0.5547  0.5900
12504TIP3    H259004   4.663   0.688   5.201 -1.3854 -0.5406  0.3447
12505TIP3   OH259005   0.185   2.740  15.286 -0.0078 -0.5659 -0.0231
12505TIP3    H159006   0.164   2.834  15.289 -0.1316 -0.5630 -0.7795
12505TIP3    H259007   0.272   2.734  15.326  0.7381  0.1061 -1.4742
12506TIP3   OH259008   4.525   2.019   5.516  0.5980 -0.3770 -0.4528
12506TIP3    H159009   4.596   2.079   5.493  0.0762  1.2108  1.8237
12506TIP3    H259010   4.571   1.940   5.545  1.5229  0.7297  1.2825
12507TIP3   OH259011   6.064   3.033   5.497 -0.0872 -0.1139  0.4390
12507TIP3    H159012   6.075   3.060   5.406  0.2998 -0.0541  0.5025
12507TIP3    H259013   6.000   3.096   5.533  0.4173  0.4100  0.4432
12508TIP3   OH259014   5.748   3.540  15.527 -0.4748 -0.5119 -0.3359
12508TIP3    H159015   5.661   3.561  15.495 -0.0982  0.4080 -0.7938
12508TIP3    H259016   5.803   3.542  15.449  0.0269 -0.7134  0.0067
12509TIP3   OH259017   4.073   5.746  13.516 -0.4026 -0.5634 -0.8615
12509TIP3    H159018   4.104   5.830  13.482  0.2235  0.0490  1.0780
12509TIP3    H259019   4.097   5.683  13.448 -1.2121  0.8160 -2.5403
12510TIP3   OH259020   0.939   2.088   5.444 -0.5835 -0.3833  1.0932
12510TIP3    H159021   0.957   2.170   5.398  0.6312 -1.7707 -1.0802
12510TIP3    H259022   0.985   2.096   5.527  0.3205  0.7620  0.5078
12511TIP3   OH259023   4.287   5.220  16.749 -0.2113 -0.1517  0.0043
12511TIP3    H159024   4.209   5.195  16.699  0.0287  0.3373 -0.6319
12511TIP3    H259025   4.302   5.147  16.810 -1.0299 -0.3477 -0.0273
12512TIP3   OH259026   5.418   4.240   5.327  0.1153  0.1756 -0.1715
12512TIP3    H159027   5.418   4.264   5.420  0.6359  2.0076 -0.5998
12512TIP3    H259028   5.505   4.201   5.313 -0.2368 -0.7924  0.2482
12513TIP3   OH259029   6.640   4.408   2.231 -0.0472 -0.2371 -0.2550
12513TIP3    H159030   6.703   4.445   2.293 -1.8586  0.2950  1.3601
12513TIP3    H259031   6.589   4.346   2.282 -0.3000 -1.3088 -1.7428
12514TIP3   OH259032   0.264   5.192   5.521 -0.2629 -0.1906 -0.7018
12514TIP3    H159033   0.195   5.254   5.546  0.7292  0.4310  0.6051
12514TIP3    H259034   0.285   5.215   5.430 -0.0885  1.2606 -0.3238
12515TIP3   OH259035   6.595   3.749  12.108 -0.2213  1.3778 -0.4583
12515TIP3    H159036   6.605   3.761  12.014  0.2660 -0.6374 -0.7243
12515TIP3    H259037   6.519   3.691  12.117 -0.6014  1.9910  0.4296
12516TIP3   OH259038   6.010   1.999   1.228  0.2849 -0.3358 -0.1484
12516TIP3    H159039   5.955   2.050   1.287  0.0409  0.7803 -1.3114
12516TIP3    H259040   5.997   2.038   1.142  0.6567 -1.9154 -0.9625
12517TIP3   OH259041   0.373   3.101   3.388  0.5006 -0.0682 -0.4352
12517TIP3    H159042   0.408   3.190   3.396  1.7503 -0.6597  1.4824
12517TIP3    H259043   0.450   3.047   3.368  0.0416 -0.9043 -0.0213
12518TIP3   OH259044   4.353   2.474   3.153  0.2087 -0.2243  0.3957
12518TIP3    H159045   4.427   2.449   3.097 -1.6058 -2.1456 -1.3444
12518TIP3    H259046   4.276   2.461   3.098 -1.5180  1.0100  2.3528
12519TIP3   OH259047   1.591   4.159  15.900 -0.1282 -0.2529  0.3290
12519TIP3    H159048   1.677   4.144  15.940  1.0359  0.0801 -1.8739
12519TIP3    H259049   1.556   4.072  15.885 -0.3569 -0.3895  1.5224
12520TIP3   OH259050   6.759   1.286  11.139 -0.3839  0.1750  0.0062
12520TIP3    H159051   6.730   1.362  11.190 -0.8007 -0.1651  0.2721
12520TIP3    H259052   6.848   1.310  11.112 -1.2212  1.6396 -1.6425
12521TIP3   OH259053   3.684   3.007  11.051 -0.0182  0.4490  0.5873
12521TIP3    H159054   3.710   2.953  10.977  2.1232  2.1457 -0.0138
12521TIP3    H259055   3.759   3.005  11.110 -0.5817  1.3585  1.3631
12522TIP3   OH259056   2.846   4.722  15.733 -0.0641 -0.3956 -0.5517
12522TIP3    H159057   2.759   4.682  15.734 -0.2321 -0.1333 -2.0551
12522TIP3    H259058   2.901   4.657  15.689  0.5306 -0.5845  0.4385
12523TIP3   OH259059   2.105   0.087   5.399  0.1646  0.3965  0.2721
12523TIP3    H159060   2.169   0.022   5.429 -0.0489 -0.6437 -1.4146
12523TIP3    H259061   2.154   0.169   5.394  0.7015  0.1621  1.4397
12524TIP3   OH259062   0.149   2.036   1.515  0.2533  0.2122 -0.2386
12524TIP3    H159063   0.238   2.001   1.507 -0.2163 -1.0468 -0.2009
12524TIP3    H259064   0.135   2.085   1.433  0.5662 -0.5672 -0.7701
12525TIP3   OH259065   3.748   5.102  14.227  0.3297  0.6600 -0.4171
12525TIP3    H159066   3.776   5.153  14.302  2.2713  0.8984 -1.2441
12525TIP3    H259067   3.710   5.022  14.264 -1.9014  2.2217  0.8583
12526TIP3   OH259068   2.514   5.443   3.634 -0.0893  0.1783 -0.5864
12526TIP3    H159069   2.520   5.536   3.657 -0.4512  0.1110 -0.1969
12526TIP3    H259070   2.549   5.397   3.711  1.0558  0.0148 -1.1793
12527TIP3   OH259071   4.368   5.729  11.056 -0.3163  0.0342 -0.1027
12527TIP3    H159072   4.413   5.716  11.139  1.1801  0.5972 -0.7881
12527TIP3    H259073   4.275   5.723  11.077  0.0536 -0.1053  1.5536
12528TIP3   OH259074   0.451   2.263  13.872  0.4574  0.0918  0.0222
12528TIP3    H159075   0.424   2.353  13.890  1.2057  0.3908 -0.3179
12528TIP3    H259076   0.369   2.214  13.867 -0.1302  1.1477 -1.8933
12529TIP3   OH259077   5.121   1.737   0.129 -0.0022 -0.1392 -0.1237
12529TIP3    H159078   5.076   1.820   0.147  1.3605  0.8429 -0.9821
12529TIP3    H259079   5.107   1.684   0.207 -1.0529  0.8384  0.3769
12530TIP3   OH259080   4.038   2.896   3.941 -0.2740  0.7927 -0.5004
12530TIP3    H159081   4.120   2.848   3.930 -0.1970  0.8315 -0.1098
12530TIP3    H259082   4.023   2.896   4.035  0.0193  2.0137 -0.4419
12531TIP3   OH259083   1.377   0.162  13.381 -0.1880 -0.0757  0.1047
12531TIP3    H159084   1.350   0.085  13.331 -0.5518  0.2471 -0.2085
12531TIP3    H259085   1.449   0.200  13.331 -1.0758  0.6961 -0.6098
12532TIP3   OH259086   0.939   0.571   3.381  0.4596  0.0003 -0.0142
12532TIP3    H159087   0.920   0.543   3.291  1.3549 -0.4147 -0.0808
12532TIP3    H259088   0.959   0.664   3.373  3.6222 -0.6440 -0.7584
12533TIP3   OH259089   4.912   5.758  15.658  0.2105 -0.0423 -0.1455
12533TIP3    H159090   4.823   5.791  15.673  0.5756  0.3110  1.3588
12533TIP3    H259091   4.967   5.837  15.659  0.4993 -0.1922 -1.6454
12534TIP3   OH259092   0.857   5.173   5.984  0.0155 -0.0455 -0.1911
12534TIP3    H159093   0.945   5.177   5.947  0.7372  2.3858  1.5518
12534TIP3    H259094   0.815   5.254   5.955 -0.5470  0.2935  1.4497
12535TIP3   OH259095   4.685   5.122   0.714  0.0415 -0.2122 -0.6435
12535TIP3    H159096   4.743   5.133   0.638 -1.4226 -1.0442 -1.9365
12535TIP3    H259097   4.638   5.041   0.696 -1.7078  0.5583  0.2267
12536TIP3   OH259098   6.474   2.277  11.098  0.3579 -0.1346 -0.2499
12536TIP3    H159099   6.495   2.192  11.060  0.1777 -0.6267  0.7236
12536TIP3    H259100   6.558   2.324  11.099  1.4858 -1.9040  3.1530
12537TIP3   OH259101   1.705   4.159  13.589  0.0958  0.2476 -0.4704
12537TIP3    H159102   1.618   4.142  13.553  0.6880 -1.5734 -1.1677
12537TIP3    H259103   1.765   4.117  13.528  1.5418  2.0297 -0.3466
12538TIP3   OH259104   2.628   5.353  14.644  0.0916  0.2337 -0.3636
12538TIP3    H159105   2.557   5.310  14.692  0.1109 -2.2058 -2.2773
12538TIP3    H259106   2.586   5.428  14.601 -0.1520  1.7918  2.3956
12539TIP3   OH259107   5.691   2.721   2.342 -0.1861 -0.1907 -0.1476
12539TIP3    H159108   5.648   2.679   2.417  0.6781  3.0149  2.4072
12539TIP3    H259109   5.621   2.736   2.279 -1.9699  0.7379  1.9046
12540TIP3   OH259110   2.773   5.900  16.153 -0.2361 -0.4309 -0.1392
12540TIP3    H159111   2.694   5.854  16.123 -0.6865  1.2816 -1.7444
12540TIP3    H259112   2.746   5.991  16.160  1.3845  0.0436  0.1839
12541TIP3   OH259113   3.852   1.727   4.343  0.5028 -0.0110 -0.1003
12541TIP3    H159114   3.859   1.641   4.384 -0.1794 -0.5363 -1.0739
12541TIP3    H259115   3.779   1.769   4.388  2.0420  0.8617  1.7455
12542TIP3   OH259116   5.367   3.852   0.117  0.0214  0.3540  0.6272
12542TIP3    H159117   5.362   3.772   0.064 -0.1946  0.0215  1.1403
12542TIP3    H259118   5.454   3.886   0.101  0.6298 -0.7332  1.4559
12543TIP3   OH259119   4.857   1.408  16.309 -0.3894  0.3357 -0.0839
12543TIP3    H159120   4.792   1.406  16.380  0.7380  0.4170  0.9918
12543TIP3    H259121   4.866   1.316  16.283 -0.9118  0.3212 -0.2244
12544TIP3   OH259122   0.578   4.446   3.392  0.4466 -0.1089 -0.3955
12544TIP3    H159123   0.664   4.471   3.426  0.6642 -1.2720 -0.0481
12544TIP3    H259124   0.544   4.383   3.456 -1.8020  2.1720  0.8484
12545TIP3   OH259125   5.438   1.557   3.565  0.1559  0.1551  0.0817
12545TIP3    H159126   5.367   1.506   3.524  0.3436 -1.5904  1.7791
12545TIP3    H259127   5.484   1.597   3.491 -1.7172  0.1572 -1.1546
12546TIP3   OH259128   5.551   4.721  14.295 -0.9194  0.6557 -0.5794
12546TIP3    H159129   5.608   4.797  14.288 -0.7816  0.5814 -0.3091
12546TIP3    H259130   5.559   4.677  14.211 -1.3975  1.2118 -0.9207
12547TIP3   OH259131   1.890   4.784  11.366  0.4679 -0.6625 -0.1266
12547TIP3    H159132   1.799   4.755  11.366  0.7659 -1.6357 -0.4320
12547TIP3    H259133   1.885   4.878  11.382 -0.6036 -0.6587 -0.4027
12548TIP3   OH259134   4.608   0.074  11.223 -0.2246 -0.6584  0.1201
12548TIP3    H159135   4.540   0.120  11.272 -0.0104 -0.8155  0.5707
12548TIP3    H259136   4.611   0.118  11.139  1.1319  1.2862  1.1099
12549TIP3   OH259137   0.895   4.078  11.184  0.2773  0.0500  0.1700
12549TIP3    H159138   0.883   4.173  11.183  0.1277  0.0368 -0.7118
12549TIP3    H259139   0.842   4.048  11.258  1.3883  0.7604  1.3021
12550TIP3   OH259140   1.734   6.616  16.487 -0.4143  0.1504  0.1986
12550TIP3    H159141   1.762   6.707  16.493  1.0803 -0.3225  1.0071
12550TIP3    H259142   1.691   6.609  16.402  0.7061  1.2813 -0.4909
12551TIP3   OH259143   4.201   0.492  13.363  0.1124 -0.7430 -0.4688
12551TIP3    H159144   4.293   0.517  13.354  0.3910 -1.9202 -1.1606
12551TIP3    H259145   4.156   0.538  13.292 -0.1638  1.1230  0.8232
12552TIP3   OH259146   5.332   4.418   0.857 -0.0924  0.1946  0.6637
12552TIP3    H159147   5.301   4.506   0.879  1.3043  1.2738 -1.3856
12552TIP3    H259148   5.417   4.411   0.900 -0.0906 -0.0732  0.6166
12553TIP3   OH259149   3.370   1.335   4.783  0.1732  0.8878 -0.2904
12553TIP3    H159150   3.395   1.311   4.872 -2.2496 -0.2144  0.1654
12553TIP3    H259151   3.351   1.429   4.788 -2.2622  0.4034  1.0227
12554TIP3   OH259152   4.482   0.093   5.627 -0.0256 -0.1247  0.2745
12554TIP3    H159153   4.416   0.085   5.557 -0.4700 -0.4285  0.7264
12554TIP3    H259154   4.439   0.059   5.705  0.2027  0.8896  0.8712
12555TIP3   OH259155   2.546   4.488   1.214  0.4113  0.1804  0.5783
12555TIP3    H159156   2.635   4.467   1.184  1.0243  2.0977  0.9665
12555TIP3    H259157   2.504   4.402   1.224  1.6641 -0.7051 -1.2117
12556TIP3   OH259158   5.702   2.155   3.573 -0.3885 -0.4415 -0.0476
12556TIP3    H159159   5.660   2.223   3.625 -0.6102 -1.4310  1.1120
12556TIP3    H259160   5.683   2.179   3.483 -0.0617  1.2744  0.3059
12557TIP3   OH259161   0.385   3.520   3.040  0.7088 -0.3366 -0.1686
12557TIP3    H159162   0.450   3.475   3.093  1.4423  0.0717 -0.7079
12557TIP3    H259163   0.436   3.569   2.975 -0.0942  0.7304 -0.0181
12558TIP3   OH259164   0.692   5.239  12.867 -0.0290  0.0461  0.3404
12558TIP3    H159165   0.615   5.294  12.880 -0.7117 -0.6774 -0.5686
12558TIP3    H259166   0.766   5.300  12.872 -0.5034  0.5382  2.7795
12559TIP3   OH259167   3.842   4.267   5.608  0.1214 -0.3935  0.1650
12559TIP3    H159168   3.860   4.262   5.702 -1.0709 -0.1669  0.4194
12559TIP3    H259169   3.825   4.176   5.582  0.7178 -0.4916  0.1036
12560TIP3   OH259170   6.687   4.297   4.668  0.0691  0.6186  0.2613
12560TIP3    H159171   6.759   4.276   4.608 -0.6101  0.7852 -0.6378
12560TIP3    H259172   6.726   4.291   4.755  0.7212 -1.0434 -0.1112
12561TIP3   OH259173   5.179   2.126   5.535  0.0546 -0.6811  0.0443
12561TIP3    H159174   5.257   2.081   5.502 -0.9355 -1.4912 -1.3165
12561TIP3    H259175   5.131   2.058   5.583  0.2150 -0.1662  0.9462
12562TIP3   OH259176   6.189   0.710  14.640  0.1789  0.1844 -0.3660
12562TIP3    H159177   6.209   0.786  14.585  2.4056  0.6195  0.9387
12562TIP3    H259178   6.211   0.738  14.729 -2.3377 -0.8555  0.6878
12563TIP3   OH259179   1.149   5.584  15.024  0.6785 -0.2169  0.1534
12563TIP3    H159180   1.106   5.511  15.068 -0.1591  0.7181  0.9532
12563TIP3    H259181   1.169   5.552  14.936  1.6587 -1.8715  0.9332
12564TIP3   OH259182   3.463   1.066   5.662  0.2972  0.0135 -0.0855
12564TIP3    H159183   3.367   1.073   5.656  0.0929 -0.8634  1.5095
12564TIP3    H259184   3.495   1.150   5.631 -0.9499  0.0702 -1.3338
12565TIP3   OH259185   4.211   0.229   5.674 -0.4006  0.4450  0.1381
12565TIP3    H159186   4.185   0.311   5.632 -0.9611  0.6666  0.8932
12565TIP3    H259187   4.235   0.171   5.602 -0.6031  1.0723 -0.4379
12566TIP3   OH259188   5.609   5.966   2.660 -0.4317 -0.1944 -0.0795
12566TIP3    H159189   5.703   5.966   2.677 -0.3360 -1.9020 -0.4540
12566TIP3    H259190   5.598   5.919   2.578 -1.5251  1.2406 -0.8114
12567TIP3   OH259191   2.893   1.399   2.191 -0.7233  0.2717  0.3910
12567TIP3    H159192   2.868   1.307   2.192 -0.3758  0.1734  1.4672
12567TIP3    H259193   2.814   1.446   2.217 -0.7214  0.2216  0.4890
12568TIP3   OH259194   2.923   5.183   1.303 -0.0002  0.5124 -0.2929
12568TIP3    H159195   2.974   5.103   1.316 -0.6777 -0.0350 -0.8884
12568TIP3    H259196   2.914   5.221   1.390  0.0805 -0.2157  0.0378
12569TIP3   OH259197   2.367   6.227  13.426 -0.0496  0.6695 -0.2748
12569TIP3    H159198   2.409   6.146  13.396 -1.5984  0.1767 -1.2371
12569TIP3    H259199   2.352   6.277  13.345  1.4727  2.2521  0.3585
12570TIP3   OH259200   2.443   5.882  11.814  0.1154 -0.0400 -0.2853
12570TIP3    H159201   2.458   5.878  11.719  1.4143 -0.3543 -0.0884
12570TIP3    H259202   2.370   5.823  11.829  0.0805 -0.2055 -1.0649
12571TIP3   OH259203   5.101   0.799   4.207  0.1712  0.2829 -1.0220
12571TIP3    H159204   5.038   0.843   4.151  2.8863  1.1622 -3.6818
12571TIP3    H259205   5.083   0.706   4.196  0.0724  0.4717 -2.7390
12572TIP3   OH259206   4.505   4.861   3.357 -0.7132 -0.3662  0.0140
12572TIP3    H159207   4.560   4.864   3.279  1.9388  0.7461  1.7466
12572TIP3    H259208   4.499   4.768   3.379  1.7048 -0.4793  0.4751
12573TIP3   OH259209   2.027   5.924   5.984 -0.2286  0.0373 -0.0102
12573TIP3    H159210   2.030   5.850   5.923  0.7116  1.0497 -1.2648
12573TIP3    H259211   1.935   5.950   5.985 -0.3256 -0.2517 -0.6855
12574TIP3   OH259212   0.608   0.271  14.439 -0.0648 -0.1785  0.2764
12574TIP3    H159213   0.601   0.274  14.534  1.0290  0.6212  0.3541
12574TIP3    H259214   0.540   0.210  14.412  0.8537 -1.9628  1.7083
12575TIP3   OH259215   0.161   1.792  13.823  0.0797  0.1096 -0.5248
12575TIP3    H159216   0.194   1.702  13.829 -0.3058  0.0461  1.0548
12575TIP3    H259217   0.094   1.798  13.891  2.0932  2.4064  1.4497
12576TIP3   OH259218   0.793   1.905  12.365 -0.1035 -0.2118  0.1037
12576TIP3    H159219   0.814   1.812  12.375  0.6094  0.0121  0.8192
12576TIP3    H259220   0.710   1.906  12.317  0.0494 -1.2063 -0.1997
12577TIP3   OH259221   5.784   4.307   3.237  0.3715  0.2441 -0.0255
12577TIP3    H159222   5.757   4.237   3.296  0.0390 -0.6997 -1.2592
12577TIP3    H259223   5.843   4.361   3.290  1.2100 -1.3553  0.7500
12578TIP3   OH259224   0.869   1.156   0.125 -0.4749  0.2644 -0.5717
12578TIP3    H159225   0.923   1.167   0.203 -1.6194  0.3533  0.2190
12578TIP3    H259226   0.845   1.245   0.100 -0.1896  0.2298 -0.9828
12579TIP3   OH259227   6.373   1.268  15.844  0.4305 -0.6214  0.1121
12579TIP3    H159228   6.463   1.245  15.818  0.1359 -0.9262 -0.6799
12579TIP3    H259229   6.379   1.288  15.937  1.1857 -1.4054  0.2449
12580TIP3   OH259230   3.991   5.517   0.344 -0.8702 -0.0446 -0.3120
12580TIP3    H159231   3.918   5.558   0.297 -0.6041 -0.3830 -1.0310
12580TIP3    H259232   4.069   5.559   0.307 -0.6473 -0.5053 -0.3700
12581TIP3   OH259233   4.042   3.049  14.682 -0.7531  0.2255 -0.2751
12581TIP3    H159234   4.009   2.965  14.713 -1.2643  0.3517 -0.4608
12581TIP3    H259235   4.042   3.105  14.760 -2.5498  0.7016 -0.5676
12582TIP3   OH259236   5.175   6.560  15.519 -0.4960 -1.0748  0.5419
12582TIP3    H159237   5.158   6.510  15.599 -0.6947 -0.2171  1.0463
12582TIP3    H259238   5.262   6.597  15.533  0.1137 -2.1251 -0.2891
12583TIP3   OH259239   1.463   4.160   0.216  0.6402  0.4695  0.5348
12583TIP3    H159240   1.432   4.250   0.229 -1.7434 -0.3333  0.9695
12583TIP3    H259241   1.469   4.124   0.305 -0.1364 -0.3003  0.2867
12584TIP3   OH259242   6.395   3.490  11.282  0.3351  0.1584  0.4301
12584TIP3    H159243   6.462   3.442  11.331  0.7784 -1.3338 -1.4914
12584TIP3    H259244   6.408   3.463  11.191 -2.4690  0.3028 -0.1145
12585TIP3   OH259245   3.819   0.843   1.406  0.3827 -0.2193  0.0161
12585TIP3    H159246   3.798   0.796   1.326  0.4973 -0.8030  0.3253
12585TIP3    H259247   3.761   0.920   1.405 -1.0512 -1.2530  0.3329
12586TIP3   OH259248   5.232   0.017   1.882  0.1817 -0.0516  0.4243
12586TIP3    H159249   5.173   0.092   1.887 -0.8405 -0.8918  1.7315
12586TIP3    H259250   5.309   0.050   1.838 -0.1945  1.8082  1.0734
12587TIP3   OH259251   6.434   6.643  15.331 -0.4625  0.3676  0.9178
12587TIP3    H159252   6.472   6.649  15.418 -1.2294 -1.5343  1.4498
12587TIP3    H259253   6.457   6.554  15.301  2.3539  1.8923 -2.1309
12588TIP3   OH259254   3.370   5.689  11.623 -0.6988  0.8474 -0.3177
12588TIP3    H159255   3.439   5.640  11.579  1.4618  1.5632  2.0422
12588TIP3    H259256   3.318   5.727  11.552  2.1224  1.3857 -2.2663
12589TIP3   OH259257   2.335   6.202   6.495  0.1095 -0.6265 -0.0959
12589TIP3    H159258   2.382   6.119   6.507 -1.4190 -1.5053  0.1192
12589TIP3    H259259   2.245   6.175   6.477 -0.3599  1.0035 -0.2858
12590TIP3   OH259260   4.520   0.229   1.772 -0.4603  0.2420  0.5177
12590TIP3    H159261   4.582   0.195   1.708 -0.0043  2.4200 -0.2794
12590TIP3    H259262   4.441   0.176   1.759  0.0497 -0.2063 -0.9719
12591TIP3   OH259263   6.070   2.072   0.219  0.0148  0.2593  0.2460
12591TIP3    H159264   6.137   2.130   0.184  0.3850 -2.3020 -3.8962
12591TIP3    H259265   5.988   2.119   0.202  0.4577  1.2918  0.8274
12592TIP3   OH259266   0.551   0.775  16.697 -0.2885  0.4989  0.0250
12592TIP3    H159267   0.591   0.783  16.611  0.1210  0.5197  0.2131
12592TIP3    H259268   0.544   0.681  16.713  0.7392  0.4817  0.4642
12593TIP3   OH259269   6.440   0.799   2.784 -0.5517 -1.0253 -0.1821
12593TIP3    H159270   6.427   0.755   2.868  0.9275 -1.3966 -0.1140
12593TIP3    H259271   6.375   0.869   2.783 -1.3023 -1.6813  0.7932
12594TIP3   OH259272   6.607   0.117  13.435 -0.7115 -0.2242  0.0836
12594TIP3    H159273   6.614   0.209  13.461 -0.5762 -0.3401  0.4817
12594TIP3    H259274   6.524   0.087  13.473  0.4641 -0.9538  2.2523
12595TIP3   OH259275   1.732   1.740   1.837  0.1825  0.2869 -0.1820
12595TIP3    H159276   1.780   1.817   1.865  0.7114 -0.3806  0.8037
12595TIP3    H259277   1.701   1.761   1.749 -0.1630  1.8282  0.2850
12596TIP3   OH259278   3.792   6.404  11.084 -0.4418 -0.4443 -0.5558
12596TIP3    H159279   3.737   6.472  11.044  1.9711  0.3376 -2.8404
12596TIP3    H259280   3.828   6.356  11.010  2.0111 -0.8285  0.7842
12597TIP3   OH259281   3.691   3.479   3.227 -0.4422 -0.8024  0.4629
12597TIP3    H159282   3.616   3.446   3.277 -2.1358 -0.0928 -1.4821
12597TIP3    H259283   3.654   3.506   3.143  2.4451 -3.4267 -1.9289
12598TIP3   OH259284   0.346   5.496  11.763  0.1267  0.0297 -1.0183
12598TIP3    H159285   0.404   5.473  11.691 -0.5582  0.4608 -1.7240
12598TIP3    H259286   0.288   5.564  11.727  1.6627  2.4693  0.7817
12599TIP3   OH259287   5.371   2.557   2.009  0.4516 -0.1395  0.6023
12599TIP3    H159288   5.319   2.621   1.961 -0.5162 -1.2974  0.0370
12599TIP3    H259289   5.333   2.554   2.096 -0.1531 -0.6256  0.3356
12600TIP3   OH259290   3.903   2.018   6.383 -0.3117  0.4795 -0.1765
12600TIP3    H159291   3.975   1.955   6.383 -0.4102  0.3158  1.6059
12600TIP3    H259292   3.825   1.966   6.403 -0.4735  1.0860  0.8023
12601TIP3   OH259293   5.389   1.434   0.439  0.3090  0.0417 -0.3821
12601TIP3    H159294   5.322   1.380   0.479  0.6354 -1.6006 -1.9328
12601TIP3    H259295   5.464   1.428   0.499  0.6825 -2.1025 -0.9794
12602TIP3   OH259296   1.543   4.820  12.290 -0.0121 -0.1579  0.5364
12602TIP3    H159297   1.511   4.855  12.206 -0.6040  0.7664  1.1278
12602TIP3    H259298   1.625   4.866  12.306 -0.4309  0.4623  0.9645
12603TIP3   OH259299   6.065   0.543  15.511  0.6896  0.0487  0.5981
12603TIP3    H159300   5.998   0.481  15.482  0.5550  0.7671 -0.6765
12603TIP3    H259301   6.072   0.528  15.606  0.1779 -1.4272  0.4332
12604TIP3   OH259302   2.425   5.023   4.994 -0.3373  0.2902 -0.0740
12604TIP3    H159303   2.429   5.091   5.061 -0.3989  0.3766 -0.1576
12604TIP3    H259304   2.376   4.951   5.034  0.6167 -0.1203  0.3860
12605TIP3   OH259305   5.561   3.044   4.832  0.9615 -0.4245 -0.0672
12605TIP3    H159306   5.649   3.074   4.806  0.1549  0.8132 -1.5656
12605TIP3    H259307   5.546   2.966   4.780  0.9868 -0.3728 -0.1520
12606TIP3   OH259308   5.015   1.207   2.653  0.3952  0.7615 -0.8319
12606TIP3    H159309   4.994   1.154   2.576 -0.1019  0.2401 -0.3467
12606TIP3    H259310   5.110   1.220   2.648  0.7295 -1.2257 -0.3170
12607TIP3   OH259311   6.029   2.904  15.171  0.1487  0.2099  0.8710
12607TIP3    H159312   5.978   2.971  15.125  0.5224  0.1785  0.3972
12607TIP3    H259313   6.105   2.889  15.115 -0.1642 -0.9647  0.7327
12608TIP3   OH259314   2.675   5.763  11.425 -0.0388 -0.1529 -0.2302
12608TIP3    H159315   2.660   5.669  11.435  0.3236 -0.3065 -1.0191
12608TIP3    H259316   2.763   5.777  11.459 -0.0047 -0.1379 -0.3243
12609TIP3   OH259317   3.698   2.077   6.934  0.1069  0.2095  0.1225
12609TIP3    H159318   3.765   2.142   6.953 -0.6603  1.2749 -0.6801
12609TIP3    H259319   3.721   2.002   6.989  1.2520  0.9934  0.7599
12610TIP3   OH259320   3.093   5.013  17.144 -0.0692 -0.3293  0.3360
12610TIP3    H159321   3.122   4.961  17.069  0.6144  0.5981 -0.0635
12610TIP3    H259322   3.106   5.104  17.117  0.2943  0.0233  1.6136
12611TIP3   OH259323   4.182   1.136  14.496 -0.2222  0.5515 -0.0402
12611TIP3    H159324   4.119   1.177  14.555 -0.7515 -0.8034  0.3610
12611TIP3    H259325   4.232   1.209  14.460 -3.0370  1.8557 -1.6279
12612TIP3   OH259326   0.808   0.995  16.540  0.4562  0.3195 -0.0893
12612TIP3    H159327   0.854   1.034  16.466  0.8895 -0.4444 -0.2370
12612TIP3    H259328   0.758   0.922  16.503 -0.5765  0.8991  0.1324
12613TIP3   OH259329   4.956   3.046  13.085 -0.9909  0.2852  0.5334
12613TIP3    H159330   4.970   2.954  13.064 -1.1174  0.2209  0.7282
12613TIP3    H259331   5.007   3.093  13.019  0.8923  0.0421  1.7113
12614TIP3   OH259332   3.847   0.626   2.328 -0.1336 -0.2170  0.3471
12614TIP3    H159333   3.825   0.634   2.420  0.8195  1.0195  0.5041
12614TIP3    H259334   3.879   0.537   2.318 -2.2517 -1.0648  0.7208
12615TIP3   OH259335   4.397   1.500  12.751  0.5017 -0.4140  0.1392
12615TIP3    H159336   4.430   1.429  12.806 -0.0856 -1.0114 -0.2648
12615TIP3    H259337   4.390   1.575  12.810  3.0710 -0.0853  0.1343
12616TIP3   OH259338   5.622   0.094  14.108 -0.7756  0.5523 -0.6369
12616TIP3    H159339   5.687   0.099  14.178 -0.4719  1.4679 -0.9607
12616TIP3    H259340   5.648   0.018  14.056 -1.2798 -0.4234  0.4915
12617TIP3   OH259341   6.031   4.943   5.385  0.9178  0.1169 -0.1838
12617TIP3    H159342   6.025   4.854   5.349 -1.7293  0.4882 -0.8765
12617TIP3    H259343   5.985   4.938   5.468 -2.3331  1.4477 -1.7381
12618TIP3   OH259344   3.273   4.210  13.246  0.8812  0.2157  0.0680
12618TIP3    H159345   3.333   4.135  13.237 -0.4263 -1.0541  1.3875
12618TIP3    H259346   3.187   4.174  13.222  0.6869  2.2350 -2.7975
12619TIP3   OH259347   5.651   0.097   4.158 -0.1969 -0.3735 -0.0918
12619TIP3    H159348   5.638   0.190   4.140 -1.3356 -0.6010 -0.5731
12619TIP3    H259349   5.742   0.080   4.133 -0.6459  0.1243 -2.2946
12620TIP3   OH259350   2.663   3.184   4.735 -0.1716  0.1904 -0.2112
12620TIP3    H159351   2.744   3.187   4.787 -0.1647 -2.3411  0.0237
12620TIP3    H259352   2.687   3.135   4.657 -1.2800  0.1420 -0.5303
12621TIP3   OH259353   5.712   4.788  12.987 -0.2019  0.0995 -0.0923
12621TIP3    H159354   5.746   4.809  12.900 -2.4563 -1.3467 -1.4368
12621TIP3    H259355   5.730   4.866  13.040  0.3018  1.4432 -2.1437
12622TIP3   OH259356   1.902   4.522   4.056 -0.1964  0.2322  0.2157
12622TIP3    H159357   1.878   4.594   4.114  0.3382  0.4718  0.1441
12622TIP3    H259358   1.984   4.488   4.092 -0.0586  0.1413 -0.1751
12623TIP3   OH259359   0.539   1.181   2.616  0.5966 -0.7043  0.1448
12623TIP3    H159360   0.480   1.106   2.618  0.3490 -0.5201 -0.0681
12623TIP3    H259361   0.627   1.143   2.609  0.4599 -0.9725 -0.1498
12624TIP3   OH259362   6.088   1.923   5.561 -0.0843  0.3909 -0.1412
12624TIP3    H159363   6.067   1.868   5.637  0.0188 -1.5198 -1.4226
12624TIP3    H259364   6.183   1.938   5.568  0.2610 -1.2946 -0.8044
12625TIP3   OH259365   4.069   6.652  14.418  0.4039 -0.4171 -0.2648
12625TIP3    H159366   4.106   6.577  14.466  0.8900 -1.4325 -2.1423
12625TIP3    H259367   4.010   6.613  14.354 -3.2003  1.0955  1.8405
12626TIP3   OH259368   6.679   1.135   3.322 -0.1737 -0.0713 -0.2387
12626TIP3    H159369   6.674   1.200   3.392 -0.5258  0.4872 -0.7706
12626TIP3    H259370   6.628   1.173   3.251 -0.3195 -0.9024 -0.5857
12627TIP3   OH259371   0.243   6.708  11.657 -0.0556 -0.2999  0.3243
12627TIP3    H159372   0.326   6.755  11.648  0.2304 -0.7392  0.6603
12627TIP3    H259373   0.213   6.728  11.745 -0.6432  0.3929 -0.0223
12628TIP3   OH259374   5.852   5.383  16.845  0.4784 -0.7472  0.3981
12628TIP3    H159375   5.781   5.340  16.798 -0.3006 -0.0700  0.9202
12628TIP3    H259376   5.813   5.464  16.879  1.6205 -0.1426  0.3235
12629TIP3   OH259377   2.755   4.684  17.104 -0.4093 -0.1469  0.0686
12629TIP3    H159378   2.691   4.733  17.053 -0.1828  1.1271  0.9538
12629TIP3    H259379   2.787   4.617  17.044 -0.0824  1.3512 -1.5225
12630TIP3   OH259380   6.238   4.929   0.692  0.5680 -0.1644  0.1477
12630TIP3    H159381   6.255   4.902   0.782 -0.1148 -1.8057 -0.1800
12630TIP3    H259382   6.266   4.855   0.639  0.5653  0.6085 -0.9701
12631TIP3   OH259383   1.999   6.020  10.762 -0.3762 -0.0208 -0.1722
12631TIP3    H159384   2.007   5.978  10.676 -2.8482  1.1998 -1.0912
12631TIP3    H259385   1.908   6.004  10.788 -0.6043  2.3346  0.7097
12632TIP3   OH259386   0.128   3.561   4.823 -0.1235 -0.3518 -0.0062
12632TIP3    H159387   0.043   3.605   4.828 -0.4359 -0.7374 -1.4551
12632TIP3    H259388   0.110   3.480   4.775  1.1032 -0.3384 -0.5165
12633TIP3   OH259389   2.460   5.310  12.017  0.0327  0.3753 -0.0987
12633TIP3    H159390   2.426   5.258  12.090  1.5900  1.2214  1.2697
12633TIP3    H259391   2.530   5.257  11.980 -1.5310 -0.6155 -1.8690
12634TIP3   OH259392   6.512   5.231   3.399  0.2398  0.1870  0.0676
12634TIP3    H159393   6.603   5.258   3.411  0.8550  0.2860 -3.6036
12634TIP3    H259394   6.516   5.138   3.379 -0.7091 -0.2369  1.7139
12635TIP3   OH259395   3.391   4.487   5.821 -0.1209 -0.1812 -0.3124
12635TIP3    H159396   3.364   4.449   5.905  0.2880 -0.9703 -0.5311
12635TIP3    H259397   3.356   4.428   5.755  0.4650 -0.1468 -0.6619
12636TIP3   OH259398   4.389   5.302   4.064 -0.4252 -0.4774 -0.4537
12636TIP3    H159399   4.353   5.361   3.999 -0.8307 -1.7223 -1.4017
12636TIP3    H259400   4.458   5.254   4.017 -0.7851 -1.4533 -0.0042
12637TIP3   OH259401   1.422   4.315  16.173  0.6144  0.0172 -0.0327
12637TIP3    H159402   1.364   4.285  16.243  0.9812  0.9981  0.7108
12637TIP3    H259403   1.383   4.279  16.093 -0.6072  0.0305  0.5306
12638TIP3   OH259404   4.237   5.891  16.513  0.1133 -0.1051  0.0204
12638TIP3    H159405   4.235   5.938  16.430 -0.5719 -0.5309 -0.2104
12638TIP3    H259406   4.202   5.954  16.577 -1.9976 -0.6890 -0.4991
12639TIP3   OH259407   4.865   3.806   1.326 -0.3142  0.0852 -0.3146
12639TIP3    H159408   4.862   3.762   1.411 -3.4955 -0.8550 -0.7847
12639TIP3    H259409   4.942   3.769   1.282  0.2459 -0.8637  1.3895
12640TIP3   OH259410   2.709   5.761   5.609  0.0468  0.6042  0.1601
12640TIP3    H159411   2.614   5.772   5.608  0.0954  0.9982 -0.9805
12640TIP3    H259412   2.735   5.769   5.518  1.2226  0.8594  0.5045
12641TIP3   OH259413   5.397   0.811  16.314 -0.5796  0.1199 -0.7314
12641TIP3    H159414   5.422   0.728  16.272 -0.1057 -0.5489  0.7978
12641TIP3    H259415   5.361   0.864  16.243 -0.6992 -1.3166 -1.7922
12642TIP3   OH259416   1.596   0.849   0.006 -0.2262  0.2942  0.0894
12642TIP3    H159417   1.600   0.930   0.056  0.7569  0.0156  0.4828
12642TIP3    H259418   1.687   0.829  -0.015 -0.5911  0.1818 -1.4683
12643TIP3   OH259419   6.171   1.068  13.077  0.1709  0.4651  0.2212
12643TIP3    H159420   6.170   1.015  12.997  0.2984  0.7716  0.0167
12643TIP3    H259421   6.106   1.136  13.062 -2.2395 -1.3802  1.6852
12644TIP3   OH259422   6.176   6.799   4.313  0.6363  0.4509 -0.2513
12644TIP3    H159423   6.126   6.756   4.243 -3.4982  1.6945  1.6504
12644TIP3    H259424   6.234   6.730   4.346  0.1054 -1.2040 -2.5151
12645TIP3   OH259425   6.572   1.417  10.895  0.2419  0.1633  0.1797
12645TIP3    H159426   6.484   1.381  10.886 -0.0268 -0.4014  3.6668
12645TIP3    H259427   6.627   1.360  10.841 -1.0587 -1.8017  0.8003
12646TIP3   OH259428   1.447   6.148   3.995 -0.0358 -0.2232 -0.1686
12646TIP3    H159429   1.434   6.055   3.976 -0.2265 -0.1387 -0.4728
12646TIP3    H259430   1.540   6.156   4.016 -0.1527 -0.5867  0.4976
12647TIP3   OH259431   3.490   3.893   5.642 -0.2317  0.1007  0.3156
12647TIP3    H159432   3.439   3.912   5.563 -0.4882 -4.9626 -1.0946
12647TIP3    H259433   3.573   3.938   5.628 -0.9397  0.8653 -1.9577
12648TIP3   OH259434   5.984   3.946   2.474  0.3815  0.4724 -0.7309
12648TIP3    H159435   5.949   4.019   2.422 -1.2995  0.9257  0.9521
12648TIP3    H259436   5.908   3.908   2.517  1.6139 -0.3104  0.8591
12649TIP3   OH259437   4.064   6.051  16.001 -0.3938 -0.0471  0.3426
12649TIP3    H159438   4.097   6.001  16.076 -0.5193 -2.1891 -0.9198
12649TIP3    H259439   4.143   6.083  15.957 -0.3367  2.0409  1.8227
12650TIP3   OH259440   2.982   2.552   0.731  0.3632  0.1445  0.7351
12650TIP3    H159441   2.890   2.554   0.702  0.4345  0.3088  0.5159
12650TIP3    H259442   2.984   2.611   0.806  0.5493  1.1363 -0.0387
12651TIP3   OH259443   3.641   2.739   2.473 -0.4268 -0.0410 -0.2982
12651TIP3    H159444   3.720   2.685   2.467  0.1949  0.8447 -0.0907
12651TIP3    H259445   3.575   2.679   2.507  0.1212 -0.8185 -0.5582
12652TIP3   OH259446   5.440   5.497   1.071  0.4383 -0.2432  0.3796
12652TIP3    H159447   5.391   5.557   1.015 -1.3101  0.7681  2.8204
12652TIP3    H259448   5.529   5.532   1.071 -0.1292  1.2638  0.2680
12653TIP3   OH259449   6.111   0.358  14.774 -0.1118 -0.1005  0.0357
12653TIP3    H159450   6.198   0.388  14.745 -0.3168 -0.0546 -0.5469
12653TIP3    H259451   6.068   0.329  14.693 -0.4176 -0.6968  0.4065
12654TIP3   OH259452   5.315   3.548   0.653 -0.3161  0.5352 -0.1388
12654TIP3    H159453   5.266   3.606   0.711  0.2191  0.2399  0.6289
12654TIP3    H259454   5.400   3.537   0.696  0.0577  0.2354 -0.9387
12655TIP3   OH259455   5.234   1.977  14.689  0.7344 -0.6036 -0.7966
12655TIP3    H159456   5.218   1.914  14.759  0.6813 -1.8981 -1.9443
12655TIP3    H259457   5.166   2.044  14.702  0.2114 -1.2503 -0.1010
12656TIP3   OH259458   6.280   5.068   3.019  0.0540 -0.3518 -0.1488
12656TIP3    H159459   6.186   5.086   3.021 -0.1314 -1.1736  1.8576
12656TIP3    H259460   6.319   5.141   3.067  0.4087 -0.1624 -0.7260
12657TIP3   OH259461   0.774   0.049  10.278  0.1189 -0.3103  0.1746
12657TIP3    H159462   0.788   0.063  10.185  1.4807 -0.4491  0.3336
12657TIP3    H259463   0.681   0.028  10.286 -0.4839  1.6916 -0.9023
12658TIP3   OH259464   0.020   2.131   3.203  0.3898  0.5835  0.6003
12658TIP3    H159465  -0.043   2.080   3.152  0.4850  0.5677  0.4984
12658TIP3    H259466   0.011   2.220   3.170 -0.8047  0.9277  1.7609
12659TIP3   OH259467   0.608   0.603   3.138  0.0578 -0.6419 -0.2191
12659TIP3    H159468   0.586   0.529   3.194  0.1250 -0.5220 -0.0315
12659TIP3    H259469   0.539   0.605   3.072  0.3886 -1.2341 -0.5867
12660TIP3   OH259470   0.807   0.330  16.841  0.1082  0.2236 -0.2479
12660TIP3    H159471   0.732   0.306  16.895 -0.2426  1.5522 -0.1110
12660TIP3    H259472   0.875   0.355  16.905  0.2251  0.2946 -0.3992
12661TIP3   OH259473   6.082   5.396   2.885 -0.2944 -0.1510 -0.0341
12661TIP3    H159474   6.155   5.441   2.843  0.2040 -0.8513  0.0688
12661TIP3    H259475   6.021   5.378   2.814 -0.3344  0.3570 -0.1344
12662TIP3   OH259476   0.960   2.908  12.010  0.2354 -0.1808  0.3413
12662TIP3    H159477   1.047   2.889  11.975  0.0998  1.6241 -1.1404
12662TIP3    H259478   0.944   2.839  12.075  2.8956 -0.3546  0.9043
12663TIP3   OH259479   2.491   4.716  16.051 -0.1265 -0.1641 -0.3505
12663TIP3    H159480   2.460   4.627  16.035 -3.4887  0.6284  0.9414
12663TIP3    H259481   2.559   4.706  16.118  0.2875 -1.8184 -0.9938
12664TIP3   OH259482   0.664   4.485   2.500 -0.0904 -0.0096 -0.4350
12664TIP3    H159483   0.673   4.412   2.439  1.5463  1.3959 -2.0031
12664TIP3    H259484   0.619   4.553   2.450  3.4577  2.0977 -1.1609
12665TIP3   OH259485   0.442   0.858  10.579 -0.2361 -0.1636  0.1780
12665TIP3    H159486   0.501   0.926  10.546  0.8969 -1.3466 -0.3263
12665TIP3    H259487   0.451   0.786  10.516 -1.8480 -0.5658  0.3758
12666TIP3   OH259488   4.846   4.057  11.266  0.2335 -0.4529  0.0590
12666TIP3    H159489   4.807   4.002  11.197  0.4487 -1.7966  0.9642
12666TIP3    H259490   4.782   4.126  11.280 -0.1565 -0.5778 -0.9725
12667TIP3   OH259491   5.585   1.078  16.340 -0.2431 -0.0795  0.5149
12667TIP3    H159492   5.554   0.987  16.339  1.5628 -0.7479 -1.3026
12667TIP3    H259493   5.678   1.071  16.318  0.1340  2.1672  1.2250
12668TIP3   OH259494   4.801   0.066   1.359  0.4502 -0.0171  0.0298
12668TIP3    H159495   4.857   0.008   1.411  1.4705  0.8401 -0.0809
12668TIP3    H259496   4.815   0.039   1.269  0.4218 -0.0301  0.0294
12669TIP3   OH259497   0.918   3.293  13.028 -0.4927 -0.0101  0.1517
12669TIP3    H159498   0.896   3.384  13.047 -0.4086  0.3671 -1.4067
12669TIP3    H259499   0.835   3.246  13.036 -1.5748  1.0016 -3.3721
12670TIP3   OH259500   1.050   6.673  12.886 -0.2191  0.8469  0.0036
12670TIP3    H159501   1.033   6.690  12.978 -0.2790  0.6238  0.0347
12670TIP3    H259502   0.992   6.734  12.839  0.4226  1.5463  0.1078
12671TIP3   OH259503   1.480   2.624   4.915 -0.2921 -0.2531 -0.1022
12671TIP3    H159504   1.466   2.719   4.909  1.4997  0.3009  2.6413
12671TIP3    H259505   1.406   2.592   4.966 -0.0121 -0.0298  0.4507
12672TIP3   OH259506   4.712   6.433  15.170 -0.1020 -0.1506  0.3562
12672TIP3    H159507   4.665   6.424  15.087 -0.1810  0.6985  0.2971
12672TIP3    H259508   4.770   6.356  15.174  0.0752 -0.0752 -0.5967
12673TIP3   OH259509   1.788   3.059  14.295  0.0929  0.2367  0.3669
12673TIP3    H159510   1.735   3.018  14.363  1.9948 -0.2271  1.6536
12673TIP3    H259511   1.788   3.152  14.317  0.4200  0.1346  0.8103
12674TIP3   OH259512   4.030   0.762   1.863 -0.2356  0.1887  0.2211
12674TIP3    H159513   3.959   0.707   1.895 -0.2526  0.1413  0.1042
12674TIP3    H259514   4.044   0.732   1.773 -1.5507  1.6837 -0.5194
12675TIP3   OH259515   4.828   4.621   1.053 -0.2772 -0.3747  0.7752
12675TIP3    H159516   4.756   4.672   1.092 -0.6377 -1.5092  1.6426
12675TIP3    H259517   4.886   4.687   1.017 -2.2923  0.5801 -0.9758
12676TIP3   OH259518   1.138   4.372   1.272 -0.2586 -0.1287 -0.1736
12676TIP3    H159519   1.163   4.431   1.201  0.7978 -0.4193 -0.0734
12676TIP3    H259520   1.221   4.335   1.301 -0.8066 -0.8917  0.4430
12677TIP3   OH259521   1.532   6.523  13.912 -0.3714 -0.2862  0.1357
12677TIP3    H159522   1.567   6.522  14.001 -0.2614 -1.1884  0.0892
12677TIP3    H259523   1.598   6.478  13.859  0.4435  1.8106 -0.7600
12678TIP3   OH259524   2.284   3.464  14.655  0.0486 -0.8798  0.3021
12678TIP3    H159525   2.243   3.383  14.686  0.4457 -1.2053 -0.0040
12678TIP3    H259526   2.323   3.440  14.570  0.6045 -0.5017  0.4426
12679TIP3   OH259527   3.068   0.015  14.210 -0.1562  0.6925 -0.0154
12679TIP3    H159528   2.986   0.036  14.165 -0.3616  1.7525  0.7976
12679TIP3    H259529   3.096  -0.068  14.172 -0.3730  1.4578 -2.0028
12680TIP3   OH259530   2.874   4.854   0.355  0.2444 -0.4313  0.1234
12680TIP3    H159531   2.807   4.906   0.310  0.5270 -0.8235 -0.7920
12680TIP3    H259532   2.831   4.771   0.375  0.4543 -0.6962 -0.4952
12681TIP3   OH259533   1.907   2.349  15.942 -0.3974  0.6647 -0.0646
12681TIP3    H159534   1.936   2.439  15.955 -0.2895  0.9813 -2.2031
12681TIP3    H259535   1.972   2.297  15.990 -0.4563  1.6877  1.1919
12682TIP3   OH259536   3.869   0.024  14.487  0.7705  0.2078  0.0087
12682TIP3    H159537   3.924  -0.053  14.478 -0.5963 -0.6919 -1.0604
12682TIP3    H259538   3.879   0.050  14.579  2.4283 -0.2984 -0.0015
12683TIP3   OH259539   3.535   3.558  15.637 -0.2634  0.1763 -0.2936
12683TIP3    H159540   3.582   3.506  15.572 -0.2010 -0.4307  0.2239
12683TIP3    H259541   3.443   3.547  15.614 -0.1968  0.8136 -0.8993
12684TIP3   OH259542   1.067   3.222   2.708  0.2002  0.3726  0.6585
12684TIP3    H159543   1.113   3.282   2.649 -0.5937  1.4605  1.1045
12684TIP3    H259544   1.113   3.232   2.792  1.1795 -0.9957  0.3188
12685TIP3   OH259545   1.271   1.689  12.022  0.5366  0.6971 -0.5706
12685TIP3    H159546   1.224   1.681  11.939 -0.1916 -0.8491 -0.0433
12685TIP3    H259547   1.322   1.769  12.012  2.2039 -0.5587 -3.3660
12686TIP3   OH259548   1.983   1.857   4.711  0.3102 -0.0018 -0.0229
12686TIP3    H159549   2.050   1.908   4.665  0.2686 -0.2809 -0.3902
12686TIP3    H259550   1.924   1.923   4.747  0.4321  0.2215 -0.2305
12687TIP3   OH259551   0.245   1.043   5.724 -0.0207 -0.1722 -0.1231
12687TIP3    H159552   0.180   1.051   5.794 -0.8313  1.9972 -1.0634
12687TIP3    H259553   0.230   0.955   5.688 -1.5557 -0.2155  0.5361
12688TIP3   OH259554   5.698   2.992   3.189 -0.5330  0.0524 -0.2733
12688TIP3    H159555   5.748   2.936   3.129 -0.3224 -0.9607  0.8114
12688TIP3    H259556   5.745   3.076   3.187  0.2777 -0.3900 -0.5022
12689TIP3   OH259557   4.683   3.022   0.044 -0.1149 -0.0669 -0.1849
12689TIP3    H159558   4.676   3.114   0.021  1.6942  0.6711  1.8431
12689TIP3    H259559   4.695   2.977  -0.040 -2.4358  1.3128 -1.3419
12690TIP3   OH259560   5.306   0.506  13.714 -0.0406  0.2718  0.7322
12690TIP3    H159561   5.281   0.593  13.683  1.7335  1.0745  1.3985
12690TIP3    H259562   5.231   0.450  13.693 -0.2041  1.3796 -2.1725
12691TIP3   OH259563   4.162   6.053   2.688  0.4403 -0.3371 -0.3816
12691TIP3    H159564   4.113   6.096   2.759  2.0562 -1.2768  1.3892
12691TIP3    H259565   4.238   6.109   2.674  0.1420 -0.1625 -1.4352
12692TIP3   OH259566   1.199   0.442  16.460 -0.1055  0.0976 -0.6166
12692TIP3    H159567   1.154   0.421  16.541 -0.2222 -0.7553 -0.8902
12692TIP3    H259568   1.178   0.534  16.444 -1.1145 -0.0711 -0.3364
12693TIP3   OH259569   1.892   0.915   5.203  0.4291 -0.2527  0.1027
12693TIP3    H159570   1.889   0.987   5.266  1.0274 -1.8850  2.1271
12693TIP3    H259571   1.804   0.912   5.166 -0.1340  0.4241  1.3158
12694TIP3   OH259572   2.794   4.453   0.183  0.6166 -0.6513  0.1964
12694TIP3    H159573   2.857   4.452   0.255 -0.9890  2.5727  1.8497
12694TIP3    H259574   2.778   4.546   0.166 -3.2585 -1.2626 -0.4707
12695TIP3   OH259575   4.821   2.327   2.688 -0.1479 -0.4836 -0.2559
12695TIP3    H159576   4.739   2.313   2.735  0.5956 -1.3895  0.8405
12695TIP3    H259577   4.852   2.413   2.717 -0.3066 -0.5039 -0.0283
12696TIP3   OH259578   6.179   4.164  15.514  0.1595 -0.1972 -0.6145
12696TIP3    H159579   6.106   4.161  15.452  2.0533  2.6656 -3.3140
12696TIP3    H259580   6.172   4.250  15.555  0.3734 -1.0860  1.3759
12697TIP3   OH259581   6.157   4.456  12.111 -0.2088  0.3399  0.3145
12697TIP3    H159582   6.102   4.472  12.188 -4.1055 -3.1251 -1.3833
12697TIP3    H259583   6.099   4.470  12.036  2.2332 -0.3874 -1.8726
12698TIP3   OH259584   2.683   3.529  11.981 -0.6775 -0.5174 -0.2424
12698TIP3    H159585   2.699   3.477  12.059  0.6132  0.5866  0.2867
12698TIP3    H259586   2.659   3.466  11.914  2.1112 -1.9853  0.0094
12699TIP3   OH259587   2.529   4.100  12.937  0.5804  0.6369  0.4755
12699TIP3    H159588   2.513   4.155  13.014 -0.3478  1.5428 -0.3381
12699TIP3    H259589   2.456   4.037  12.937  1.4644 -0.4461  1.2222
12700TIP3   OH259590   1.040   0.501   6.256  0.1613  0.2270  0.0465
12700TIP3    H159591   0.994   0.514   6.339  0.2205 -1.2377  0.3385
12700TIP3    H259592   1.132   0.503   6.279  0.1691 -1.1197  0.1960
12701TIP3   OH259593   0.943   1.137  10.694  0.1470 -0.8643  0.5341
12701TIP3    H159594   0.974   1.087  10.619  0.4570  0.2347 -0.0923
12701TIP3    H259595   1.015   1.197  10.714 -0.4978 -0.1578  0.7939
12702TIP3   OH259596   4.771   6.164   4.076 -0.0321 -0.4679  0.8348
12702TIP3    H159597   4.740   6.114   4.000  0.2533 -0.4532  0.7076
12702TIP3    H259598   4.763   6.104   4.150 -3.0350  0.3895  1.3511
12703TIP3   OH259599   3.810   6.806   2.511  0.3206 -0.3870 -0.1814
12703TIP3    H159600   3.904   6.802   2.531  0.4283  1.1780 -0.2321
12703TIP3    H259601   3.798   6.744   2.440  1.1512 -1.2553  0.4136
12704TIP3   OH259602   2.203   0.557   5.374  0.3548 -0.3400  0.2146
12704TIP3    H159603   2.169   0.645   5.390 -0.3499 -0.3862 -0.8982
12704TIP3    H259604   2.147   0.500   5.428  0.7272 -0.1358  0.8322
12705TIP3   OH259605   0.172   3.163   3.785 -0.1183  0.3149 -0.2132
12705TIP3    H159606   0.166   3.127   3.696  1.1298  0.5905 -0.4260
12705TIP3    H259607   0.201   3.253   3.773 -2.1823  1.1078  0.3814
12706TIP3   OH259608   2.252   1.360   3.849  0.2311 -0.3492  0.0988
12706TIP3    H159609   2.245   1.265   3.839  2.4144 -0.4553 -1.3439
12706TIP3    H259610   2.215   1.379   3.935 -0.7935 -2.4167  0.1629
12707TIP3   OH259611   4.981   3.064   2.047 -0.2736  0.0740 -0.4776
12707TIP3    H159612   4.922   3.005   1.999  0.4931  0.7659 -2.3583
12707TIP3    H259613   4.925   3.103   2.115 -1.5939 -0.4529 -1.2173
12708TIP3   OH259614   1.862   3.112   5.876 -0.0186 -0.0091 -0.3222
12708TIP3    H159615   1.892   3.022   5.876  0.1733  0.0399  0.8599
12708TIP3    H259616   1.836   3.129   5.967  1.1002  1.4891 -0.2421
12709TIP3   OH259617   0.601   4.586   1.466  0.1498 -0.2503 -0.5978
12709TIP3    H159618   0.507   4.574   1.474  0.1661 -0.4817 -0.7592
12709TIP3    H259619   0.611   4.672   1.426  0.0563  0.8232  1.5191
12710TIP3   OH259620   0.052   5.005  16.079 -0.2264  0.0401  0.1654
12710TIP3    H159621   0.101   5.016  16.161 -0.0651  1.2433 -0.0628
12710TIP3    H259622   0.110   5.039  16.011 -0.4886 -0.6433 -0.4089
12711TIP3   OH259623   0.196   3.009  17.159  0.0024  0.4097 -0.9693
12711TIP3    H159624   0.142   2.985  17.084 -0.2350  1.3180 -1.1007
12711TIP3    H259625   0.165   2.953  17.230 -1.0503  0.8327 -1.0758
12712TIP3   OH259626   1.794   6.171   3.610  0.4777 -0.0929 -0.4180
12712TIP3    H159627   1.815   6.125   3.692  0.1045 -1.1807 -0.9222
12712TIP3    H259628   1.698   6.170   3.607  0.3621  2.2659  0.4117
12713TIP3   OH259629   0.469   0.015  15.682 -0.6371 -0.0373 -0.5075
12713TIP3    H159630   0.466   0.072  15.759  0.2231 -0.1744 -0.3684
12713TIP3    H259631   0.418  -0.062  15.707  0.5274 -0.5668  0.3365
12714TIP3   OH259632   4.804   4.502  12.288 -0.4102  0.1769  0.0160
12714TIP3    H159633   4.865   4.448  12.338 -1.3868 -0.7092  0.2762
12714TIP3    H259634   4.815   4.591  12.323 -0.3327 -0.2437  1.0868
12715TIP3   OH259635   6.636   2.859  12.940  0.3685 -0.4897  0.3132
12715TIP3    H159636   6.661   2.949  12.957  0.4601 -0.1291 -1.5618
12715TIP3    H259637   6.550   2.865  12.897  0.8353 -1.2102 -0.7613
12716TIP3   OH259638   6.613   4.538   6.268 -0.3632  0.0513  0.2409
12716TIP3    H159639   6.568   4.466   6.311 -0.3400 -0.1630 -0.0945
12716TIP3    H259640   6.700   4.540   6.308  0.5549 -1.7468 -1.5302
12717TIP3   OH259641   3.620   6.155  15.693  0.2892  0.8499  0.2245
12717TIP3    H159642   3.695   6.215  15.698  0.5750  0.3969  1.8400
12717TIP3    H259643   3.572   6.184  15.616  1.9999  1.2977 -0.7351
12718TIP3   OH259644   6.735   5.277  16.789 -0.3213  0.2238  0.1201
12718TIP3    H159645   6.692   5.294  16.873  2.3387 -2.3145  2.2148
12718TIP3    H259646   6.678   5.214  16.745 -0.6399 -0.1790  1.0964
12719TIP3   OH259647   6.512   3.357   3.940 -0.5690  0.4530  0.4309
12719TIP3    H159648   6.458   3.326   3.868 -1.3126  0.1784  1.0910
12719TIP3    H259649   6.532   3.278   3.991  4.1320 -0.3251 -2.0765
12720TIP3   OH259650   4.606   4.318  15.625 -0.3203  0.1660  0.2421
12720TIP3    H159651   4.624   4.378  15.697 -0.1291  0.4142 -0.0120
12720TIP3    H259652   4.692   4.285  15.599 -0.5123 -1.2109  1.2239
12721TIP3   OH259653   1.423   6.423   4.394 -0.3521  0.2281 -0.4194
12721TIP3    H159654   1.381   6.385   4.317  0.2893 -0.0172 -0.6575
12721TIP3    H259655   1.413   6.356   4.462 -0.0321  0.0135 -0.5790
12722TIP3   OH259656   5.384   4.435   2.101  0.3715  0.6240  0.5212
12722TIP3    H159657   5.315   4.497   2.126 -0.8585 -0.9047  1.1715
12722TIP3    H259658   5.336   4.362   2.061  1.2341 -1.6941  3.3194
12723TIP3   OH259659   3.318   3.377   4.703 -0.1560 -0.4677 -0.4301
12723TIP3    H159660   3.354   3.384   4.791 -0.6942 -0.0704 -0.2353
12723TIP3    H259661   3.390   3.342   4.650  0.6892  0.7961 -0.1641
12724TIP3   OH259662   5.468   2.371  12.253 -0.0132  0.5215  0.4968
12724TIP3    H159663   5.415   2.425  12.312 -0.2754  0.9145 -0.1001
12724TIP3    H259664   5.418   2.291  12.241  0.2264  0.2662  1.1205
12725TIP3   OH259665   3.537   2.855   5.610  0.3163 -0.2722 -0.0392
12725TIP3    H159666   3.499   2.827   5.527 -0.0556  1.2747 -0.4190
12725TIP3    H259667   3.464   2.852   5.672  0.1273  0.3707 -0.2173
12726TIP3   OH259668   0.610   5.697  14.506 -0.2877 -1.1279 -0.3637
12726TIP3    H159669   0.673   5.703  14.434 -0.4262 -1.9787 -0.5676
12726TIP3    H259670   0.550   5.769  14.491  0.2993 -0.6608 -0.4978
12727TIP3   OH259671   1.985   4.747   5.560  0.7359  0.9578 -0.4327
12727TIP3    H159672   2.057   4.730   5.621 -0.5602  0.7659  1.1218
12727TIP3    H259673   1.922   4.677   5.578 -0.7206  2.2448 -0.3188
12728TIP3   OH259674   6.183   5.635  11.027 -0.1434  0.2108  0.2060
12728TIP3    H159675   6.127   5.635  10.949 -1.6216 -1.3423  1.1774
12728TIP3    H259676   6.253   5.573  11.006 -2.1142 -2.5246  1.0058
12729TIP3   OH259677   3.358   5.241   1.172 -0.8854  0.5095 -0.1837
12729TIP3    H159678   3.273   5.279   1.150  0.4231  2.4889 -2.2555
12729TIP3    H259679   3.364   5.246   1.267 -2.4199  1.8202 -0.1283
12730TIP3   OH259680   3.989   4.196   3.277 -0.7807  0.8009 -0.0749
12730TIP3    H159681   4.084   4.197   3.293 -0.9217 -0.2155  0.9549
12730TIP3    H259682   3.965   4.104   3.284 -2.0614  1.1960  1.0256
12731TIP3   OH259683   0.584   4.634  12.949 -0.0838  0.2868 -0.1837
12731TIP3    H159684   0.652   4.700  12.937  3.1529 -2.6888  0.2328
12731TIP3    H259685   0.584   4.616  13.043 -3.0088  1.5646  0.1737
12732TIP3   OH259686   2.454   1.559  16.017 -0.3735 -0.1344 -0.2361
12732TIP3    H159687   2.539   1.601  16.018 -0.5569  0.2732 -1.1774
12732TIP3    H259688   2.400   1.614  15.960 -1.4910  0.0457  0.9382
12733TIP3   OH259689   3.006   4.582   5.651  0.1301 -0.1848 -0.3960
12733TIP3    H159690   3.006   4.548   5.741 -0.7583 -0.7900 -0.6149
12733TIP3    H259691   2.956   4.664   5.656  0.2569 -0.1121 -0.3051
12734TIP3   OH259692   1.076   5.784  10.690  0.5879  0.1798 -0.0186
12734TIP3    H159693   1.148   5.843  10.666 -1.2144  2.6482  0.3016
12734TIP3    H259694   1.057   5.806  10.782 -0.2801 -0.7826  0.0458
12735TIP3   OH259695   2.966   0.597  14.015  0.2157 -0.0707 -0.3050
12735TIP3    H159696   2.874   0.613  13.995  0.4820  1.5656 -0.3314
12735TIP3    H259697   2.964   0.549  14.098 -0.6646 -0.4973 -0.5549
12736TIP3   OH259698   6.812   3.031  14.667 -0.1576  0.4705 -0.1221
12736TIP3    H159699   6.882   3.042  14.731 -0.5387  0.9724  0.2165
12736TIP3    H259700   6.759   2.958  14.701  0.2580  0.0102 -0.4398
12737TIP3   OH259701   0.535   6.548  13.813  0.8938  0.5227 -0.2200
12737TIP3    H159702   0.510   6.615  13.750 -3.5076 -1.1908 -0.6221
12737TIP3    H259703   0.540   6.467  13.761  0.4535 -0.3718  1.0835
12738TIP3   OH259704   0.056   1.190   0.789 -0.2769 -0.3828 -0.3237
12738TIP3    H159705  -0.015   1.160   0.733 -1.2486  0.6193  0.3363
12738TIP3    H259706   0.056   1.285   0.780 -0.1122 -0.2395  0.9614
12739TIP3   OH259707   6.539   0.364  10.764 -0.8128  0.1433 -0.2096
12739TIP3    H159708   6.533   0.310  10.686  0.6348 -2.0019  1.0644
12739TIP3    H259709   6.624   0.409  10.756 -0.5912 -0.2012  0.2010
12740TIP3   OH259710   0.765   2.361   4.130  0.4394  0.3966 -0.3193
12740TIP3    H159711   0.781   2.344   4.223 -1.3460  1.0266  0.1552
12740TIP3    H259712   0.792   2.452   4.117  0.7772  0.2797 -0.4520
12741TIP3   OH259713   2.510   0.154   0.668 -0.0999 -0.5345  0.0854
12741TIP3    H159714   2.476   0.243   0.665  1.0481 -0.0263  1.1388
12741TIP3    H259715   2.506   0.130   0.760  1.6534 -0.7161  0.1528
12742TIP3   OH259716   1.007   3.231  12.374  0.5369  0.6381 -0.0607
12742TIP3    H159717   0.930   3.248  12.427 -0.2918 -0.5560 -0.8462
12742TIP3    H259718   1.062   3.175  12.428 -0.2736 -0.5201 -0.4104
12743TIP3   OH259719   5.795   6.109   3.262 -0.2620  0.4428  0.0512
12743TIP3    H159720   5.784   6.062   3.345  1.0292  0.9442  0.5307
12743TIP3    H259721   5.890   6.120   3.253 -0.4618  1.7133 -0.7494
12744TIP3   OH259722   5.344   6.393   2.560 -0.5287  0.2478  0.3893
12744TIP3    H159723   5.395   6.373   2.482 -1.0752  0.1300  0.0649
12744TIP3    H259724   5.360   6.486   2.576 -0.2366  0.2182  0.2764
12745TIP3   OH259725   1.484   5.011  11.272 -0.9595  0.6729  0.0195
12745TIP3    H159726   1.490   5.088  11.329 -1.7250  1.5126 -0.9831
12745TIP3    H259727   1.398   5.019  11.230 -1.1865 -0.9011  0.1145
12746TIP3   OH259728   3.908   4.428   0.175  0.0141 -0.2189  0.0782
12746TIP3    H159729   3.877   4.348   0.131 -0.9115  0.7306 -1.0681
12746TIP3    H259730   3.999   4.436   0.148 -0.3296 -0.0624 -1.1149
12747TIP3   OH259731   1.085   4.081   2.562  0.1710 -0.1227 -0.4807
12747TIP3    H159732   1.143   4.006   2.554  1.0743  0.4831  0.2734
12747TIP3    H259733   1.008   4.057   2.510 -0.6356 -2.5674  1.6449
12748TIP3   OH259734   0.363   2.682   2.111  0.1974  0.2970  0.3515
12748TIP3    H159735   0.275   2.716   2.097 -0.5461 -1.6624  0.0445
12748TIP3    H259736   0.377   2.689   2.206  0.5892  2.5537  0.1862
12749TIP3   OH259737   4.887   2.867  17.229  0.2336  0.2465  0.0858
12749TIP3    H159738   4.820   2.839  17.167  2.2681 -1.1865 -1.5891
12749TIP3    H259739   4.879   2.805  17.302  0.6988 -0.8714 -0.7938
12750TIP3   OH259740   5.072   2.965   0.356  0.2939 -0.0225  0.0529
12750TIP3    H159741   5.108   3.029   0.418  0.2469  0.5817 -0.5341
12750TIP3    H259742   5.010   3.015   0.303 -0.5764 -0.8043  0.3109
12751TIP3   OH259743   3.051   1.878  14.638  0.0389 -0.2514  0.1686
12751TIP3    H159744   3.007   1.821  14.576  0.7211 -0.6469  0.0412
12751TIP3    H259745   3.130   1.831  14.663  1.5979  1.4062 -1.3556
12752TIP3   OH259746   3.842   1.416   1.869  0.9440  0.2122 -0.2998
12752TIP3    H159747   3.796   1.353   1.814 -0.9093  0.5165  0.7952
12752TIP3    H259748   3.901   1.364   1.922 -1.2345 -0.8380  1.2702
12753TIP3   OH259749   5.086   3.216  13.611  0.6301  0.1763 -0.5614
12753TIP3    H159750   5.103   3.310  13.616 -2.5663  0.8488 -0.4393
12753TIP3    H259751   5.139   3.179  13.682 -0.2885  2.2792  1.3469
12754TIP3   OH259752   0.269   6.706  14.846  0.2299 -0.0767 -0.6339
12754TIP3    H159753   0.281   6.687  14.753 -0.3739 -1.0468 -0.5246
12754TIP3    H259754   0.245   6.622  14.885  0.6085  0.2900  0.4262
12755TIP3   OH259755   2.439   0.934  15.675 -0.1766  0.2497  1.0779
12755TIP3    H159756   2.462   0.911  15.585  0.7865  1.5397  0.9590
12755TIP3    H259757   2.406   0.853  15.714  1.7379 -0.9631  0.3082
12756TIP3   OH259758   3.065   0.699  16.914  0.6473 -0.9057 -0.8063
12756TIP3    H159759   2.990   0.639  16.905  0.8262 -1.3754  0.5970
12756TIP3    H259760   3.053   0.763  16.844 -1.5315 -0.4968 -0.1428
12757TIP3   OH259761   2.872   3.332   4.509 -0.0651 -0.2090 -0.0896
12757TIP3    H159762   2.961   3.324   4.543 -0.4597 -1.1925  0.7561
12757TIP3    H259763   2.884   3.353   4.416  1.0359 -0.3556  0.0027
12758TIP3   OH259764   0.348   0.662   3.015  0.0203 -0.2646  0.1894
12758TIP3    H159765   0.340   0.757   3.021 -0.1755 -0.3582  1.9775
12758TIP3    H259766   0.276   0.634   2.959 -0.6782  0.5361  0.6793
12759TIP3   OH259767   4.725   6.560   6.117 -0.3747 -0.5765 -0.2220
12759TIP3    H159768   4.712   6.595   6.205 -0.2040 -1.6766  0.2595
12759TIP3    H259769   4.781   6.483   6.130  2.4857  1.0977 -1.6522
12760TIP3   OH259770   6.130   2.837  14.837 -0.3626 -0.4963 -0.0099
12760TIP3    H159771   6.218   2.864  14.810  0.4512 -1.7823  1.2327
12760TIP3    H259772   6.145   2.767  14.901 -2.2435  0.8671  2.0564
12761TIP3   OH259773   1.246   3.054   0.852 -0.2170 -0.1105  0.5396
12761TIP3    H159774   1.242   3.128   0.913  0.6275  1.6485 -1.4283
12761TIP3    H259775   1.207   3.087   0.772  0.9696 -1.5098 -0.6713
12762TIP3   OH259776   6.425   5.243  11.133  0.0836 -0.0183  0.0849
12762TIP3    H159777   6.386   5.156  11.143 -0.4691  0.0395 -1.2990
12762TIP3    H259778   6.509   5.226  11.090 -0.0678  0.1400 -0.2724
12763TIP3   OH259779   3.241   1.315  15.428  0.3632  0.0587 -0.0399
12763TIP3    H159780   3.146   1.317  15.429  0.3465  0.6998 -1.1216
12763TIP3    H259781   3.267   1.405  15.409  1.0521 -0.7341 -3.5544
12764TIP3   OH259782   6.785   6.721  11.091 -0.2398 -0.3508  0.1830
12764TIP3    H159783   6.718   6.788  11.084  0.0853  0.1515  1.5037
12764TIP3    H259784   6.738   6.638  11.079 -0.9738  0.0278  0.4143
12765TIP3   OH259785   6.071   5.683  16.990  0.2740 -0.1476  0.1511
12765TIP3    H159786   6.116   5.598  16.981 -2.3259 -1.9243  2.3475
12765TIP3    H259787   6.101   5.717  17.074 -1.4851 -0.7916  1.0797
12766TIP3   OH259788   4.747   1.176   5.960  0.8354  0.4102  0.0642
12766TIP3    H159789   4.703   1.124   5.893  0.7557  0.8278 -0.2093
12766TIP3    H259790   4.708   1.263   5.953  1.4317  0.6857  0.0769
12767TIP3   OH259791   4.517   0.715  17.115  0.5139 -0.3831  0.2699
12767TIP3    H159792   4.558   0.787  17.069  0.2585  1.1211  2.2450
12767TIP3    H259793   4.435   0.698  17.068  0.7985  0.3228 -0.4819
12768TIP3   OH259794   1.718   2.183  14.468  0.4128  0.7318  0.0366
12768TIP3    H159795   1.758   2.228  14.393  2.3110 -0.6695  0.1181
12768TIP3    H259796   1.678   2.105  14.430 -0.1571  0.9119  0.2671
12769TIP3   OH259797   0.316   2.962   0.825  0.5645  0.4699  0.4308
12769TIP3    H159798   0.359   2.917   0.897 -1.0445  0.8074  1.6690
12769TIP3    H259799   0.249   2.901   0.795  1.7800 -0.0387 -1.4371
12770TIP3   OH259800   5.428   5.462   1.962 -0.1736  0.3006  0.2675
12770TIP3    H159801   5.482   5.484   2.038 -1.1375 -3.4078  2.2675
12770TIP3    H259802   5.342   5.497   1.983 -0.8821 -2.1580  1.8857
12771TIP3   OH259803   0.238   2.800   3.611 -0.6981 -0.3160  0.4732
12771TIP3    H159804   0.308   2.779   3.549  2.1777 -0.8391  3.6323
12771TIP3    H259805   0.206   2.715   3.641 -1.3212 -0.0709  0.5116
12772TIP3   OH259806   1.195   3.756  15.938  0.2030  0.0502  0.4268
12772TIP3    H159807   1.265   3.777  15.876 -0.2570  3.1841  0.8045
12772TIP3    H259808   1.241   3.724  16.016  1.1957  1.3130  0.3866
12773TIP3   OH259809   4.781   1.000   0.111 -0.5308 -0.0122 -0.0323
12773TIP3    H159810   4.844   0.961   0.171 -1.3893  0.2506  1.0655
12773TIP3    H259811   4.835   1.043   0.044  0.4266 -1.4182 -0.1974
12774TIP3   OH259812   2.006   1.747  16.820 -0.4496 -0.0272 -0.0293
12774TIP3    H159813   1.925   1.776  16.861 -1.6749 -0.7361 -1.7897
12774TIP3    H259814   2.018   1.806  16.745  2.5028  2.1683  1.9210
12775TIP3   OH259815   4.952   3.875  11.962 -0.1454  0.0169 -0.3386
12775TIP3    H159816   4.979   3.789  11.930 -2.9952 -0.9579 -0.3884
12775TIP3    H259817   4.932   3.925  11.883 -0.6244 -0.0475 -0.2605
12776TIP3   OH259818   6.763   3.296  13.991  0.0587 -0.5886  0.1487
12776TIP3    H159819   6.803   3.372  14.033  0.8917 -1.8401  1.7936
12776TIP3    H259820   6.823   3.273  13.920 -0.2736  0.3650 -0.4423
12777TIP3   OH259821   6.723   3.518  13.399 -0.3986  0.6596  0.0904
12777TIP3    H159822   6.750   3.600  13.442 -0.9355  0.4238  0.8993
12777TIP3    H259823   6.792   3.456  13.421 -0.3229  0.7259  0.0374
12778TIP3   OH259824   4.064   6.373   0.154  0.3457 -0.3332  0.2425
12778TIP3    H159825   4.069   6.320   0.234  0.8213  1.4321  1.4610
12778TIP3    H259826   3.986   6.427   0.166  0.6135  0.1922 -0.3177
12779TIP3   OH259827   4.905   1.967  15.117  0.4224  0.0157  0.1212
12779TIP3    H159828   4.960   1.995  15.189  0.3813  4.0040 -1.1744
12779TIP3    H259829   4.963   1.967  15.040 -0.6266  1.2547 -0.7207
12780TIP3   OH259830   4.516   0.577   0.396 -0.2442 -0.0878  0.5410
12780TIP3    H159831   4.523   0.673   0.394  0.9372 -0.1368  1.1590
12780TIP3    H259832   4.597   0.547   0.354 -0.9623 -0.8288 -0.3557
12781TIP3   OH259833   4.754   2.655  12.605 -0.8236 -0.2184  0.3175
12781TIP3    H159834   4.684   2.688  12.662 -0.6767 -0.8172  0.8577
12781TIP3    H259835   4.712   2.642  12.520 -0.9007  1.2777  0.1008
12782TIP3   OH259836   5.803   6.319  16.162  0.2853  0.4142 -0.5257
12782TIP3    H159837   5.879   6.280  16.205 -1.2398  0.8832  2.9718
12782TIP3    H259838   5.839   6.382  16.100  2.7744  0.7190  1.1030
12783TIP3   OH259839   2.436   5.581   2.735  0.1231 -0.4276  0.4217
12783TIP3    H159840   2.481   5.533   2.804 -0.2044 -0.9398  0.2789
12783TIP3    H259841   2.420   5.516   2.667 -0.9395 -0.2792  0.5195
12784TIP3   OH259842   4.068   4.288   3.998 -0.5796 -0.0486 -0.1630
12784TIP3    H159843   4.118   4.292   4.079 -1.3274  0.7438  0.2833
12784TIP3    H259844   4.065   4.195   3.976 -0.7274 -0.3226  0.9566
12785TIP3   OH259845   0.531   6.496   6.445  0.3246 -0.1327  0.9056
12785TIP3    H159846   0.508   6.588   6.434  1.2377 -0.0218 -0.2323
12785TIP3    H259847   0.480   6.450   6.378  0.0710 -0.4242  1.2954
12786TIP3   OH259848   2.025   2.326   6.226 -0.6403 -0.4004 -0.4827
12786TIP3    H159849   1.978   2.251   6.261 -1.3358  0.1299 -0.2684
12786TIP3    H259850   1.960   2.395   6.219  0.2919  0.6869  0.8451
12787TIP3   OH259851   6.566   2.921   4.150  0.7089  0.0198 -0.3051
12787TIP3    H159852   6.502   2.851   4.137  0.1765  0.7305 -1.7007
12787TIP3    H259853   6.651   2.877   4.148  0.3323 -1.1272  2.7557
12788TIP3   OH259854   2.178   4.028  14.188  0.1804  0.6627 -0.5085
12788TIP3    H159855   2.187   3.955  14.249 -0.2946  0.3315 -0.8319
12788TIP3    H259856   2.251   4.017  14.128 -0.2110  0.1222 -0.8966
12789TIP3   OH259857   1.622   0.754   3.772  0.3517  0.2698  0.3481
12789TIP3    H159858   1.584   0.776   3.857  1.4642 -0.3139  1.0237
12789TIP3    H259859   1.546   0.743   3.714 -0.3584  3.6592  0.4414
12790TIP3   OH259860   0.112   5.713   1.948  0.8287 -0.0290  0.4678
12790TIP3    H159861   0.121   5.635   2.003 -0.1211 -0.6880 -0.2808
12790TIP3    H259862   0.201   5.733   1.919  1.2524 -0.0738  1.6607
12791TIP3   OH259863   5.895   3.754  16.553 -0.8100 -0.2065 -0.2974
12791TIP3    H159864   5.810   3.777  16.514  0.0180  1.0532 -1.4243
12791TIP3    H259865   5.873   3.688  16.619 -2.4857 -1.2113 -1.7420
12792TIP3   OH259866   1.108   3.510  15.209 -0.2019 -0.2168 -0.1614
12792TIP3    H159867   1.102   3.566  15.131 -2.2028 -0.5968 -0.3077
12792TIP3    H259868   1.125   3.423  15.175  1.2654 -0.0295 -0.0068
12793TIP3   OH259869   0.507   1.807  15.761 -0.1702  0.3471 -0.0660
12793TIP3    H159870   0.596   1.790  15.730  0.4622  0.8938  1.3485
12793TIP3    H259871   0.494   1.747  15.834 -0.4041  1.2350  0.6553
12794TIP3   OH259872   4.644   5.040   5.909 -0.3020 -0.2931  0.2005
12794TIP3    H159873   4.696   5.106   5.863  0.3959 -1.4048 -0.6504
12794TIP3    H259874   4.567   5.028   5.854 -0.0934 -0.6863 -0.0070
12795TIP3   OH259875   6.709   3.341  11.125 -0.0551 -0.1354  0.4259
12795TIP3    H159876   6.767   3.351  11.050 -0.5646  0.2857  0.0837
12795TIP3    H259877   6.620   3.341  11.088 -0.3007 -0.2690  0.9908
12796TIP3   OH259878   2.846   0.958  15.999  0.2399 -0.3458  0.8411
12796TIP3    H159879   2.830   1.019  15.927  0.8299  0.2093  1.1665
12796TIP3    H259880   2.852   0.872  15.957 -0.8860 -0.2279  0.4103
12797TIP3   OH259881   6.523   6.689  14.370 -0.2371  0.0951  0.2599
12797TIP3    H159882   6.439   6.721  14.336 -0.1008 -2.4215 -2.8637
12797TIP3    H259883   6.499   6.619  14.431 -0.4397 -0.5871 -0.5904
12798TIP3   OH259884   5.145   6.465   0.702  0.6962  0.2161 -0.1171
12798TIP3    H159885   5.233   6.454   0.739 -0.0190  0.4191  1.7122
12798TIP3    H259886   5.115   6.376   0.685  0.3594 -0.0086  1.4995
12799TIP3   OH259887   5.566   4.357   4.214  0.4335 -0.7976  0.1351
12799TIP3    H159888   5.532   4.313   4.291 -0.5209  0.5118  0.5049
12799TIP3    H259889   5.661   4.355   4.224  0.3098 -0.4960  1.4372
12800TIP3   OH259890   5.822   1.874   1.553  0.1520  0.4711  0.5274
12800TIP3    H159891   5.849   1.966   1.550  0.5177  0.3661  0.6518
12800TIP3    H259892   5.865   1.834   1.478 -1.4588  0.7867 -0.6366
12801TIP3   OH259893   0.093   5.909   5.045 -0.2230 -0.1206 -0.9698
12801TIP3    H159894   0.144   5.978   5.088 -1.4686 -0.5951  1.3744
12801TIP3    H259895   0.008   5.949   5.028 -0.3496 -0.5279 -1.3117
12802TIP3   OH259896   6.461   4.825  16.807 -0.0613 -0.3485  0.3316
12802TIP3    H159897   6.428   4.759  16.747 -0.9751  0.3408  0.0558
12802TIP3    H259898   6.523   4.778  16.863  1.1917 -0.9195 -1.4290
12803TIP3   OH259899   2.847   0.083  14.029  0.3888 -0.4551  0.3207
12803TIP3    H159900   2.794   0.013  14.067  2.9513 -0.5514  4.1552
12803TIP3    H259901   2.794   0.162  14.043 -1.4010 -1.1832 -1.7524
12804TIP3   OH259902   1.862   0.420   5.293 -0.4281 -0.1616  0.7112
12804TIP3    H159903   1.823   0.499   5.254 -2.8680 -0.5202  2.2546
12804TIP3    H259904   1.911   0.453   5.368  1.0565  0.1201 -0.3248
12805TIP3   OH259905   0.720   6.754  14.199 -0.1658  0.4498 -0.4328
12805TIP3    H159906   0.733   6.703  14.119  0.3313 -0.7641  0.3802
12805TIP3    H259907   0.625   6.761  14.207 -0.2116  0.9890 -1.3676
12806TIP3   OH259908   6.345   1.909   6.946 -0.0102  0.2362  0.2847
12806TIP3    H159909   6.422   1.965   6.958  0.8544 -0.6294 -0.9485
12806TIP3    H259910   6.381   1.821   6.937 -1.2923 -0.4643  1.4982
12807TIP3   OH259911   6.155   5.637  12.573 -0.2528 -0.7203 -0.1388
12807TIP3    H159912   6.098   5.608  12.502 -0.3249  0.1263 -0.4437
12807TIP3    H259913   6.238   5.591  12.558  0.2708  0.6359 -1.7306
12808TIP3   OH259914   0.547   2.906  11.502 -0.2274  0.6282 -1.0184
12808TIP3    H159915   0.472   2.898  11.444 -0.5672 -0.1144 -0.4952
12808TIP3    H259916   0.610   2.960  11.454 -0.6451  0.3287 -1.9086
12809TIP3   OH259917   0.162   4.323   0.616 -0.4759 -0.0295  0.4334
12809TIP3    H159918   0.191   4.266   0.687  1.7089 -0.8723 -1.0393
12809TIP3    H259919   0.194   4.410   0.640 -0.6929 -0.0978  0.9760
12810TIP3   OH259920   5.149   3.507  13.024  0.1296  0.6689  0.5019
12810TIP3    H159921   5.153   3.417  13.055 -0.4909  0.0220 -1.1770
12810TIP3    H259922   5.240   3.533  13.010  0.2680 -0.1011 -0.0687
12811TIP3   OH259923   2.004   0.408   1.617 -0.1734 -0.0989  0.1517
12811TIP3    H159924   1.925   0.382   1.664 -0.1983 -0.2624  0.0200
12811TIP3    H259925   2.001   0.504   1.616 -0.6892 -0.1166 -0.3979
12812TIP3   OH259926   1.090   3.938  14.462  0.4624  0.4166 -0.3476
12812TIP3    H159927   1.076   3.944  14.367 -2.2718 -0.4377 -0.0949
12812TIP3    H259928   1.020   3.992  14.499  0.3690 -0.7188  1.1975
12813TIP3   OH259929   5.345   2.498  15.829  0.5864  0.0259  0.0488
12813TIP3    H159930   5.394   2.417  15.842  1.4494  0.5524  0.1745
12813TIP3    H259931   5.388   2.541  15.755 -1.2300 -0.6393 -1.4812
12814TIP3   OH259932   6.091   0.052   3.912  0.1313 -0.4956  0.3544
12814TIP3    H159933   6.038   0.113   3.860 -0.7296 -1.8521 -0.4179
12814TIP3    H259934   6.174   0.047   3.866  0.6036  0.8720  1.0088
12815TIP3   OH259935   2.205   1.915  11.639  0.6228 -0.1461  0.3079
12815TIP3    H159936   2.278   1.898  11.698  0.1003  0.8578  1.2713
12815TIP3    H259937   2.201   1.838  11.582  3.3515  0.3848 -0.7485
12816TIP3   OH259938   4.802   1.940  11.822  0.0960 -0.5786  0.0434
12816TIP3    H159939   4.873   1.913  11.764  0.2156  1.8290 -1.0678
12816TIP3    H259940   4.844   1.998  11.885 -0.6693 -0.1230  0.1447
12817TIP3   OH259941   0.054   6.251  11.090 -0.0477  0.1296  0.0938
12817TIP3    H159942   0.090   6.222  11.006  0.4256  0.2881  0.2369
12817TIP3    H259943  -0.039   6.233  11.084 -0.0022  0.0576 -0.4339
12818TIP3   OH259944   1.638   3.164  16.196 -0.2383 -0.3070  0.0916
12818TIP3    H159945   1.648   3.096  16.263  0.0673  0.3432  0.7176
12818TIP3    H259946   1.641   3.117  16.113  3.6577 -0.7041  0.3087
12819TIP3   OH259947   2.710   1.040  14.279  0.5165  0.4482 -0.0775
12819TIP3    H159948   2.797   1.037  14.318  0.1123 -0.1886  0.8075
12819TIP3    H259949   2.708   0.967  14.218 -0.7257 -2.2930  2.9125
12820TIP3   OH259950   6.719   6.730  12.871 -0.7682 -0.1835 -0.7081
12820TIP3    H159951   6.767   6.657  12.909 -1.3740 -0.5716 -0.6790
12820TIP3    H259952   6.644   6.742  12.928 -1.5075 -0.5503 -1.5685
12821TIP3   OH259953   3.045   1.428  12.582 -0.0261 -0.4214 -0.5943
12821TIP3    H159954   2.963   1.454  12.539  0.9659  1.3238 -1.5289
12821TIP3    H259955   3.114   1.455  12.521  1.3852  0.7827  1.4243
12822TIP3   OH259956   5.664   1.995  12.934  0.0641 -0.6823  0.0298
12822TIP3    H159957   5.641   2.088  12.929  0.2820 -0.5978  0.5325
12822TIP3    H259958   5.714   1.979  12.853  1.8406  0.1589  0.8972
12823TIP3   OH259959   5.920   6.215  12.443 -0.0382 -0.1223  0.5395
12823TIP3    H159960   5.901   6.296  12.395 -1.4065 -1.0016 -0.5122
12823TIP3    H259961   5.847   6.205  12.504  0.0226 -0.6353  0.5367
12824TIP3   OH259962   2.587   1.181  17.052 -0.0876  0.0049  0.1316
12824TIP3    H159963   2.513   1.145  17.100 -0.2937 -0.1838 -0.3181
12824TIP3    H259964   2.586   1.274  17.071  0.2164 -0.1634  0.9981
12825TIP3   OH259965   4.837   3.435  12.189 -0.6791 -0.2242 -0.2128
12825TIP3    H159966   4.912   3.491  12.171 -0.7811 -0.0274 -0.0248
12825TIP3    H259967   4.770   3.494  12.222  0.0141 -0.7663  2.3738
12826TIP3   OH259968   6.423   6.119   1.924  0.1005 -0.3004 -0.7306
12826TIP3    H159969   6.509   6.086   1.950  0.4134 -0.3062 -1.7016
12826TIP3    H259970   6.418   6.207   1.960  1.7168  0.8161 -2.9448
12827TIP3   OH259971   4.396   0.068  14.119  0.2252 -0.1096 -0.4623
12827TIP3    H159972   4.402   0.160  14.144 -0.2458 -0.0585 -0.5247
12827TIP3    H259973   4.479   0.049  14.076  0.9898 -0.1440  0.9593
12828TIP3   OH259974   4.611   5.558  11.907  0.8315  0.1521  0.1192
12828TIP3    H159975   4.622   5.570  11.813 -0.5096  0.3761 -0.0351
12828TIP3    H259976   4.586   5.466  11.917 -0.7737  0.5521  0.0495
12829TIP3   OH259977   2.831   4.327  15.982 -0.4121 -0.3105 -0.0869
12829TIP3    H159978   2.905   4.376  15.947 -0.7795 -0.5500 -1.2668
12829TIP3    H259979   2.862   4.237  15.987 -0.3449 -0.2683  0.2496
12830TIP3   OH259980   2.337   3.005  12.913 -0.1077 -0.0637  0.1740
12830TIP3    H159981   2.257   2.980  12.867  0.0573 -1.6088  0.6787
12830TIP3    H259982   2.407   2.969  12.859  0.1063 -1.4545  1.3326
12831TIP3   OH259983   6.364   1.487   0.385 -0.0980  0.1822 -0.0830
12831TIP3    H159984   6.410   1.428   0.445  2.2155  0.7059 -1.2205
12831TIP3    H259985   6.307   1.430   0.334 -0.7389 -0.5072  1.3442
12832TIP3   OH259986   1.168   4.605  12.911  0.1178 -0.1292 -0.4458
12832TIP3    H159987   1.140   4.556  12.834 -0.2095 -0.9582  0.1757
12832TIP3    H259988   1.131   4.692  12.900 -0.0986 -0.3056 -1.1215
12833TIP3   OH259989   2.350   2.560   1.295  0.1286  0.6817  0.1253
12833TIP3    H159990   2.412   2.576   1.224 -1.2618 -2.5087 -2.0239
12833TIP3    H259991   2.287   2.632   1.289  1.8291  2.2605  0.3599
12834TIP3   OH259992   1.750   5.960  15.911 -0.1333 -0.7268  0.4789
12834TIP3    H159993   1.798   5.934  15.989  1.2033  1.0788  0.3103
12834TIP3    H259994   1.802   6.031  15.873 -1.2627 -0.8999 -1.5148
12835TIP3   OH259995   4.842   6.158   3.573 -0.2263  0.2762 -0.1546
12835TIP3    H159996   4.916   6.151   3.633 -0.0187 -0.5989 -0.4958
12835TIP3    H259997   4.875   6.121   3.491 -0.4242  1.6702 -0.8840
12836TIP3   OH259998   1.231   0.114   5.493 -0.0564  0.4357  0.3964
12836TIP3    H159999   1.151   0.064   5.479 -0.1344  0.9937 -1.4020
12836TIP3    H260000   1.223   0.150   5.581 -0.8316 -1.1878  1.0120
12837TIP3   OH260001   4.828   3.908  11.489  0.7133  0.1925  0.1921
12837TIP3    H160002   4.812   3.815  11.477 -0.5773  0.4414 -0.1371
12837TIP3    H260003   4.857   3.939  11.403 -1.6075  0.6114 -0.4890
12838TIP3   OH260004   4.465   5.172   0.941  0.3052 -0.2970  0.0987
12838TIP3    H160005   4.544   5.160   0.993  0.8322  2.3637  0.0687
12838TIP3    H260006   4.406   5.102   0.969  1.8994 -1.0912  1.6249
12839TIP3   OH260007   6.646   5.512   0.742  0.8242  0.5369  0.2415
12839TIP3    H160008   6.611   5.595   0.774  0.9561  0.3581  0.8529
12839TIP3    H260009   6.622   5.448   0.809 -0.9719 -0.3064 -1.1153
12840TIP3   OH260010   1.549   2.669  14.170 -0.1212  0.6781  0.2666
12840TIP3    H160011   1.575   2.577  14.165  1.5135  1.1874 -1.0660
12840TIP3    H260012   1.617   2.717  14.123 -1.5989  2.4637 -0.1656
12841TIP3   OH260013   6.059   6.176   3.078  0.3932  0.1863 -0.3176
12841TIP3    H160014   6.075   6.129   3.160  1.5411  0.1082 -0.5662
12841TIP3    H260015   6.051   6.107   3.012 -0.6879  0.2411 -0.2720
12842TIP3   OH260016   5.366   0.948   3.157 -0.3341 -0.0557  0.0220
12842TIP3    H160017   5.397   0.994   3.079 -0.8227  0.5062  0.1555
12842TIP3    H260018   5.446   0.911   3.196  0.0275  0.4402 -0.2398
12843TIP3   OH260019   4.410   0.185  11.401  0.3858  0.1691  0.2143
12843TIP3    H160020   4.356   0.178  11.481  1.7672 -0.7050  1.1077
12843TIP3    H260021   4.346   0.189  11.330 -0.8824 -0.1511  1.2844
12844TIP3   OH260022   6.081   5.186  14.916  0.0102  0.5129  1.1990
12844TIP3    H160023   6.071   5.219  14.826 -2.0670 -0.1051  1.1723
12844TIP3    H260024   6.026   5.244  14.969 -0.4431 -0.4015  1.7491
12845TIP3   OH260025   6.481   0.036  11.340  0.3328  0.0632 -0.4888
12845TIP3    H160026   6.510   0.044  11.249 -0.0396 -0.3849 -0.6512
12845TIP3    H260027   6.537   0.097  11.389 -0.1320  1.0380 -1.1563
12846TIP3   OH260028   5.265   3.201  10.625 -0.0889  0.6859 -0.4656
12846TIP3    H160029   5.315   3.280  10.649 -0.7794  1.1858 -0.6453
12846TIP3    H260030   5.184   3.235  10.586  1.1861 -0.0244 -4.1476
12847TIP3   OH260031   6.602   2.752   1.252  0.7976  0.2038 -0.0938
12847TIP3    H160032   6.556   2.668   1.256 -0.2006  0.6846 -0.8729
12847TIP3    H260033   6.691   2.729   1.228  0.2462 -0.5810 -1.5376
12848TIP3   OH260034   5.739   2.441  14.048 -0.1450 -0.1085  0.1809
12848TIP3    H160035   5.738   2.493  14.128 -1.9830 -1.6704  1.2405
12848TIP3    H260036   5.814   2.475  13.999  1.0394  0.9090  2.5340
12849TIP3   OH260037   2.556   5.864   2.112  0.6174 -0.4058 -0.8608
12849TIP3    H160038   2.545   5.920   2.035 -0.2442  0.4904 -0.1142
12849TIP3    H260039   2.477   5.879   2.164  1.0406 -1.2341  0.0624
12850TIP3   OH260040   1.259   5.916  13.564 -0.2010  1.1281 -0.5969
12850TIP3    H160041   1.326   5.981  13.540  0.4865  0.2377 -1.1707
12850TIP3    H260042   1.288   5.835  13.522 -0.5348  0.2004  0.8867
12851TIP3   OH260043   3.621   4.691  15.823 -0.1180  0.1153 -0.2443
12851TIP3    H160044   3.538   4.740  15.823 -0.3724 -0.3087 -0.6617
12851TIP3    H260045   3.617   4.637  15.744 -0.8108 -2.1886  1.2717
12852TIP3   OH260046   6.734   3.967   2.645  0.2687 -0.1415 -0.3841
12852TIP3    H160047   6.684   3.924   2.575  1.0068  1.0861 -1.7273
12852TIP3    H260048   6.814   3.997   2.602  1.6228 -0.9727  1.4416
12853TIP3   OH260049   1.035   0.992   1.416 -0.4533  0.3121  0.3365
12853TIP3    H160050   0.977   0.980   1.492 -0.1063  1.1764  0.7497
12853TIP3    H260051   1.120   1.011   1.454  0.8711 -3.6334 -0.1821
12854TIP3   OH260052   0.701   2.609  13.462  0.2690 -0.7710  0.7117
12854TIP3    H160053   0.753   2.548  13.515 -0.1395 -0.9893  0.8683
12854TIP3    H260054   0.639   2.553  13.417 -0.7231 -0.3809  1.5610
12855TIP3   OH260055   0.980   5.355   5.132 -0.1533 -0.3193 -0.2110
12855TIP3    H160056   1.041   5.297   5.178 -0.5467  0.0205  0.7846
12855TIP3    H260057   0.895   5.314   5.143 -0.3569  0.1512  0.0359
12856TIP3   OH260058   3.191   5.899  13.671  0.1340  0.7638 -0.3282
12856TIP3    H160059   3.107   5.921  13.631 -0.6648 -0.9958  0.2597
12856TIP3    H260060   3.182   5.926  13.762 -1.2623 -2.5121  0.6862
12857TIP3   OH260061   6.104   5.527   1.765  0.1120  0.3352  0.0654
12857TIP3    H160062   6.034   5.588   1.741  1.4969  1.7458 -0.5420
12857TIP3    H260063   6.143   5.565   1.844 -0.3210 -0.8969  0.9017
12858TIP3   OH260064   6.089   3.571   2.565 -0.3563 -0.1940 -0.1698
12858TIP3    H160065   6.004   3.539   2.593  0.3971 -0.9823  1.3600
12858TIP3    H260066   6.138   3.583   2.646  1.4744 -1.1423 -1.0786
12859TIP3   OH260067   4.193   0.027   2.037  0.3736  0.2456 -0.6938
12859TIP3    H160068   4.163   0.084   2.108 -3.1549 -0.7054 -1.2089
12859TIP3    H260069   4.260  -0.029   2.077 -0.0409  1.1119  1.3148
12860TIP3   OH260070   3.044   1.255   4.850  0.8099 -0.3052 -0.5232
12860TIP3    H160071   2.990   1.293   4.781 -0.4586  1.8002  1.4923
12860TIP3    H260072   2.989   1.186   4.888  0.1602  0.7050  0.4273
12861TIP3   OH260073   5.993   0.737   1.207 -0.2478  0.4799  0.1655
12861TIP3    H160074   5.991   0.810   1.269  0.2662  1.0796 -0.4959
12861TIP3    H260075   6.073   0.751   1.157 -0.5714 -0.0804 -0.5253
12862TIP3   OH260076   6.505   3.847   1.137  0.0846  0.7712 -0.2800
12862TIP3    H160077   6.501   3.808   1.050 -0.3389  0.9871 -0.3590
12862TIP3    H260078   6.479   3.938   1.124 -2.7604  0.1398  0.4663
12863TIP3   OH260079   3.493   3.733  14.015  0.3077 -0.1202 -0.2882
12863TIP3    H160080   3.480   3.780  14.097 -0.9779 -1.4960  0.3543
12863TIP3    H260081   3.535   3.650  14.042  0.2218 -0.4237 -1.0623
12864TIP3   OH260082   5.581   6.216   3.523  0.4603 -0.2497 -1.0263
12864TIP3    H160083   5.571   6.265   3.442  2.2768  0.4098 -0.9036
12864TIP3    H260084   5.522   6.259   3.585 -0.2641 -0.1957 -1.7443
12865TIP3   OH260085   2.995   6.028  15.277 -0.4329 -0.2399 -0.3718
12865TIP3    H160086   3.019   6.116  15.247 -1.3946  0.2951  0.3639
12865TIP3    H260087   3.039   5.969  15.216  1.9395  0.6833  0.3232
12866TIP3   OH260088   4.799   6.278   0.305  0.1323 -0.8313  0.9761
12866TIP3    H160089   4.753   6.274   0.221  1.6700  1.0670 -0.0425
12866TIP3    H260090   4.730   6.270   0.371 -1.3000 -0.8451 -0.4679
12867TIP3   OH260091   0.278   0.575   4.425  0.2450 -0.6105  0.2456
12867TIP3    H160092   0.268   0.598   4.517  3.7709 -0.5128  0.7373
12867TIP3    H260093   0.272   0.659   4.378 -1.9222 -0.7025  0.2455
12868TIP3   OH260094   4.343   6.413  13.199  0.3425  0.2816  0.1812
12868TIP3    H160095   4.419   6.469  13.216  1.2388 -0.5243 -1.0228
12868TIP3    H260096   4.268   6.473  13.202  1.2415  1.5154 -0.7691
12869TIP3   OH260097   1.275   2.888   5.938  0.2760 -0.1494  0.0633
12869TIP3    H160098   1.245   2.819   5.879  1.0706 -0.0487 -0.4830
12869TIP3    H260099   1.255   2.856   6.026  1.4097 -1.4769 -0.1340
12870TIP3   OH260100   6.040   3.499   3.642 -0.1859  0.6073 -0.5050
12870TIP3    H160101   6.130   3.522   3.618  0.0969  0.5444  0.4571
12870TIP3    H260102   6.038   3.403   3.641  0.0522  0.5917  0.5218
12871TIP3   OH260103   3.987   6.319  14.485 -0.7182  0.2136 -0.5147
12871TIP3    H160104   4.057   6.262  14.454  0.5982  1.4684  0.0301
12871TIP3    H260105   3.920   6.313  14.418  0.5980  0.1969 -1.8800
12872TIP3   OH260106   3.934   5.803  14.544  0.3601 -0.4125  0.6488
12872TIP3    H160107   3.955   5.886  14.501 -0.9104  0.5961  1.9000
12872TIP3    H260108   3.846   5.815  14.579  0.2299 -2.2248  1.0525
12873TIP3   OH260109   2.221   1.802  12.332  0.0284  0.1032  0.1238
12873TIP3    H160110   2.218   1.809  12.237  0.7137  2.1645  0.1989
12873TIP3    H260111   2.310   1.828  12.356  0.1011 -1.1197  1.2981
12874TIP3   OH260112   6.430   0.054  16.657  0.1578  0.2357  0.1647
12874TIP3    H160113   6.467   0.140  16.639  1.3714 -0.3480 -0.2713
12874TIP3    H260114   6.475   0.024  16.736  0.5936 -0.4535 -0.3281
12875TIP3   OH260115   6.626   5.066   2.463 -0.1581  0.3970 -0.2411
12875TIP3    H160116   6.656   5.156   2.471  1.0159  0.0571 -0.6678
12875TIP3    H260117   6.689   5.024   2.405 -2.4543  0.1006 -2.7126
12876TIP3   OH260118   5.222   0.052   3.160 -0.0853 -0.3844 -0.8198
12876TIP3    H160119   5.128   0.052   3.139 -0.6435  0.0244  1.4104
12876TIP3    H260120   5.240   0.141   3.189  0.2389 -1.1865  1.6515
12877TIP3   OH260121   2.349   6.136  14.526 -0.7491  0.1377  0.2862
12877TIP3    H160122   2.307   6.082  14.594  0.3821  0.4564  1.2648
12877TIP3    H260123   2.442   6.130  14.546 -0.3866  0.1665 -1.3177
12878TIP3   OH260124   6.039   3.273   5.693  0.2366 -0.7125 -0.0586
12878TIP3    H160125   6.099   3.210   5.733 -0.2848 -1.5938 -0.6112
12878TIP3    H260126   5.952   3.243   5.720 -0.0305 -0.3779 -0.5353
12879TIP3   OH260127   6.573   4.903   0.297 -0.0113  0.1894 -0.1136
12879TIP3    H160128   6.565   4.905   0.201  1.5939  0.0437 -0.2714
12879TIP3    H260129   6.553   4.812   0.320  2.2950 -0.5218 -0.6340
12880TIP3   OH260130   1.373   1.890  16.280  0.5655 -0.7409 -0.2901
12880TIP3    H160131   1.327   1.960  16.233 -1.0502 -1.8594 -0.4644
12880TIP3    H260132   1.388   1.926  16.368 -3.1376 -1.1765  0.6985
12881TIP3   OH260133   2.221   4.495  12.299 -0.7178  0.7369 -0.1021
12881TIP3    H160134   2.270   4.555  12.356  0.1620  1.6218 -1.7440
12881TIP3    H260135   2.132   4.531  12.298 -0.6655  0.8939  0.4455
12882TIP3   OH260136   5.756   3.328  15.033  0.0710  0.4150  0.0578
12882TIP3    H160137   5.662   3.348  15.036 -0.0549 -0.2458  2.5429
12882TIP3    H260138   5.797   3.413  15.014 -0.9037  1.2599  1.4981
12883TIP3   OH260139   0.643   0.189   0.869 -0.2069 -0.2964  0.0823
12883TIP3    H160140   0.652   0.184   0.964 -0.3745 -0.6986  0.0818
12883TIP3    H260141   0.729   0.163   0.835 -0.2101 -0.3601  0.1224
12884TIP3   OH260142   0.588   5.832  13.579  0.1350  0.2036  0.1747
12884TIP3    H160143   0.593   5.912  13.525  0.9852 -0.4163 -0.6964
12884TIP3    H260144   0.497   5.828  13.606 -0.2161  0.7955 -0.8324
12885TIP3   OH260145   5.284   0.879   1.802  0.0537  0.3942 -0.0493
12885TIP3    H160146   5.196   0.909   1.781 -0.2651  1.1973  2.1879
12885TIP3    H260147   5.276   0.785   1.813 -0.0126  0.1193 -2.0219
12886TIP3   OH260148   1.389   1.702   5.310 -0.2392  0.4827 -0.6443
12886TIP3    H160149   1.415   1.673   5.223  0.6902  0.7465 -0.4670
12886TIP3    H260150   1.461   1.759   5.339  0.2673 -0.8784  0.9474
12887TIP3   OH260151   2.047   0.985   2.365 -0.4842 -0.1120 -0.1772
12887TIP3    H160152   1.990   1.029   2.428  2.6424  0.1017  2.7944
12887TIP3    H260153   2.106   1.053   2.333 -0.0236 -0.8418 -0.9491
12888TIP3   OH260154   2.800   4.838  12.061  0.1603  0.1472  0.3878
12888TIP3    H160155   2.891   4.854  12.084  2.2111 -3.1482 -3.9157
12888TIP3    H260156   2.785   4.891  11.983 -0.5191 -1.4972 -0.6609
12889TIP3   OH260157   3.865   4.489   2.750  0.2458 -0.0192  0.4238
12889TIP3    H160158   3.882   4.545   2.674 -0.5513 -0.2634  0.0503
12889TIP3    H260159   3.910   4.533   2.823  0.3574  0.6406 -0.0335
12890TIP3   OH260160   1.797   2.756  16.997  0.2589 -0.4643 -0.0943
12890TIP3    H160161   1.723   2.803  17.037 -0.0973 -0.2484 -0.9750
12890TIP3    H260162   1.826   2.814  16.927 -0.4221 -1.7110 -1.4502
12891TIP3   OH260163   6.237   2.572  12.648  0.6149  0.0110  0.0619
12891TIP3    H160164   6.160   2.553  12.702  1.0508 -1.2571  0.2667
12891TIP3    H260165   6.218   2.657  12.609 -0.9800 -0.3516 -0.0378
12892TIP3   OH260166   5.812   5.076   0.648 -0.2603 -0.0316 -0.5594
12892TIP3    H160167   5.782   5.040   0.731 -0.2435 -1.5566 -1.1837
12892TIP3    H260168   5.881   5.016   0.619  0.8037  1.3411 -0.9416
12893TIP3   OH260169   5.297   4.205   4.188 -0.1800  0.1415  0.6087
12893TIP3    H160170   5.372   4.263   4.190 -0.0054 -0.0976  1.4226
12893TIP3    H260171   5.297   4.162   4.274 -0.4205 -0.9060  0.1012
12894TIP3   OH260172   4.070   0.502   1.522  0.1335 -0.1748  0.2244
12894TIP3    H160173   4.125   0.450   1.580 -1.7917 -1.6039  0.8659
12894TIP3    H260174   4.059   0.586   1.568  1.6023  0.1084  0.1293
12895TIP3   OH260175   3.337   6.645  15.167 -0.2676 -0.7134  0.1529
12895TIP3    H160176   3.247   6.657  15.199 -0.0064  0.9594  0.3430
12895TIP3    H260177   3.372   6.734  15.159  1.1257 -1.3013 -0.6609
12896TIP3   OH260178   3.122   1.541   6.003  0.1739  0.1632 -0.1990
12896TIP3    H160179   3.185   1.614   6.001 -0.5424  0.7824 -2.0130
12896TIP3    H260180   3.172   1.469   6.041  1.1343  1.3648  0.9704
12897TIP3   OH260181   2.929   4.335  17.200 -0.7621  0.0587  0.2856
12897TIP3    H160182   2.970   4.391  17.267 -0.4773 -0.8074  0.8581
12897TIP3    H260183   2.999   4.275  17.174 -1.5087 -1.1105  0.8960
12898TIP3   OH260184   1.874   3.543  15.489 -0.1902  0.2103 -0.4634
12898TIP3    H160185   1.811   3.562  15.420  0.3909  1.8044 -0.6076
12898TIP3    H260186   1.861   3.612  15.554  1.7390  0.9479 -0.7671
12899TIP3   OH260187   4.757   4.698   1.464 -0.5757 -0.0735 -0.1455
12899TIP3    H160188   4.796   4.655   1.540 -0.9744 -0.3241 -0.0790
12899TIP3    H260189   4.684   4.642   1.440 -0.4171 -0.0293 -0.7538
12900TIP3   OH260190   3.422   5.906   2.377  0.5391  0.1705 -0.7205
12900TIP3    H160191   3.477   5.963   2.430  1.2316 -0.2892 -0.9181
12900TIP3    H260192   3.435   5.937   2.287  1.1068 -0.4295 -0.8560
12901TIP3   OH260193   3.530   3.554  16.044  0.1396 -0.1932  0.3700
12901TIP3    H160194   3.527   3.639  16.087  0.0488 -0.6452  1.2710
12901TIP3    H260195   3.573   3.572  15.960 -0.7810  0.9155  0.1021
12902TIP3   OH260196   4.994   5.514  15.127 -0.2340 -0.4346  0.6272
12902TIP3    H160197   5.046   5.594  15.128 -0.1940 -0.4482  0.1123
12902TIP3    H260198   5.054   5.446  15.156  0.0899 -0.4735 -0.1010
12903TIP3   OH260199   4.868   1.536  14.668  0.2439 -0.8162 -0.3188
12903TIP3    H160200   4.857   1.501  14.756 -0.9196  0.9694  0.3103
12903TIP3    H260201   4.793   1.501  14.619  0.5780 -1.3540 -0.4519
12904TIP3   OH260202   6.576   0.676   1.903 -0.2999 -0.6907  0.2076
12904TIP3    H160203   6.668   0.650   1.906 -0.4004 -1.0102  2.4292
12904TIP3    H260204   6.528   0.594   1.894 -0.4185 -0.7706  1.4008
12905TIP3   OH260205   0.850   6.799  11.243 -0.4335  0.6237  0.1632
12905TIP3    H160206   0.933   6.832  11.275 -0.1578 -1.1979  1.5386
12905TIP3    H260207   0.871   6.714  11.204 -1.8179 -0.7689  2.2296
12906TIP3   OH260208   5.332   1.825  15.182 -0.4149 -0.5246  0.3736
12906TIP3    H160209   5.307   1.914  15.159  2.4355  0.4286  0.4728
12906TIP3    H260210   5.281   1.805  15.260 -2.9058  0.0130 -1.0170
12907TIP3   OH260211   6.754   4.434   0.678  0.8161  0.1473  0.5211
12907TIP3    H160212   6.813   4.502   0.644  0.3836  0.1477 -0.2462
12907TIP3    H260213   6.794   4.352   0.649 -0.3288  0.1888 -1.3358
12908TIP3   OH260214   5.861   2.141  12.461  0.1802  0.6517  0.1481
12908TIP3    H160215   5.946   2.152  12.502  0.1834 -0.8170  0.6174
12908TIP3    H260216   5.801   2.192  12.516  0.2197 -1.0872  1.9387
12909TIP3   OH260217   0.609   6.457   1.204 -0.3624  0.3370 -0.0052
12909TIP3    H160218   0.546   6.420   1.142  1.4202 -1.3783 -0.8887
12909TIP3    H260219   0.566   6.449   1.290 -1.4794 -0.4183 -0.6184
12910TIP3   OH260220   0.228   2.469   4.656  0.4305  0.2906 -0.2936
12910TIP3    H160221   0.242   2.389   4.604 -1.4350  0.9730 -1.9740
12910TIP3    H260222   0.210   2.437   4.744  1.8095 -1.0117 -0.4421
12911TIP3   OH260223   1.087   3.511   5.676 -0.2701  0.3073 -0.2511
12911TIP3    H160224   1.162   3.463   5.712 -1.6264 -0.8499  1.1458
12911TIP3    H260225   1.098   3.504   5.581  1.3141  0.0684 -0.0782
12912TIP3   OH260226   1.289   4.950  13.402 -0.6890 -0.0080 -0.8721
12912TIP3    H160227   1.285   4.950  13.497  1.5062  0.5620 -0.7268
12912TIP3    H260228   1.205   4.914  13.374 -0.7469 -1.7385  1.3027
12913TIP3   OH260229   0.417   1.797   5.724 -0.7064  0.2162 -0.2325
12913TIP3    H160230   0.444   1.775   5.814 -1.2164  1.7325  0.3282
12913TIP3    H260231   0.399   1.891   5.727  1.2337  0.7523 -2.4355
12914TIP3   OH260232   3.495   0.684   0.963  0.2982 -0.1023 -0.0376
12914TIP3    H160233   3.498   0.595   0.928  0.9816 -0.0993  0.0049
12914TIP3    H260234   3.401   0.702   0.975  0.1839 -1.1395  0.7876
12915TIP3   OH260235   2.657   3.850   5.879  0.2927  0.4115  0.0065
12915TIP3    H160236   2.573   3.893   5.863  0.1046  0.4530  1.0056
12915TIP3    H260237   2.695   3.899   5.952  1.8742  1.3277 -1.3679
12916TIP3   OH260238   5.287   3.738   2.966  0.0036 -0.3442  0.2510
12916TIP3    H160239   5.239   3.766   2.888  1.2570 -2.6099 -1.4419
12916TIP3    H260240   5.251   3.652   2.986  1.0626 -0.6410  0.9613
12917TIP3   OH260241   3.000   0.034   1.730 -0.3139  0.4086 -0.6807
12917TIP3    H160242   3.065   0.055   1.664 -3.0070 -0.2876 -3.8419
12917TIP3    H260243   2.936  -0.021   1.684 -4.0746  2.4402  1.5923
12918TIP3   OH260244   4.869   4.596   1.706 -0.1906 -0.0399 -0.3006
12918TIP3    H160245   4.803   4.542   1.748 -0.6170 -0.8551 -1.9448
12918TIP3    H260246   4.901   4.653   1.776 -0.3683 -1.7786  1.2787
12919TIP3   OH260247   1.659   1.413   1.754 -0.0763  0.2898  0.2025
12919TIP3    H160248   1.638   1.363   1.675 -0.3729  0.9171 -0.1239
12919TIP3    H260249   1.590   1.480   1.759  0.4484  0.8166  0.4937
12920TIP3   OH260250   1.448   4.960   5.093 -0.4661 -0.0719  0.2594
12920TIP3    H160251   1.540   4.935   5.085 -1.0435 -1.8870 -1.4152
12920TIP3    H260252   1.427   5.000   5.009 -1.3948 -0.3453  0.3562
12921TIP3   OH260253   4.739   2.943   0.576  0.6894  0.1325 -0.0880
12921TIP3    H160254   4.755   3.028   0.533  0.9678 -1.2176 -2.8597
12921TIP3    H260255   4.741   2.879   0.505 -0.8536 -2.0952  1.7277
12922TIP3   OH260256   6.144   3.710   4.599 -0.3165  0.5444 -0.0522
12922TIP3    H160257   6.181   3.741   4.682 -0.3523  0.0820  0.1411
12922TIP3    H260258   6.081   3.642   4.624 -0.2214  0.2968 -0.4665
12923TIP3   OH260259   0.598   1.770  11.730  0.1888 -0.3827  0.4884
12923TIP3    H160260   0.598   1.729  11.643 -0.0252 -1.5799  1.0327
12923TIP3    H260261   0.505   1.780  11.752  0.2223 -1.2938  1.1122
12924TIP3   OH260262   2.995   2.616   5.640 -0.3961 -0.1462  0.2218
12924TIP3    H160263   2.910   2.579   5.617 -1.4545  2.3027 -0.0733
12924TIP3    H260264   2.985   2.646   5.730  0.2169 -0.0506  0.2628
12925TIP3   OH260265   0.580   1.654  11.472 -0.1799 -0.5588  0.6308
12925TIP3    H160266   0.664   1.688  11.443  0.3725 -1.5987  0.9578
12925TIP3    H260267   0.542   1.614  11.394 -1.4159  1.8062 -0.0911
12926TIP3   OH260268   2.975   5.806   1.742  0.1228 -0.1437 -0.2360
12926TIP3    H160269   2.984   5.711   1.755  1.8123 -0.1541 -1.2511
12926TIP3    H260270   2.958   5.840   1.830  2.0555 -1.1449  0.5727
12927TIP3   OH260271   3.261   0.791  13.464 -0.1277  0.2731 -0.2046
12927TIP3    H160272   3.353   0.806  13.488 -0.6709  1.9753  1.0198
12927TIP3    H260273   3.265   0.754  13.376  1.7289  0.4783 -0.2476
12928TIP3   OH260274   4.762   5.977   3.860  0.1759 -0.9617  1.2406
12928TIP3    H160275   4.692   6.033   3.827 -0.1895 -0.4554  2.8002
12928TIP3    H260276   4.762   5.902   3.801 -0.7938 -0.3456  0.4262
12929TIP3   OH260277   1.564   4.724  11.628 -0.1619  0.3710  0.2656
12929TIP3    H160278   1.566   4.783  11.703  0.6276 -1.7725  2.0693
12929TIP3    H260279   1.654   4.690  11.623 -0.7411 -1.2003 -0.1854
12930TIP3   OH260280   0.134   3.975   6.152 -0.1786 -0.7571  0.4541
12930TIP3    H160281   0.160   3.974   6.244  0.2621 -0.3224  0.3394
12930TIP3    H260282   0.195   3.916   6.109  0.0757 -0.4097  0.3281
12931TIP3   OH260283   5.247   5.226   5.482  0.2152  0.0809 -0.1725
12931TIP3    H160284   5.295   5.151   5.518  2.6629  1.0772 -1.1686
12931TIP3    H260285   5.245   5.210   5.388  0.1320  0.9301 -0.3171
12932TIP3   OH260286   2.364   0.824  13.601 -0.8134 -0.1775  0.7709
12932TIP3    H160287   2.270   0.841  13.597 -0.3109  2.9402 -0.3798
12932TIP3    H260288   2.395   0.837  13.511  0.8779 -0.0088  1.3371
12933TIP3   OH260289   4.052   2.472   4.886  0.8732  0.1798  0.5873
12933TIP3    H160290   4.104   2.482   4.965  2.0274  2.5126 -0.3638
12933TIP3    H260291   3.988   2.404   4.908  0.8114  1.0631  3.6849
12934TIP3   OH260292   0.995   3.953  15.980  0.1755 -0.1109 -0.1158
12934TIP3    H160293   1.020   4.031  16.030 -1.1809  0.1695  0.1476
12934TIP3    H260294   1.070   3.894  15.989  1.3136  1.2275 -0.4897
12935TIP3   OH260295   6.622   5.345  11.790  0.5538  0.3496 -0.0845
12935TIP3    H160296   6.569   5.281  11.838  0.8938  0.6247  0.6617
12935TIP3    H260297   6.583   5.347  11.703  2.2606 -3.0398 -1.1127
12936TIP3   OH260298   4.137   1.730   5.186  0.3655 -0.7001  0.3852
12936TIP3    H160299   4.141   1.678   5.266  0.2094  0.4428  1.1720
12936TIP3    H260300   4.197   1.804   5.203  2.2004 -1.6366 -1.4872
12937TIP3   OH260301   1.121   3.606  15.492 -0.1439 -0.2452  0.4437
12937TIP3    H160302   1.037   3.600  15.539 -0.4919 -0.1054 -0.1538
12937TIP3    H260303   1.100   3.581  15.402  0.5808 -0.8007  0.4237
12938TIP3   OH260304   4.199   4.920  16.699  0.2125  0.3953 -0.4714
12938TIP3    H160305   4.246   4.844  16.665  0.1431 -0.2050  0.7268
12938TIP3    H260306   4.190   4.978  16.623  1.9177  0.0517 -0.9805
12939TIP3   OH260307   4.542   0.226  14.754 -0.6453 -0.9664  0.2850
12939TIP3    H160308   4.498   0.311  14.760 -0.5811 -0.7808 -1.3618
12939TIP3    H260309   4.493   0.178  14.688  0.2602 -1.6091  0.0531
12940TIP3   OH260310   1.253   2.277  14.902  0.5980 -0.1611 -0.3537
12940TIP3    H160311   1.163   2.249  14.921  1.0159 -2.4505 -1.4135
12940TIP3    H260312   1.308   2.212  14.946  1.6446 -1.0111 -2.7546
12941TIP3   OH260313   6.543   5.054   3.893  0.1672 -0.3756  0.0906
12941TIP3    H160314   6.541   5.133   3.947  1.7092 -0.5171  0.3994
12941TIP3    H260315   6.633   5.049   3.861 -0.2304 -1.3444 -0.9409
12942TIP3   OH260316   4.900   4.624  12.024 -0.0955 -0.0230  0.2150
12942TIP3    H160317   4.955   4.608  12.101 -1.0960  0.5576  1.0725
12942TIP3    H260318   4.883   4.537  11.988 -1.1186 -0.4916  1.7357
12943TIP3   OH260319   1.335   0.141   4.807 -0.4389  0.1412  0.0841
12943TIP3    H160320   1.423   0.167   4.781 -0.1450  0.2948  1.1826
12943TIP3    H260321   1.294   0.109   4.727  0.6225  0.0508 -0.4294
12944TIP3   OH260322   3.302   4.602  16.088  0.6204  0.2027  0.2980
12944TIP3    H160323   3.316   4.695  16.071 -0.1553  0.2055 -0.3464
12944TIP3    H260324   3.390   4.563  16.080  0.5462  0.4267 -2.3711
12945TIP3   OH260325   0.174   1.066   1.812  0.1442 -0.1363 -0.1702
12945TIP3    H160326   0.193   0.996   1.749 -0.9281  0.4012 -1.1472
12945TIP3    H260327   0.078   1.063   1.822  0.0654  1.2387 -0.3201
12946TIP3   OH260328   6.802   4.326  14.744  0.2154 -0.2310  0.5006
12946TIP3    H160329   6.729   4.282  14.788 -0.1766  0.8800  0.9912
12946TIP3    H260330   6.801   4.291  14.655 -0.7594 -0.4040  0.5689
12947TIP3   OH260331   3.884   1.783   1.423  0.5798  0.3030 -0.2222
12947TIP3    H160332   3.978   1.799   1.436  0.4990  0.0679  0.6952
12947TIP3    H260333   3.851   1.762   1.510 -0.0144 -1.2807 -0.7868
12948TIP3   OH260334   4.467   1.178  15.884  0.3050  0.8141 -0.0227
12948TIP3    H160335   4.514   1.231  15.820  1.5363  0.5087  0.6190
12948TIP3    H260336   4.469   1.090  15.848  0.4937  0.7445  0.1600
12949TIP3   OH260337   5.347   6.089  13.796  0.6462 -0.3603  0.4885
12949TIP3    H160338   5.367   6.177  13.764  0.3693 -0.3003  0.4764
12949TIP3    H260339   5.253   6.078  13.780  0.9249 -1.1578 -0.7412
12950TIP3   OH260340   3.779   1.877  14.205  0.2471  0.7539 -0.0090
12950TIP3    H160341   3.853   1.916  14.250  1.2777 -0.6219 -0.4423
12950TIP3    H260342   3.776   1.786  14.236 -2.0645  1.0867  0.9803
12951TIP3   OH260343   5.890   3.218  17.124 -0.0753 -0.1242  0.6060
12951TIP3    H160344   5.973   3.174  17.138  0.2078  0.3683  0.5017
12951TIP3    H260345   5.914   3.303  17.088 -0.6112  0.1225  0.8243
12952TIP3   OH260346   6.786   6.194  12.202  0.0404 -0.0635 -0.4640
12952TIP3    H160347   6.845   6.261  12.237  0.9055  0.3670 -2.5794
12952TIP3    H260348   6.710   6.244  12.171 -1.5549 -0.6149  2.2606
12953TIP3   OH260349   2.904   4.445  13.819  0.1939 -0.0285  0.0247
12953TIP3    H160350   2.919   4.366  13.871 -2.3297 -0.2720  0.5059
12953TIP3    H260351   2.969   4.508  13.851  0.5123 -1.0686  1.4948
12954TIP3   OH260352   1.609   0.136   4.856 -0.8719 -1.0411 -0.1307
12954TIP3    H160353   1.638   0.052   4.821 -0.4437 -1.2835  0.7909
12954TIP3    H260354   1.592   0.119   4.948  0.3823  0.1632  0.3552
12955TIP3   OH260355   3.621   3.768   1.430 -0.5363  0.5427  0.3958
12955TIP3    H160356   3.621   3.809   1.344 -0.8099  4.3998  2.0622
12955TIP3    H260357   3.714   3.758   1.452 -0.4487  1.2115  0.3495
12956TIP3   OH260358   0.472   3.986  14.507 -0.3476  1.0116 -0.1239
12956TIP3    H160359   0.425   4.029  14.578 -1.0280 -0.3941  0.3215
12956TIP3    H260360   0.558   3.963  14.544 -1.0613 -0.6227  0.6303
12957TIP3   OH260361   4.938   2.830   4.435  0.6069 -0.1418  0.5825
12957TIP3    H160362   4.985   2.796   4.359 -0.6262 -0.3939 -0.0964
12957TIP3    H260363   4.896   2.753   4.473  1.2178 -0.0135  1.5283
12958TIP3   OH260364   6.075   0.848  10.459 -0.0188  0.3833  0.0780
12958TIP3    H160365   6.039   0.877  10.375 -0.7966 -1.3613 -0.2225
12958TIP3    H260366   6.072   0.753  10.455  0.3758  0.2647  1.9082
12959TIP3   OH260367   2.648   4.425   5.539 -0.2376  0.1556 -0.0181
12959TIP3    H160368   2.711   4.427   5.467  0.2573  0.1804  0.4100
12959TIP3    H260369   2.571   4.469   5.504 -0.5032 -1.0103 -0.9844
12960TIP3   OH260370   6.752   0.840  10.909 -0.3811  0.4020 -0.1695
12960TIP3    H160371   6.768   0.801  10.822  0.4462  1.3504 -0.4684
12960TIP3    H260372   6.817   0.911  10.915  0.9358 -0.8826  2.0301
12961TIP3   OH260373   6.777   0.557  16.095  0.7508  0.4587 -0.4344
12961TIP3    H160374   6.795   0.546  16.188  0.2010  1.3603 -0.2019
12961TIP3    H260375   6.696   0.509  16.080  0.4477  0.9184 -0.2821
12962TIP3   OH260376   4.346   4.985   2.845  0.1163 -0.5410  0.1342
12962TIP3    H160377   4.342   4.918   2.914  0.2691 -0.6221  0.0654
12962TIP3    H260378   4.264   5.033   2.854  0.0748 -0.6367  0.2873
12963TIP3   OH260379   2.546   2.898  13.414 -0.2692 -0.0674 -0.2290
12963TIP3    H160380   2.594   2.980  13.409  1.6882 -1.2199 -1.4228
12963TIP3    H260381   2.560   2.856  13.330 -1.6100 -1.4530  0.1804
12964TIP3   OH260382   0.032   6.474   2.191 -0.2177 -0.3607 -0.3931
12964TIP3    H160383   0.053   6.568   2.186 -1.4588  0.1685  2.3671
12964TIP3    H260384   0.081   6.435   2.119  0.8739  2.3133 -1.2386
12965TIP3   OH260385   3.246   4.166  13.779  0.6965 -0.0707 -1.1816
12965TIP3    H160386   3.243   4.256  13.811  1.4089 -0.3611 -0.2483
12965TIP3    H260387   3.337   4.138  13.793  0.4709 -0.9563 -1.4002
12966TIP3   OH260388   6.654   5.344   2.447  0.1889 -0.4526 -0.1761
12966TIP3    H160389   6.745   5.366   2.467 -0.1157 -0.5188  1.3846
12966TIP3    H260390   6.622   5.418   2.397  0.6133  0.3829  0.7552
12967TIP3   OH260391   1.042   4.519   5.027 -0.4683  0.6126 -0.0143
12967TIP3    H160392   0.979   4.451   5.053  0.1808 -0.2557 -0.6269
12967TIP3    H260393   0.995   4.601   5.039 -1.1743  0.0844  1.0634
12968TIP3   OH260394   0.055   4.034   2.339  0.1559  0.4682 -0.5414
12968TIP3    H160395  -0.029   4.002   2.369  0.0910  1.2024  0.0893
12968TIP3    H260396   0.113   4.026   2.415 -0.0839  2.6059 -0.0846
12969TIP3   OH260397   6.362   4.218   5.693  0.1545 -0.0602 -0.0114
12969TIP3    H160398   6.341   4.311   5.687  1.2499  0.1059 -1.8375
12969TIP3    H260399   6.417   4.212   5.771  1.0459  1.0499 -0.5181
12970TIP3   OH260400   4.704   5.414   0.800  0.1459  0.5541  0.1386
12970TIP3    H160401   4.793   5.425   0.767  0.6076  0.9042  1.4351
12970TIP3    H260402   4.682   5.323   0.781  0.6814  0.5408 -0.4272
12971TIP3   OH260403   6.140   2.510  10.625  0.2468 -0.6510 -0.0749
12971TIP3    H160404   6.049   2.533  10.641  0.9802  1.1727  2.0029
12971TIP3    H260405   6.179   2.587  10.584  1.2166 -0.7470  0.6106
12972TIP3   OH260406   4.867   1.475  14.930 -0.0835  0.4018  0.0624
12972TIP3    H160407   4.937   1.430  14.978 -2.0705 -1.4162  1.4351
12972TIP3    H260408   4.830   1.537  14.993 -0.7943  0.1362 -0.0850
12973TIP3   OH260409   6.313   6.453  14.352  0.5717  0.2145  0.5402
12973TIP3    H160410   6.362   6.388  14.303 -0.9192 -1.6414  1.3525
12973TIP3    H260411   6.272   6.508  14.286  2.4871  0.8635 -0.1483
12974TIP3   OH260412   6.171   2.838  12.576 -0.2111 -0.6276 -0.3393
12974TIP3    H160413   6.180   2.932  12.591 -1.1485 -0.7984  1.6554
12974TIP3    H260414   6.113   2.831  12.500 -0.2871  0.4249 -0.3851
12975TIP3   OH260415   4.965   4.540  11.691  0.2309  0.0901  0.0555
12975TIP3    H160416   4.926   4.482  11.756  0.5333 -1.5159 -1.1362
12975TIP3    H260417   4.891   4.594  11.660  0.4869  2.6045  3.2993
12976TIP3   OH260418   1.018   0.139  17.135  0.0760  0.2187 -0.1619
12976TIP3    H160419   0.989   0.227  17.158 -0.0240  0.3782 -0.8655
12976TIP3    H260420   0.956   0.081  17.180  0.9940  0.4525  1.4812
12977TIP3   OH260421   3.308   4.059  15.463  0.1927 -0.3661 -0.8677
12977TIP3    H160422   3.328   4.022  15.377  0.7627 -1.7358 -0.1819
12977TIP3    H260423   3.261   3.988  15.508 -2.5416  1.2587 -0.9621
12978TIP3   OH260424   5.569   1.084  16.846 -0.1668  0.3536 -0.0067
12978TIP3    H160425   5.569   1.162  16.902  0.6000  0.5396 -0.2573
12978TIP3    H260426   5.483   1.045  16.859  0.0390  0.3149  1.4292
12979TIP3   OH260427   1.917   2.405  14.273  0.3175  0.3768 -0.2286
12979TIP3    H160428   1.932   2.399  14.368 -3.1872  1.3964  0.5465
12979TIP3    H260429   1.933   2.316  14.241  1.9830  0.1024  1.2217
12980TIP3   OH260430   0.610   5.363   1.289  0.1253 -0.0805  0.5404
12980TIP3    H160431   0.581   5.369   1.198 -0.1475 -0.3729  0.6055
12980TIP3    H260432   0.685   5.423   1.294 -0.4715  0.7036  0.3715
12981TIP3   OH260433   2.751   4.169   0.034 -0.1286  0.7445 -0.3449
12981TIP3    H160434   2.764   4.260   0.061  0.5734  1.1356 -1.8460
12981TIP3    H260435   2.741   4.174  -0.061 -1.1966 -0.6504 -0.3290
12982TIP3   OH260436   4.616   0.551  16.281  0.3585  0.4752  0.3193
12982TIP3    H160437   4.654   0.472  16.320  0.9773  0.5483 -0.1136
12982TIP3    H260438   4.572   0.520  16.202  0.7968  0.5896  0.0270
12983TIP3   OH260439   1.154   5.493   2.392 -0.7681 -0.0254  0.0496
12983TIP3    H160440   1.155   5.468   2.484 -0.1672  1.7313  0.5555
12983TIP3    H260441   1.243   5.477   2.361 -1.4256 -2.4477 -0.8085
12984TIP3   OH260442   0.519   1.702  13.908  0.3479  0.2427 -0.0609
12984TIP3    H160443   0.462   1.751  13.967 -1.2281 -1.5383 -0.0070
12984TIP3    H260444   0.487   1.722  13.820  2.4487  2.5869 -0.3947
12985TIP3   OH260445   3.566   5.309   0.578 -0.1989 -0.0377  0.0249
12985TIP3    H160446   3.629   5.323   0.507 -0.5872  0.0296 -0.3092
12985TIP3    H260447   3.609   5.344   0.656  0.7587 -1.2320  0.0740
12986TIP3   OH260448   3.881   3.802  15.185  0.4285 -0.0960  0.5110
12986TIP3    H160449   3.861   3.713  15.157  2.1244 -0.1731 -0.5394
12986TIP3    H260450   3.959   3.827  15.136 -0.5477  2.3429  0.0204
12987TIP3   OH260451   1.250   3.387   6.503 -0.4564  0.6319 -0.7080
12987TIP3    H160452   1.157   3.366   6.506 -0.1726 -0.5574  0.1689
12987TIP3    H260453   1.263   3.452   6.572 -0.4465 -0.0337 -0.0737
12988TIP3   OH260454   2.261   0.149   4.818  0.3922  0.1384 -0.2469
12988TIP3    H160455   2.325   0.219   4.804  0.1546  0.5527  0.6664
12988TIP3    H260456   2.275   0.121   4.908 -1.0009  0.5470  0.1250
12989TIP3   OH260457   6.547   1.999  13.669 -0.6222  0.5799  0.1590
12989TIP3    H160458   6.458   2.024  13.643 -0.6921 -0.4415 -0.6469
12989TIP3    H260459   6.553   1.905  13.648  0.7134  0.6764  0.0108
12990TIP3   OH260460   0.286   0.774  16.561 -0.1565  0.9605 -0.7733
12990TIP3    H160461   0.330   0.809  16.483  0.3894  0.6301 -0.6206
12990TIP3    H260462   0.357   0.759  16.623 -0.6113  1.3828 -0.1455
12991TIP3   OH260463   3.994   6.759   0.902 -0.1202  0.2517 -0.2217
12991TIP3    H160464   3.938   6.798   0.835 -0.9607 -0.3053  0.1306
12991TIP3    H260465   3.994   6.823   0.973  0.4712  0.6753 -0.5930
12992TIP3   OH260466   1.151   4.165  11.818  0.5282  0.1797 -0.0461
12992TIP3    H160467   1.130   4.153  11.725 -0.1190  0.1887  0.0962
12992TIP3    H260468   1.183   4.079  11.846  0.7788  0.1917 -0.2885
12993TIP3   OH260469   6.125   3.334   0.435 -0.3802  0.0752 -0.0556
12993TIP3    H160470   6.048   3.306   0.385  0.2694 -2.3346  0.1366
12993TIP3    H260471   6.181   3.379   0.372 -1.1122  0.1772 -0.6364
12994TIP3   OH260472   0.016   0.282  15.470 -0.0526 -0.5393 -0.5233
12994TIP3    H160473   0.047   0.366  15.435 -0.2955  0.6905  2.0081
12994TIP3    H260474   0.091   0.224  15.460  0.7671  0.4977 -0.6476
12995TIP3   OH260475   4.287   0.048  13.200  0.1039  0.0183  0.4468
12995TIP3    H160476   4.294   0.071  13.292  0.2340 -1.6852  0.9010
12995TIP3    H260477   4.197   0.072  13.176  0.1787  0.7857  0.8994
12996TIP3   OH260478   3.548   2.188  13.460 -0.0041 -0.2292 -0.1293
12996TIP3    H160479   3.514   2.278  13.459 -0.1386 -0.2826 -0.4231
12996TIP3    H260480   3.474   2.135  13.429  0.8712 -0.1772 -2.4845
12997TIP3   OH260481   6.700   4.644  16.358  0.1093 -0.8392 -0.0220
12997TIP3    H160482   6.611   4.676  16.349  0.0849 -1.2173 -1.3897
12997TIP3    H260483   6.743   4.667  16.275  1.4645 -0.1279  0.8404
12998TIP3   OH260484   0.723   0.121  13.435  0.3842 -0.4167 -0.2423
12998TIP3    H160485   0.690   0.056  13.373  2.0716  0.7076 -2.4559
12998TIP3    H260486   0.817   0.126  13.417  0.9510  0.0688  2.3712
12999TIP3   OH260487   6.479   1.325   4.155 -0.2042 -0.2230 -0.3591
12999TIP3    H160488   6.452   1.393   4.217  0.1272  0.6463 -1.1383
12999TIP3    H260489   6.400   1.273   4.140 -0.8046  0.7579 -0.6975
13000TIP3   OH260490   1.121   5.508  12.802  0.3466 -0.0213  0.5474
13000TIP3    H160491   1.156   5.425  12.835  0.2439 -0.7379 -1.0531
13000TIP3    H260492   1.142   5.508  12.709  0.4823  1.8424  0.5305
13001TIP3   OH260493   0.369   6.339  13.641  0.2431 -0.1752  0.1219
13001TIP3    H160494   0.401   6.345  13.551  1.3519  0.1199  0.5123
13001TIP3    H260495   0.373   6.245  13.661  0.2584 -0.2111 -0.0464
13002TIP3   OH260496   5.972   5.433   2.259  0.7319 -0.3839 -0.4822
13002TIP3    H160497   6.026   5.431   2.338  1.3822 -0.1133 -0.9147
13002TIP3    H260498   5.891   5.388   2.284  1.3536 -1.2338  0.0268
13003TIP3   OH260499   2.086   3.811   5.011 -0.2671  0.7835 -0.5571
13003TIP3    H160500   2.165   3.829   4.960  0.0900  2.0500  0.4072
13003TIP3    H260501   2.022   3.874   4.980 -0.0418  1.5769  0.5478
13004TIP3   OH260502   1.211   0.171  15.670 -0.5362 -0.3595 -0.1419
13004TIP3    H160503   1.202   0.255  15.715 -0.5625 -0.8850  0.8549
13004TIP3    H260504   1.135   0.120  15.699  1.0048 -1.7945  1.6526
13005TIP3   OH260505   3.975   3.441  16.249 -0.0332 -0.2918  0.2734
13005TIP3    H160506   3.925   3.362  16.232  0.0217 -0.2715  0.0190
13005TIP3    H260507   4.020   3.423  16.331 -0.8296 -0.1291  0.7584
13006TIP3   OH260508   2.083   6.173  15.011 -0.1408 -0.0098  0.4614
13006TIP3    H160509   2.121   6.230  14.944  0.4750 -0.4907  0.3934
13006TIP3    H260510   1.996   6.211  15.028 -0.4255 -0.0341 -0.8042
13007TIP3   OH260511   3.561   3.987   1.944  0.5753  0.4388  0.1836
13007TIP3    H160512   3.494   3.988   2.012 -0.7584  1.5665 -1.0922
13007TIP3    H260513   3.612   3.908   1.963 -0.4394  0.1196  1.8165
13008TIP3   OH260514   3.110   4.245   4.671 -0.1108 -0.6009 -0.3279
13008TIP3    H160515   3.171   4.190   4.621  0.5236 -0.1092 -0.1187
13008TIP3    H260516   3.091   4.319   4.613  0.6883  0.0114  0.1650
13009TIP3   OH260517   5.408   5.482  16.035  0.3102 -0.4892  0.2171
13009TIP3    H160518   5.355   5.415  15.992  2.8323 -1.4180 -1.7212
13009TIP3    H260519   5.428   5.545  15.966 -0.0870  1.0468  1.4493
13010TIP3   OH260520   1.151   2.893   0.587 -0.3644 -0.1795 -0.0060
13010TIP3    H160521   1.092   2.837   0.537  0.7607 -0.4792 -1.0256
13010TIP3    H260522   1.121   2.982   0.568 -0.8939 -0.3458  0.0240
13011TIP3   OH260523   5.562   3.351  11.660  0.0891 -0.7397  0.3129
13011TIP3    H160524   5.562   3.274  11.602  1.7200  0.2270 -1.0621
13011TIP3    H260525   5.473   3.385  11.656 -0.3856 -1.9489  0.1308
13012TIP3   OH260526   6.108   4.109  14.478 -0.0243 -0.1272 -0.1109
13012TIP3    H160527   6.031   4.052  14.477  0.8326 -1.3554  0.2412
13012TIP3    H260528   6.074   4.196  14.499 -1.0557 -1.0915  2.6834
13013TIP3   OH260529   1.199   6.258  11.780 -0.1255  0.1168  0.4827
13013TIP3    H160530   1.121   6.267  11.725  0.8393  1.8425 -0.7059
13013TIP3    H260531   1.271   6.289  11.724  1.3743 -1.1035  1.6537
13014TIP3   OH260532   4.982   4.687   0.062  0.0364  0.0660  0.4053
13014TIP3    H160533   4.975   4.764   0.118 -5.1081  0.6914 -0.5494
13014TIP3    H260534   5.006   4.721  -0.024 -0.2309  0.3331  0.4348
13015TIP3   OH260535   4.555   3.577  12.756 -0.7395  0.1930 -0.0505
13015TIP3    H160536   4.487   3.643  12.748 -0.0802  0.8198 -0.6515
13015TIP3    H260537   4.625   3.608  12.698  0.1501 -0.3109  0.7379
13016TIP3   OH260538   4.426   0.399  15.658 -0.2098  0.3109  0.2497
13016TIP3    H160539   4.391   0.322  15.703 -0.0753  0.2360  0.2267
13016TIP3    H260540   4.375   0.472  15.693 -0.0478  0.2635  0.5882
13017TIP3   OH260541   0.911   5.513  10.986 -0.3242 -0.6532 -0.1823
13017TIP3    H160542   0.963   5.453  11.040 -1.3610 -1.6431 -0.2479
13017TIP3    H260543   0.938   5.494  10.896 -0.8395 -1.2326 -0.2233
13018TIP3   OH260544   0.964   0.146  11.626 -0.1965  0.1584  0.5242
13018TIP3    H160545   0.886   0.160  11.572 -0.0035 -0.2211  0.1451
13018TIP3    H260546   1.012   0.228  11.618  0.7178 -0.4982 -1.3527
13019TIP3   OH260547   6.104   4.464  14.806 -0.5335 -0.4393 -0.1394
13019TIP3    H160548   6.041   4.442  14.738 -0.9732  0.1173  0.0718
13019TIP3    H260549   6.132   4.553  14.785 -0.5291 -0.3353  0.2864
13020TIP3   OH260550   6.794   3.586  10.500 -0.3353 -0.2365 -0.2852
13020TIP3    H160551   6.812   3.597  10.593  0.5749  1.8174 -0.6482
13020TIP3    H260552   6.878   3.562  10.462 -0.5831 -0.5304 -0.6500
13021TIP3   OH260553   4.318   0.236  15.858 -0.4046 -0.2045  0.4614
13021TIP3    H160554   4.225   0.247  15.875 -0.8335 -1.7956 -0.6448
13021TIP3    H260555   4.333   0.142  15.868  1.3068  0.1390  1.5958
13022TIP3   OH260556   6.725   6.697  13.672 -0.0504 -0.4638 -0.5177
13022TIP3    H160557   6.708   6.714  13.765  0.5228 -1.8759 -0.1369
13022TIP3    H260558   6.783   6.768  13.645  0.6438 -0.6333  0.4802
13023TIP3   OH260559   0.778   1.646  13.912 -0.2545  0.2197  0.3013
13023TIP3    H160560   0.786   1.696  13.831 -0.3915  0.0523  0.1832
13023TIP3    H260561   0.685   1.650  13.934 -0.2216  0.2471  0.4387
13024TIP3   OH260562   2.979   1.999  15.172 -0.0876  0.3476 -0.4161
13024TIP3    H160563   2.975   1.975  15.079  0.4275  1.7828 -0.8335
13024TIP3    H260564   2.966   2.093  15.173  2.3834  0.7547  0.7282
13025TIP3   OH260565   0.036   0.876   4.734  0.0438  0.2451 -0.0523
13025TIP3    H160566   0.086   0.957   4.751 -0.7574  0.5849  0.7216
13025TIP3    H260567  -0.030   0.902   4.670  0.4296 -0.0506 -0.5791
13026TIP3   OH260568   5.286   2.665  14.816  0.1055  0.2278  0.4327
13026TIP3    H160569   5.328   2.750  14.819 -1.4669  1.0413  0.8202
13026TIP3    H260570   5.353   2.603  14.845  1.2817  1.3122  0.0928
13027TIP3   OH260571   1.654   3.969  11.526 -0.2304  0.0955  0.3197
13027TIP3    H160572   1.741   3.930  11.524  0.2034  1.0275  0.4656
13027TIP3    H260573   1.643   4.008  11.439 -0.9128 -0.8647 -0.0400
13028TIP3   OH260574   0.145   0.662  12.326 -0.2068  0.3537 -0.0906
13028TIP3    H160575   0.056   0.627  12.327 -0.6730  1.3971 -1.8385
13028TIP3    H260576   0.172   0.659  12.234  1.6716 -0.1321  0.4123
13029TIP3   OH260577   3.074   3.918  12.865 -0.2289  0.4241  0.1981
13029TIP3    H160578   3.164   3.886  12.865 -0.8813 -1.6426 -1.1634
13029TIP3    H260579   3.034   3.875  12.941 -0.7534 -0.9907 -0.8387
13030TIP3   OH260580   6.393   1.767  15.665  0.1906  0.1304 -0.2890
13030TIP3    H160581   6.383   1.672  15.657 -1.0645  0.1090  1.1182
13030TIP3    H260582   6.469   1.788  15.611  0.1242 -1.5871 -1.1033
13031TIP3   OH260583   3.251   4.928   0.670 -0.3624 -0.3025  0.2880
13031TIP3    H160584   3.169   4.890   0.638  0.6496 -0.8700 -1.7918
13031TIP3    H260585   3.316   4.859   0.657  0.4292  0.0494  2.1387
13032TIP3   OH260586   1.605   3.668  13.844 -0.0063 -0.4471  0.3358
13032TIP3    H160587   1.520   3.667  13.888 -1.2166 -0.5905 -1.8938
13032TIP3    H260588   1.597   3.603  13.774  3.2163 -3.2271  2.1883
13033TIP3   OH260589   3.164   0.026   5.498 -0.7623 -0.1916 -0.0210
13033TIP3    H160590   3.243  -0.004   5.542 -0.6344  1.6230  1.0854
13033TIP3    H260591   3.196   0.069   5.418 -0.6922 -0.0390  0.0902
13034TIP3   OH260592   0.538   2.783   2.379  0.0773  0.1803 -0.1361
13034TIP3    H160593   0.626   2.751   2.361  0.0848  0.7984 -1.2106
13034TIP3    H260594   0.538   2.800   2.473  1.1977  0.4777 -0.1817
13035TIP3   OH260595   0.279   4.493  12.982 -0.3083 -0.0590  0.1688
13035TIP3    H160596   0.328   4.549  12.923  1.0055  0.2855  1.5429
13035TIP3    H260597   0.210   4.549  13.017  0.6438  0.5645  1.0915
13036TIP3   OH260598   6.237   3.601   0.252  0.2884 -0.2138 -0.4963
13036TIP3    H160599   6.312   3.643   0.295 -0.9011  0.1962  1.2485
13036TIP3    H260600   6.232   3.643   0.166  1.0932  0.8874 -0.0247
13037TIP3   OH260601   5.452   5.392  11.460  0.1060  0.2349  0.3021
13037TIP3    H160602   5.459   5.346  11.376 -1.0554 -1.2011  0.9449
13037TIP3    H260603   5.406   5.473  11.438  1.1265  0.5831 -0.6641
13038TIP3   OH260604   1.394   1.116   5.093  0.8574 -0.0957  0.4612
13038TIP3    H160605   1.305   1.134   5.061 -0.2968 -1.3294  2.7225
13038TIP3    H260606   1.429   1.051   5.031 -0.5306 -0.9455  0.5262
13039TIP3   OH260607   2.482   6.099  14.850 -0.2150  0.5430 -0.5705
13039TIP3    H160608   2.401   6.060  14.816 -0.4392 -1.0474  1.5861
13039TIP3    H260609   2.508   6.041  14.921  2.7906  1.0934 -1.1125
13040TIP3   OH260610   4.689   3.770   0.765 -0.1663 -0.5572  0.3340
13040TIP3    H160611   4.654   3.696   0.714 -0.1883 -0.8915  0.8276
13040TIP3    H260612   4.783   3.771   0.743 -0.1231 -0.8724  0.4973
13041TIP3   OH260613   2.698   4.305   3.238  0.3235  0.3187 -0.4362
13041TIP3    H160614   2.685   4.371   3.307  1.1341  0.7660 -0.7007
13041TIP3    H260615   2.661   4.224   3.275 -1.2242  1.0264 -0.3323
13042TIP3   OH260616   4.314   4.894   5.465 -0.0690 -0.2810  0.3510
13042TIP3    H160617   4.220   4.886   5.450 -0.3209  0.8698  1.2239
13042TIP3    H260618   4.347   4.934   5.384 -0.3969 -0.2424  0.2323
13043TIP3   OH260619   1.849   4.281   5.582 -0.5659 -0.3042  0.0978
13043TIP3    H160620   1.880   4.216   5.645  1.5638  0.7678  0.2817
13043TIP3    H260621   1.864   4.365   5.626 -1.5140  0.3793 -0.8461
13044TIP3   OH260622   2.687   3.144  14.771 -0.3347 -0.8331 -0.6341
13044TIP3    H160623   2.752   3.122  14.837 -0.0518  0.5791 -0.4157
13044TIP3    H260624   2.607   3.101  14.800 -0.7526  1.3000  1.7394
13045TIP3   OH260625   2.818   5.662   6.582  0.0039 -0.1564  0.3765
13045TIP3    H160626   2.773   5.735   6.540 -0.3119 -1.0581 -0.8831
13045TIP3    H260627   2.903   5.658   6.539  0.3183 -0.0818  0.9677
13046TIP3   OH260628   2.423   4.955   0.750  0.2533  0.3420 -0.4437
13046TIP3    H160629   2.431   5.043   0.715 -2.0634  0.5098 -0.7464
13046TIP3    H260630   2.404   4.968   0.843  1.3120  0.0945 -0.1861
13047TIP3   OH260631   2.364   1.804  13.980  0.7235 -0.0598  0.2254
13047TIP3    H160632   2.385   1.801  14.073  1.4327 -1.1203  0.0531
13047TIP3    H260633   2.423   1.871  13.944  0.0470  0.7642  0.6152
13048TIP3   OH260634   0.938   6.056   2.585  0.1999 -0.1533  0.1232
13048TIP3    H160635   1.011   6.003   2.553 -0.2239 -0.9974  0.4890
13048TIP3    H260636   0.974   6.105   2.659 -0.1956 -2.6481  2.1236
13049TIP3   OH260637   2.935   4.280  13.316  0.1280 -0.0963 -0.1755
13049TIP3    H160638   2.953   4.335  13.392  3.9885 -0.6712 -0.4872
13049TIP3    H260639   2.879   4.209  13.350  1.0341  0.1422  1.9311
13050TIP3   OH260640   5.942   0.960  14.944 -0.4568  0.5894  0.5450
13050TIP3    H160641   5.903   1.015  15.011 -1.4279  0.0914  0.4000
13050TIP3    H260642   5.877   0.892  14.927  0.4631 -0.2503  0.2801
13051TIP3   OH260643   2.707   4.209  14.241 -0.0895  0.3248  0.1601
13051TIP3    H160644   2.755   4.242  14.165  0.1988 -0.0339  0.1824
13051TIP3    H260645   2.731   4.116  14.246 -0.0931  0.3477  0.6971
13052TIP3   OH260646   4.390   1.929  14.369  0.6251  0.0151  0.4466
13052TIP3    H160647   4.427   1.993  14.431 -0.9479  1.1313  0.2852
13052TIP3    H260648   4.455   1.924  14.299  1.0640  0.9797  0.7572
13053TIP3   OH260649   2.888   3.366  11.737 -0.0371  0.0217  0.8700
13053TIP3    H160650   2.914   3.374  11.646  0.6763 -2.6852  0.7433
13053TIP3    H260651   2.794   3.348  11.734 -0.4010  1.7623  0.8343
13054TIP3   OH260652   5.818   0.054   0.045  0.2836  0.3076  0.7174
13054TIP3    H160653   5.807   0.012   0.130  0.8888  2.3416  1.8662
13054TIP3    H260654   5.733   0.044   0.002  0.0435 -0.9712  1.4163
13055TIP3   OH260655   4.329   1.746   4.395 -0.0761 -0.2852 -0.3667
13055TIP3    H160656   4.369   1.750   4.482  0.0595 -0.4564 -0.4202
13055TIP3    H260657   4.250   1.799   4.402  0.6451  0.8262 -0.5287
13056TIP3   OH260658   0.188   2.771  16.086 -0.0066  0.2680 -0.5775
13056TIP3    H160659   0.212   2.687  16.125 -1.9707  0.1668  0.5269
13056TIP3    H260660   0.120   2.749  16.021 -0.5566  0.9959 -0.2568
13057TIP3   OH260661   6.359   4.454  14.244 -0.8224 -0.3919 -0.9903
13057TIP3    H160662   6.421   4.398  14.291 -1.4810 -0.3291 -0.0087
13057TIP3    H260663   6.410   4.530  14.218 -0.7664  0.3314  1.0603
13058TIP3   OH260664   3.206   3.827  15.278 -0.2927 -0.0785 -0.2619
13058TIP3    H160665   3.162   3.744  15.296  0.0424 -0.8181 -2.5470
13058TIP3    H260666   3.136   3.891  15.278 -0.8448 -0.6714 -0.3187
13059TIP3   OH260667   0.096   0.775   0.209  0.0937 -0.0369 -0.1306
13059TIP3    H160668   0.031   0.769   0.279  0.1229  1.2872  0.0402
13059TIP3    H260669   0.179   0.788   0.254 -0.0689  2.2592 -0.3825
13060TIP3   OH260670   6.627   1.548   1.889 -0.3613  0.1518  0.4552
13060TIP3    H160671   6.590   1.577   1.972 -1.5987 -0.5873  0.1905
13060TIP3    H260672   6.682   1.474   1.912 -1.0315 -0.3150  0.5788
13061TIP3   OH260673   3.008   2.294   1.727  0.6153 -0.1265  0.4057
13061TIP3    H160674   3.077   2.354   1.700  1.4104 -0.7941  0.8689
13061TIP3    H260675   2.960   2.341   1.795 -0.1918  0.8186 -0.7924
13062TIP3   OH260676   0.394   5.962   2.853  0.7017 -0.0556 -0.0450
13062TIP3    H160677   0.327   5.911   2.897 -0.6950  0.9479 -0.9168
13062TIP3    H260678   0.453   5.897   2.815  0.4262 -0.9545  1.0203
13063TIP3   OH260679   3.638   5.306  15.121 -0.2883  0.5171 -0.4470
13063TIP3    H160680   3.561   5.359  15.104 -0.8591  0.3525  1.3711
13063TIP3    H260681   3.610   5.244  15.189  1.5610  0.7634  0.6084
13064TIP3   OH260682   6.002   2.108   2.409 -0.8817 -0.1118  0.0584
13064TIP3    H160683   6.018   2.102   2.315  2.5854 -0.1443  0.5372
13064TIP3    H260684   5.995   2.202   2.427 -1.0413 -0.0844 -0.1398
13065TIP3   OH260685   0.426   6.599  11.335 -0.0389 -0.0377 -0.1439
13065TIP3    H160686   0.435   6.613  11.240  0.2705  0.4024 -0.0499
13065TIP3    H260687   0.339   6.634  11.355 -0.3947 -0.7531 -0.3745
13066TIP3   OH260688   1.256   4.416  17.142 -0.1455 -0.3056  0.4214
13066TIP3    H160689   1.221   4.473  17.210 -0.0121  0.3709 -0.0722
13066TIP3    H260690   1.201   4.338  17.145  0.9892 -1.1016  2.5418
13067TIP3   OH260691   2.947   4.066   1.779  0.0999  0.5711 -0.0868
13067TIP3    H160692   2.967   4.108   1.695  1.5035  0.9536  0.3955
13067TIP3    H260693   3.000   3.986   1.778 -1.0102 -0.1709 -0.1630
13068TIP3   OH260694   3.764   5.035   2.975  0.3406 -0.0287 -0.1300
13068TIP3    H160695   3.739   4.946   3.000 -2.9571  0.4394 -1.3229
13068TIP3    H260696   3.725   5.091   3.042  0.5044  0.6565 -0.5983
13069TIP3   OH260697   0.397   1.917   4.323 -0.3673  0.3222  0.3801
13069TIP3    H160698   0.459   1.885   4.258  0.1804  2.9127 -0.4765
13069TIP3    H260699   0.382   1.841   4.380  0.8253 -1.4000 -1.4359
13070TIP3   OH260700   4.930   1.001   5.779  0.9138  0.6520  0.0289
13070TIP3    H160701   4.845   1.045   5.777  0.6852  0.1984 -1.7490
13070TIP3    H260702   4.992   1.067   5.748  0.8165  0.2712 -1.0314
13071TIP3   OH260703   2.089   4.702   3.475 -0.7127 -0.9043 -0.2902
13071TIP3    H160704   2.033   4.654   3.414  1.3766 -0.2502 -2.8626
13071TIP3    H260705   2.059   4.792   3.470 -0.5361 -0.8484 -0.3470
13072TIP3   OH260706   0.863   2.893  16.587 -0.0658 -0.2867  0.1161
13072TIP3    H160707   0.949   2.901  16.546 -0.2787 -0.2996 -0.3416
13072TIP3    H260708   0.870   2.941  16.669  1.0215 -2.0390  1.1203
13073TIP3   OH260709   1.260   4.204  16.384 -0.1876 -0.2914 -0.1833
13073TIP3    H160710   1.222   4.281  16.427 -0.8613  1.0059 -2.8402
13073TIP3    H260711   1.208   4.130  16.415 -0.2775  0.4618  1.5584
13074TIP3   OH260712   2.822   6.444  14.410 -0.3210 -0.0095  0.2295
13074TIP3    H160713   2.899   6.487  14.448 -0.5384 -0.9985  1.8717
13074TIP3    H260714   2.822   6.472  14.318  1.4194  0.8036  0.4354
13075TIP3   OH260715   2.182   6.662   3.167 -0.1923  0.2246  0.2340
13075TIP3    H160716   2.230   6.631   3.090  0.1919  0.2725  0.4534
13075TIP3    H260717   2.161   6.753   3.147  0.4057  0.4040  0.4282
13076TIP3   OH260718   2.836   2.958  14.173  0.1492  0.3757  0.0580
13076TIP3    H160719   2.820   2.910  14.091  0.4683 -0.7936  0.6476
13076TIP3    H260720   2.771   3.028  14.173 -2.3769 -1.7706  0.4498
13077TIP3   OH260721   5.781   4.142   5.582 -0.0911 -0.3763  0.0278
13077TIP3    H160722   5.797   4.160   5.490  0.2217 -0.4839  0.0624
13077TIP3    H260723   5.685   4.140   5.590 -0.1326  0.6294 -0.1044
13078TIP3   OH260724   6.069   6.424   5.008  0.1980  0.2540  0.0197
13078TIP3    H160725   6.162   6.445   5.023  0.3311 -0.9693  1.0755
13078TIP3    H260726   6.070   6.361   4.937  0.0647  1.0984 -0.7532
13079TIP3   OH260727   3.373   2.119   1.541  0.1467 -0.4354 -0.0420
13079TIP3    H160728   3.322   2.153   1.468 -0.0422  0.6249  0.5675
13079TIP3    H260729   3.395   2.196   1.593  0.5065 -1.1436  0.8810
13080TIP3   OH260730   4.942   3.732   0.668  0.2582 -0.2420 -0.3367
13080TIP3    H160731   4.932   3.686   0.584  1.8763 -0.7836 -0.2599
13080TIP3    H260732   5.024   3.698   0.704 -0.9501 -0.8328  1.9897
13081TIP3   OH260733   6.696   5.782  12.969  0.4222  0.1415  0.3112
13081TIP3    H160734   6.623   5.766  12.910  1.2351 -0.6728 -0.5142
13081TIP3    H260735   6.673   5.862  13.015 -1.3733 -0.5549  0.6888
13082TIP3   OH260736   3.338   6.044   1.661  0.1175  0.6920 -0.1484
13082TIP3    H160737   3.364   5.975   1.600  1.5154  2.0786 -1.2078
13082TIP3    H260738   3.344   6.003   1.747  1.7134 -0.2839 -0.6831
13083TIP3   OH260739   1.726   4.350  13.859  0.0039 -0.0874  0.1148
13083TIP3    H160740   1.785   4.416  13.896 -0.2054  0.2578 -0.1517
13083TIP3    H260741   1.654   4.402  13.823 -0.4865 -0.5032  0.4827
13084TIP3   OH260742   1.880   3.190  12.075 -0.1837  0.2222 -0.1171
13084TIP3    H160743   1.858   3.282  12.093  0.1017  0.0977  0.9102
13084TIP3    H260744   1.945   3.195  12.005 -0.6470  0.7637 -0.5292
13085TIP3   OH260745   5.479   3.900  11.261 -0.4351 -0.6598  0.0200
13085TIP3    H160746   5.391   3.933  11.276  0.2142  1.1728  0.1313
13085TIP3    H260747   5.480   3.875  11.169 -0.2097  2.4441 -0.9259
13086TIP3   OH260748   2.996   2.384  11.830 -0.0452  0.3308 -0.5452
13086TIP3    H160749   3.083   2.418  11.809  0.2978  1.2583  1.9996
13086TIP3    H260750   2.938   2.428  11.768  1.0394  1.5687 -0.7357
13087TIP3   OH260751   3.809   0.678   4.945 -0.0127  0.5753  0.0904
13087TIP3    H160752   3.764   0.760   4.925  0.9572  0.7573 -1.4737
13087TIP3    H260753   3.782   0.618   4.876  1.4221  0.4281 -0.3726
13088TIP3   OH260754   2.811   3.641  15.159  0.1472  0.1406 -0.1210
13088TIP3    H160755   2.899   3.660  15.126  0.2270  1.1133  0.5978
13088TIP3    H260756   2.776   3.727  15.183 -0.0994 -0.4541  1.7997
13089TIP3   OH260757   2.171   2.664  14.268 -0.2213 -0.8693  0.9487
13089TIP3    H160758   2.078   2.662  14.244 -0.4604 -0.1421  1.7654
13089TIP3    H260759   2.217   2.645  14.186 -1.0625  0.2216  0.1906
13090TIP3   OH260760   5.967   3.086  13.419 -0.0041  0.4149 -0.1184
13090TIP3    H160761   5.957   3.045  13.504  0.4241 -0.6346 -0.5681
13090TIP3    H260762   5.886   3.138  13.408 -0.2512  0.2159  0.7254
13091TIP3   OH260763   1.410   4.971  16.602  0.0686  0.3350 -0.4967
13091TIP3    H160764   1.441   4.889  16.640  0.3712  1.3753  1.7275
13091TIP3    H260765   1.477   4.995  16.538 -0.2798 -1.3549 -1.5420
13092TIP3   OH260766   6.085   1.317   5.714 -0.0869  0.1518  0.5555
13092TIP3    H160767   6.016   1.323   5.780 -1.7571  1.0433 -1.1753
13092TIP3    H260768   6.155   1.373   5.749 -1.7343  2.2600  0.7214
13093TIP3   OH260769   1.746   2.750   4.179  0.7132  0.8443  0.2549
13093TIP3    H160770   1.770   2.769   4.270  0.9292 -2.7351  1.0918
13093TIP3    H260771   1.651   2.762   4.177  0.3041 -1.3888  1.7642
13094TIP3   OH260772   0.684   6.057  11.905 -0.4815  0.5714 -0.0395
13094TIP3    H160773   0.766   6.025  11.942 -0.8762 -1.5560 -0.8786
13094TIP3    H260774   0.711   6.103  11.825 -0.0599  0.6420  0.1362
13095TIP3   OH260775   2.743   3.911   3.145 -0.0590 -0.0052 -0.4686
13095TIP3    H160776   2.795   3.903   3.066 -1.9247 -0.6092 -1.7039
13095TIP3    H260777   2.667   3.963   3.119 -1.0230 -0.7455  0.7526
13096TIP3   OH260778   3.993   3.030   0.120  0.1673  0.8028  0.2830
13096TIP3    H160779   3.925   3.022   0.186 -0.1533  0.6883 -0.0564
13096TIP3    H260780   4.030   2.942   0.113 -1.0711  0.3283 -1.0207
13097TIP3   OH260781   0.233   4.042  13.484  0.1383 -0.0677  0.8332
13097TIP3    H160782   0.320   4.020  13.519  0.5021  0.3855  0.2373
13097TIP3    H260783   0.239   4.136  13.464  0.3070 -0.5142 -1.4548
13098TIP3   OH260784   1.544   1.968  12.483 -0.2195  0.5647  0.3011
13098TIP3    H160785   1.591   2.048  12.508  0.2014  0.1880  0.7173
13098TIP3    H260786   1.612   1.907  12.455 -0.6082  0.6585 -0.9076
13099TIP3   OH260787   4.162   2.858   5.748 -0.2882 -0.0028  0.1723
13099TIP3    H160788   4.103   2.797   5.704  1.4002 -0.9946 -0.8250
13099TIP3    H260789   4.205   2.805   5.816 -1.1016  0.9144  1.4506
13100TIP3   OH260790   3.677   6.330   5.622  0.1781 -0.1387  0.0113
13100TIP3    H160791   3.715   6.298   5.704 -0.4315 -0.9077  0.0032
13100TIP3    H260792   3.585   6.344   5.642  0.2183  0.6179 -0.2843
13101TIP3   OH260793   3.665   3.895  15.401  0.4567 -0.1730 -0.3662
13101TIP3    H160794   3.583   3.845  15.399  1.2460 -1.6243  1.4378
13101TIP3    H260795   3.720   3.854  15.334 -0.1240  0.5953 -1.3514
13102TIP3   OH260796   3.758   0.165  11.559 -0.1101  0.3982  0.1117
13102TIP3    H160797   3.743   0.249  11.516 -1.3467  0.2069  0.1275
13102TIP3    H260798   3.699   0.104  11.514  2.5522 -1.0848 -1.6306
13103TIP3   OH260799   4.233   0.645  12.840  0.0104  0.4508 -0.4166
13103TIP3    H160800   4.295   0.673  12.772  2.5362 -0.3676  1.3720
13103TIP3    H260801   4.287   0.595  12.901 -2.7691 -1.5704  0.5719
13104TIP3   OH260802   4.380   4.297  15.987  0.4903  0.2433  0.2811
13104TIP3    H160803   4.289   4.327  15.981  0.2774  0.3902  3.0232
13104TIP3    H260804   4.427   4.370  16.027  1.4546 -0.4287  0.4113
13105TIP3   OH260805   1.448   1.928  11.599 -0.1794  0.4553 -0.1906
13105TIP3    H160806   1.523   1.870  11.602  0.3603  1.1913  0.7722
13105TIP3    H260807   1.464   1.983  11.522 -0.1637  0.0607 -0.4755
13106TIP3   OH260808   6.691   0.337  12.672  0.2284 -0.1328 -0.1555
13106TIP3    H160809   6.602   0.302  12.676  1.0170 -2.3117 -0.7492
13106TIP3    H260810   6.727   0.322  12.759  0.4173 -0.3394 -0.2704
13107TIP3   OH260811   6.127   1.592   2.577  0.3894 -0.1124  0.2193
13107TIP3    H160812   6.212   1.575   2.618  2.3106  2.7036 -2.2127
13107TIP3    H260813   6.143   1.579   2.484 -2.0609 -0.0944 -0.2590
13108TIP3   OH260814   6.347   0.635  10.436  0.1944 -0.5469 -0.3506
13108TIP3    H160815   6.315   0.545  10.429  0.9726 -0.8843  0.3429
13108TIP3    H260816   6.371   0.659  10.346  0.5511 -1.2406 -0.4448
13109TIP3   OH260817   1.476   3.905  15.894 -0.3777 -0.7785  0.4671
13109TIP3    H160818   1.565   3.880  15.918 -0.7268 -0.6880  1.9980
13109TIP3    H260819   1.455   3.851  15.819  0.6649 -1.4147  0.6141
13110TIP3   OH260820   5.152   5.351   2.988  0.2414  0.5031  0.0575
13110TIP3    H160821   5.086   5.303   2.938 -0.0251 -0.0156  0.9053
13110TIP3    H260822   5.226   5.358   2.928 -0.1282  0.0189 -0.4682
13111TIP3   OH260823   5.117   5.936   0.882 -0.3708  0.4238  0.0217
13111TIP3    H160824   5.075   5.962   0.801 -2.2395  0.6459  1.0118
13111TIP3    H260825   5.075   5.853   0.905  0.6527 -0.0059  0.3931
13112TIP3   OH260826   1.409   4.833   2.020  0.1787 -0.1685  0.2587
13112TIP3    H160827   1.368   4.756   1.982  1.0577  0.3534 -1.8856
13112TIP3    H260828   1.495   4.838   1.979 -0.0036  2.1539  0.0200
13113TIP3   OH260829   2.159   5.367  13.758 -0.1353  0.5238  0.1846
13113TIP3    H160830   2.245   5.409  13.751  0.2210  0.2484  2.2125
13113TIP3    H260831   2.179   5.274  13.771 -0.7775  0.2974 -0.4078
13114TIP3   OH260832   0.481   2.173   0.119  0.4099  0.4497  0.3421
13114TIP3    H160833   0.472   2.215   0.204  1.0602  0.8545  0.2152
13114TIP3    H260834   0.407   2.206   0.068 -0.0527  0.1041  0.7841
13115TIP3   OH260835   0.829   6.647  11.706 -0.4173 -0.1674  0.4947
13115TIP3    H160836   0.813   6.602  11.623  0.1220 -0.0647  0.3296
13115TIP3    H260837   0.772   6.603  11.769  0.4811 -1.4377  0.4502
13116TIP3   OH260838   2.483   5.835   2.579 -0.3679  0.5350 -0.2712
13116TIP3    H160839   2.573   5.840   2.546 -0.2003  0.6345  0.1895
13116TIP3    H260840   2.489   5.778   2.656 -0.9618 -0.7115 -1.1114
13117TIP3   OH260841   2.043   5.697  10.712  0.6723  0.3121 -0.2439
13117TIP3    H160842   2.129   5.737  10.720  0.6420  0.8419 -2.1880
13117TIP3    H260843   2.010   5.726  10.627 -2.0580  1.2932  1.0568
13118TIP3   OH260844   5.485   3.731  13.465  0.1517 -0.5703 -0.0711
13118TIP3    H160845   5.521   3.643  13.471  0.3873 -0.6833 -2.3435
13118TIP3    H260846   5.407   3.721  13.409 -0.3426  0.5244  0.3993
13119TIP3   OH260847   6.566   6.526   0.570  0.1453  0.3279  0.5114
13119TIP3    H160848   6.621   6.589   0.524  1.3878  1.0703  2.8380
13119TIP3    H260849   6.522   6.577   0.638 -1.7695 -0.6754  0.1244
13120TIP3   OH260850   4.837   3.345   4.289  0.2257  0.3843  0.3010
13120TIP3    H160851   4.801   3.331   4.201  0.7976 -1.4551  0.3360
13120TIP3    H260852   4.810   3.268   4.339  1.0197  0.7829  1.3736
13121TIP3   OH260853   0.448   5.405   1.920  0.3206  0.5356 -0.7328
13121TIP3    H160854   0.377   5.361   1.968  1.3790 -1.0088 -0.5060
13121TIP3    H260855   0.403   5.457   1.854 -1.0402 -0.4885 -0.6582
13122TIP3   OH260856   6.575   0.659   2.591  0.7947 -0.1905  0.4442
13122TIP3    H160857   6.517   0.685   2.662  0.7094 -0.0061  0.3079
13122TIP3    H260858   6.657   0.634   2.635  0.2772 -1.4503  0.7169
13123TIP3   OH260859   1.044   4.513   3.762 -0.5542  0.7591  0.1925
13123TIP3    H160860   1.075   4.570   3.833  0.7073  0.1641  0.1524
13123TIP3    H260861   1.112   4.519   3.695 -0.2058 -1.0292  0.3289
13124TIP3   OH260862   4.126   2.484  15.922  0.3634 -0.8533  0.2268
13124TIP3    H160863   4.046   2.490  15.975  1.1074 -0.2501  1.3319
13124TIP3    H260864   4.115   2.405  15.870 -1.0236 -0.6811  0.2396
13125TIP3   OH260865   2.044   4.284  13.064 -0.0136  0.0265 -0.2220
13125TIP3    H160866   2.065   4.368  13.105  1.5994 -0.7141  0.5519
13125TIP3    H260867   1.952   4.292  13.039 -0.5914  1.1447  2.0203
13126TIP3   OH260868   2.378   2.350   4.183  0.3142  0.0282  0.2157
13126TIP3    H160869   2.348   2.430   4.226  0.2360 -0.3629  0.9111
13126TIP3    H260870   2.436   2.309   4.248  1.1556  0.0214 -0.5196
13127TIP3   OH260871   1.595   3.397   0.042 -0.1172 -0.6525 -0.2899
13127TIP3    H160872   1.597   3.302   0.049 -1.7480 -0.9768 -2.7511
13127TIP3    H260873   1.623   3.429   0.128  1.0848 -3.3178  0.3955
13128TIP3   OH260874   4.254   4.865   3.670  0.0573  0.0821 -0.3557
13128TIP3    H160875   4.230   4.942   3.722  2.1372 -0.0372  0.9034
13128TIP3    H260876   4.346   4.879   3.648 -0.1070 -1.0783 -1.9188
13129TIP3   OH260877   5.030   3.557   1.627  0.0453  0.2480  0.3248
13129TIP3    H160878   5.022   3.623   1.696  0.2915 -0.3765  0.9594
13129TIP3    H260879   4.947   3.509   1.630  0.8861 -1.2258  1.7155
13130TIP3   OH260880   4.617   2.620  12.897  0.0321  0.4728  0.1952
13130TIP3    H160881   4.704   2.595  12.927  0.1421 -0.9802 -1.1804
13130TIP3    H260882   4.624   2.713  12.877  1.4506  0.2551 -0.4290
13131TIP3   OH260883   3.230   2.782  16.449  0.0912  0.0530 -0.1556
13131TIP3    H160884   3.153   2.739  16.411 -1.3410  2.0966  0.2746
13131TIP3    H260885   3.203   2.808  16.537  1.0719  1.2917 -0.1849
13132TIP3   OH260886   3.623   4.672   2.728 -0.3670  0.2315 -0.7687
13132TIP3    H160887   3.703   4.623   2.709  0.1583  0.3158  1.0491
13132TIP3    H260888   3.566   4.609   2.770  0.3906  1.1279  1.7723
13133TIP3   OH260889   0.896   2.397   5.278  0.2765 -0.0190 -0.1208
13133TIP3    H160890   0.857   2.462   5.219 -1.5837 -0.7236  0.2751
13133TIP3    H260891   0.885   2.313   5.232 -1.3876 -0.6095  1.2319
13134TIP3   OH260892   4.042   2.820  15.271 -0.2933  0.2843  0.5266
13134TIP3    H160893   4.121   2.872  15.254 -1.1277  1.1079 -1.0389
13134TIP3    H260894   4.037   2.759  15.197 -1.7956  1.1241 -0.1158
13135TIP3   OH260895   0.722   1.881   3.232  0.0062 -0.0091  0.1306
13135TIP3    H160896   0.700   1.917   3.318  0.8794 -2.3407  1.4146
13135TIP3    H260897   0.696   1.788   3.237  2.6899 -0.9107 -1.0705
13136TIP3   OH260898   1.793   0.024  16.293  0.0608 -0.5820 -0.4015
13136TIP3    H160899   1.797   0.104  16.346 -0.3172 -1.2115  0.6193
13136TIP3    H260900   1.778   0.054  16.204  0.1700  0.4935 -0.0654
13137TIP3   OH260901   4.059   4.938   5.872 -0.2104 -0.3131 -0.5054
13137TIP3    H160902   4.072   4.994   5.795 -0.3349 -0.0174 -0.3162
13137TIP3    H260903   4.128   4.965   5.933  0.1310 -0.8189 -0.6655
13138TIP3   OH260904   1.385   6.501  14.458 -0.3835 -0.3061 -0.0719
13138TIP3    H160905   1.449   6.545  14.514 -0.6388  0.5585 -0.4399
13138TIP3    H260906   1.302   6.511  14.505 -0.7631  1.2372 -1.0135
13139TIP3   OH260907   0.504   1.037   2.901  0.0737 -0.4195  0.2820
13139TIP3    H160908   0.576   1.010   2.843  0.2285 -0.7814  0.6448
13139TIP3    H260909   0.503   1.133   2.893  0.4932 -0.4205  0.1529
13140TIP3   OH260910   1.546   1.308   5.220  0.7748 -0.5488 -0.5201
13140TIP3    H160911   1.511   1.393   5.196  0.2406 -0.8896 -0.9685
13140TIP3    H260912   1.489   1.245   5.177 -1.0638 -1.2566  2.5926
13141TIP3   OH260913   3.392   1.319  16.113 -0.0825 -0.4876 -0.0401
13141TIP3    H160914   3.460   1.347  16.052 -2.0744 -0.8397 -2.6076
13141TIP3    H260915   3.336   1.396  16.123  1.2422  0.2232  3.0841
13142TIP3   OH260916   4.063   0.963  14.152 -0.1184 -0.0970 -0.1863
13142TIP3    H160917   4.139   0.909  14.129 -0.0240  0.6137 -1.5875
13142TIP3    H260918   4.012   0.907  14.211 -0.3424 -2.0125 -2.0718
13143TIP3   OH260919   4.860   1.216   6.709 -0.0875 -0.5031 -0.4104
13143TIP3    H160920   4.875   1.210   6.804 -0.3676  0.5405 -0.2877
13143TIP3    H260921   4.901   1.137   6.674  0.4452 -0.6653  0.5288
13144TIP3   OH260922   1.573   0.043   5.109  0.5105  0.5322  0.2248
13144TIP3    H160923   1.641  -0.019   5.134  0.9451  0.3631 -1.2553
13144TIP3    H260924   1.510   0.040   5.181  1.6200  0.0313  1.2071
13145TIP3   OH260925   3.348   1.245  10.913  0.3225 -0.1455 -0.4926
13145TIP3    H160926   3.427   1.293  10.889 -1.0269  2.3684 -0.2687
13145TIP3    H260927   3.289   1.258  10.840 -0.9033  0.5754  0.5769
13146TIP3   OH260928   0.238   1.523  14.073 -0.0549  0.4446  0.1368
13146TIP3    H160929   0.228   1.526  13.978 -0.8920  0.7769  0.2303
13146TIP3    H260930   0.183   1.451  14.101 -2.3839  2.3144  0.6636
13147TIP3   OH260931   0.607   4.439   0.660 -0.7520 -0.4682  0.8377
13147TIP3    H160932   0.560   4.446   0.577 -1.1515 -0.8292  1.0306
13147TIP3    H260933   0.683   4.384   0.639 -0.5829 -0.1489  0.6003
13148TIP3   OH260934   4.796   0.076   1.916  0.7874 -0.1012 -0.3518
13148TIP3    H160935   4.856   0.122   1.975  0.1471  0.5899 -0.2257
13148TIP3    H260936   4.727   0.043   1.972  0.1774  0.5552 -0.6902
13149TIP3   OH260937   1.400   3.497  14.085 -0.1411 -0.6000 -0.1276
13149TIP3    H160938   1.332   3.561  14.061  0.7340  0.6421  0.5874
13149TIP3    H260939   1.399   3.497  14.181  2.4665  1.2989  0.0123
13150TIP3   OH260940   3.239   0.042   1.287  0.5609 -0.4628  0.1759
13150TIP3    H160941   3.277   0.033   1.374 -2.8692 -3.0514  1.6787
13150TIP3    H260942   3.298  -0.006   1.229  1.5456 -1.0348  1.6096
13151TIP3   OH260943   3.882   3.282   5.824  0.2859 -0.0049 -0.6240
13151TIP3    H160944   3.875   3.203   5.771 -1.2264 -0.0231 -0.4202
13151TIP3    H260945   3.969   3.317   5.803  0.7912 -1.4510 -1.0685
13152TIP3   OH260946   2.989   6.080   1.727  0.8439 -0.0081  0.2882
13152TIP3    H160947   2.984   5.986   1.708 -1.3058 -0.1790  1.3602
13152TIP3    H260948   2.940   6.121   1.655  1.9657  0.3354 -0.2955
13153TIP3   OH260949   2.972   3.761   0.836 -0.7000 -0.1351  0.3017
13153TIP3    H160950   2.882   3.792   0.829 -0.4889  0.2331 -1.0355
13153TIP3    H260951   2.980   3.694   0.768 -0.2982 -1.0165  1.2006
13154TIP3   OH260952   0.432   3.952  15.373  0.1586 -0.3697 -0.1313
13154TIP3    H160953   0.411   4.045  15.359 -0.1918 -0.7745 -2.7231
13154TIP3    H260954   0.526   3.947  15.361  0.1768 -0.3530  0.0037
13155TIP3   OH260955   1.437   5.643   6.037  0.1372  0.0467  0.2666
13155TIP3    H160956   1.477   5.662   6.122  1.3457  0.2327 -0.3272
13155TIP3    H260957   1.371   5.711   6.026  0.7698  0.7146  0.5431
13156TIP3   OH260958   4.399   2.904   1.922 -0.1981 -0.3623  0.1671
13156TIP3    H160959   4.393   2.981   1.978 -0.5315 -0.4739  0.2894
13156TIP3    H260960   4.480   2.916   1.872 -0.4013  0.2115 -0.0318
13157TIP3   OH260961   3.924   1.380   4.049  0.0345 -0.1237  0.4357
13157TIP3    H160962   3.848   1.375   4.107  1.3961  0.6208  2.4115
13157TIP3    H260963   3.979   1.306   4.076  0.1696 -0.4611 -0.7337
13158TIP3   OH260964   2.140   5.023  12.014  0.3380  0.0810  0.1167
13158TIP3    H160965   2.232   5.007  12.035  0.5099 -1.2819 -1.4467
13158TIP3    H260966   2.142   5.069  11.930 -0.4074  1.2721  0.7161
13159TIP3   OH260967   3.661   1.011  11.296  0.1639 -0.2243 -0.1072
13159TIP3    H160968   3.624   1.004  11.384 -1.0156  1.0501 -0.4735
13159TIP3    H260969   3.716   0.933  11.287  0.3437 -0.3567  1.7693
13160TIP3   OH260970   2.480   3.221   5.511 -0.5135  0.1702  0.2191
13160TIP3    H160971   2.573   3.237   5.495 -0.7761  0.8340 -0.7429
13160TIP3    H260972   2.444   3.305   5.537 -1.1506  0.3137 -1.0410
13161TIP3   OH260973   1.110   6.405  12.848  0.2980 -0.1340 -0.6886
13161TIP3    H160974   1.071   6.492  12.858 -2.6699 -1.5142  1.6021
13161TIP3    H260975   1.179   6.402  12.914  0.5142  0.4935 -0.8737
13162TIP3   OH260976   0.055   6.119  10.433  0.2462  0.2615  0.1550
13162TIP3    H160977  -0.035   6.141  10.410  0.7757  3.4310  0.6002
13162TIP3    H260978   0.063   6.145  10.525  1.5100 -0.4225  0.2643
13163TIP3   OH260979   3.164   5.437  16.418 -0.2608 -0.7593 -0.0433
13163TIP3    H160980   3.183   5.504  16.484  2.6046 -1.9219  0.4728
13163TIP3    H260981   3.124   5.366  16.467  0.7457 -1.1267  0.2861
13164TIP3   OH260982   4.171   6.024   3.589 -0.5720  0.7325 -0.3421
13164TIP3    H160983   4.245   6.074   3.622 -0.6040  0.7614 -0.3148
13164TIP3    H260984   4.095   6.080   3.603 -0.5324  0.9231 -0.8600
13165TIP3   OH260985   1.317   5.797   4.568  0.0960  0.0747 -0.1351
13165TIP3    H160986   1.262   5.740   4.514  0.6946 -1.6221  0.9872
13165TIP3    H260987   1.258   5.866   4.597 -1.9230 -2.4330  2.1890
13166TIP3   OH260988   0.862   6.534   1.236  0.0188  0.0505 -0.3931
13166TIP3    H160989   0.850   6.506   1.327 -0.1548  0.9925 -0.1243
13166TIP3    H260990   0.775   6.527   1.197  0.1797 -0.7995 -0.6264
13167TIP3   OH260991   1.181   4.573  15.176 -0.1046  0.2718 -0.3139
13167TIP3    H160992   1.249   4.629  15.140  0.9071  0.4712  1.7792
13167TIP3    H260993   1.121   4.632  15.220 -0.0271 -0.1170  0.3356
13168TIP3   OH260994   0.231   1.107  11.215 -0.2064 -0.5579 -0.0465
13168TIP3    H160995   0.194   1.046  11.279  1.3766 -0.6505  0.8319
13168TIP3    H260996   0.245   1.188  11.265 -1.9460  0.4823 -1.1057
13169TIP3   OH260997   6.772   5.980  15.793 -0.2633 -0.5088 -0.1408
13169TIP3    H160998   6.727   5.919  15.851 -2.2341  1.0483  0.0653
13169TIP3    H260999   6.824   6.035  15.851 -1.7370  0.6348  0.1553
13170TIP3   OH261000   3.567   1.494  12.495 -0.0435  0.0612 -0.5672
13170TIP3    H161001   3.595   1.581  12.466 -1.6837  0.6551 -0.4733
13170TIP3    H261002   3.543   1.507  12.587  1.1027 -0.8588 -0.1061
13171TIP3   OH261003   1.326   0.552  11.712  0.6370  0.1242  0.2387
13171TIP3    H161004   1.262   0.551  11.783 -0.9080  0.4991 -1.0786
13171TIP3    H261005   1.349   0.644  11.702 -1.9486  0.6591 -2.0339
13172TIP3   OH261006   5.220   4.620  15.785 -0.5638 -0.0235  0.5045
13172TIP3    H161007   5.169   4.540  15.773 -2.3858  1.1115  0.2152
13172TIP3    H261008   5.157   4.691  15.769  0.7667  1.4770  1.5929
13173TIP3   OH261009   1.653   2.084  17.300 -0.3359  0.0384 -0.5184
13173TIP3    H161010   1.733   2.059  17.254  0.4231  1.0593  0.1954
13173TIP3    H261011   1.584   2.074  17.235  0.4310 -0.4369 -1.2863
13174TIP3   OH261012   4.490   5.153  11.282  0.5684 -0.6827  0.2098
13174TIP3    H161013   4.481   5.233  11.230 -2.5549 -0.3544  1.0564
13174TIP3    H261014   4.410   5.104  11.263  0.8893 -2.0633  2.2177
13175TIP3   OH261015   3.378   2.807  15.734 -0.5736  0.6363  0.4546
13175TIP3    H161016   3.434   2.883  15.720  1.4586 -1.1413 -1.9883
13175TIP3    H261017   3.416   2.762  15.809  0.9512 -0.1739 -0.7486
13176TIP3   OH261018   4.254   0.120   2.893  0.0209 -0.0580  0.2904
13176TIP3    H161019   4.239   0.079   2.978 -0.5220 -0.2783  0.0903
13176TIP3    H261020   4.264   0.213   2.912  1.7254 -0.3037  0.8092
13177TIP3   OH261021   0.417   1.918  15.351 -0.5727  0.0181  0.4284
13177TIP3    H161022   0.362   1.994  15.369 -0.1929 -0.0379  1.9865
13177TIP3    H261023   0.431   1.920  15.257  0.7683  2.8494  0.5689
13178TIP3   OH261024   2.330   4.358   1.126 -0.2124 -0.4636 -0.4000
13178TIP3    H161025   2.315   4.436   1.073 -0.5577 -0.8485 -0.8842
13178TIP3    H261026   2.297   4.286   1.072 -0.5088 -0.8730  0.3085
13179TIP3   OH261027   0.892   1.394  12.140  0.2899  0.0262  0.4147
13179TIP3    H161028   0.839   1.455  12.088  0.8684  0.9221  0.8331
13179TIP3    H261029   0.828   1.341  12.187 -0.2780  1.3385  1.2004
13180TIP3   OH261030   2.983   0.798   0.709  0.5405  0.1798  0.0045
13180TIP3    H161031   2.967   0.784   0.616  0.1817 -0.7758  0.1933
13180TIP3    H261032   2.995   0.710   0.744  2.5475  0.6214  0.5436
13181TIP3   OH261033   6.616   6.767   4.273  0.4830 -0.0164  0.0152
13181TIP3    H161034   6.624   6.703   4.344 -0.8768  0.1281  0.3312
13181TIP3    H261035   6.706   6.785   4.247  1.0052 -0.3516  1.4569
13182TIP3   OH261036   1.376   1.662  14.178  0.1547 -0.3342 -0.1292
13182TIP3    H161037   1.334   1.575  14.178  0.3738 -0.4530 -1.2240
13182TIP3    H261038   1.315   1.718  14.130 -1.2860  0.8202  2.8113
13183TIP3   OH261039   6.113   3.772   4.335  0.2752  0.4549 -0.0349
13183TIP3    H161040   6.115   3.769   4.430 -0.4200  0.2418 -0.0214
13183TIP3    H261041   6.202   3.797   4.309  0.1466  1.7491  0.7072
13184TIP3   OH261042   4.946   0.759   2.774 -0.2442 -0.4355 -0.0224
13184TIP3    H161043   5.009   0.788   2.708 -0.6586  0.4742 -0.0221
13184TIP3    H261044   4.889   0.834   2.789 -0.8671 -1.0008  0.5380
13185TIP3   OH261045   5.851   0.401  16.781  0.1691  0.4639  0.2740
13185TIP3    H161046   5.923   0.360  16.735 -0.5948 -0.8290  0.1731
13185TIP3    H261047   5.820   0.470  16.722  1.5949  1.3482  0.5284
13186TIP3   OH261048   4.153   4.041  12.289 -0.9921 -0.2791  0.2510
13186TIP3    H161049   4.218   3.974  12.311  0.0066  0.4183 -0.4554
13186TIP3    H261050   4.083   3.993  12.245  0.1116 -0.7643 -1.0309
13187TIP3   OH261051   2.728   0.044   4.475  0.5601 -0.5574 -0.0488
13187TIP3    H161052   2.646   0.091   4.459 -1.3018 -2.1969  3.5369
13187TIP3    H261053   2.757   0.017   4.387 -1.6026  1.7666 -1.6328
13188TIP3   OH261054   1.615   2.249   1.085  0.1905  0.1029  0.0205
13188TIP3    H161055   1.547   2.309   1.114 -0.5952 -1.3027  1.1668
13188TIP3    H261056   1.595   2.233   0.993 -0.4815  0.4285  0.1036
13189TIP3   OH261057   6.276   0.625   3.340 -0.4111 -0.2197  0.2321
13189TIP3    H161058   6.213   0.691   3.369 -1.0799 -0.3420 -0.9045
13189TIP3    H261059   6.361   0.659   3.367 -0.6085  1.7123 -1.4014
13190TIP3   OH261060   0.833   2.056  15.943 -0.0864  0.2920  0.1830
13190TIP3    H161061   0.883   2.129  15.907 -1.2380  0.9585 -0.1002
13190TIP3    H261062   0.797   2.090  16.025 -0.0898 -0.1817  0.3843
13191TIP3   OH261063   2.955   4.901   5.096 -0.3650  0.1524  0.2759
13191TIP3    H161064   2.902   4.978   5.112  0.4269  0.7793 -0.0503
13191TIP3    H261065   2.976   4.867   5.183 -0.9823  0.1102  0.4116
13192TIP3   OH261066   6.417   4.458  13.783  0.1413  0.4771  0.0630
13192TIP3    H161067   6.442   4.379  13.831 -1.0410  1.4388  2.4237
13192TIP3    H261068   6.429   4.434  13.691  1.1475 -1.9669  0.7271
13193TIP3   OH261069   4.767   1.335   5.070  0.0207 -0.1750  0.1104
13193TIP3    H161070   4.687   1.387   5.079  1.2227  1.6610  0.8040
13193TIP3    H261071   4.783   1.331   4.976 -0.1672  0.6282  0.0370
13194TIP3   OH261072   1.271   5.195  16.621  0.6914  0.3808  0.5346
13194TIP3    H161073   1.330   5.121  16.630  1.3971  0.3378 -2.9291
13194TIP3    H261074   1.327   5.272  16.628  2.1073  0.3657 -5.1248
13195TIP3   OH261075   5.827   0.797   5.628  0.1654  0.3411  0.0049
13195TIP3    H161076   5.868   0.882   5.643 -1.1014  1.0302 -0.2857
13195TIP3    H261077   5.746   0.818   5.581 -0.6655 -0.9273  0.8230
13196TIP3   OH261078   4.046   3.303   0.127  0.1084  0.1620  0.1579
13196TIP3    H161079   4.037   3.209   0.115 -0.5295  0.2603 -0.1937
13196TIP3    H261080   3.975   3.326   0.188  0.0023  0.4728 -0.0817
13197TIP3   OH261081   1.333   1.018  12.882 -0.2251 -0.2127  0.5182
13197TIP3    H161082   1.429   1.022  12.888 -0.0876  3.4597 -1.4229
13197TIP3    H261083   1.302   1.049  12.967  0.5014  2.2676 -0.0327
13198TIP3   OH261084   1.889   0.984   5.753 -0.0400  0.2532  0.2849
13198TIP3    H161085   1.896   1.077   5.772 -0.3713 -0.0455  2.0250
13198TIP3    H261086   1.938   0.972   5.672  1.1708  1.7124  0.7677
13199TIP3   OH261087   0.990   6.722  12.263 -0.0776  0.7045  1.1625
13199TIP3    H161088   1.081   6.735  12.238  0.0183 -1.0062  0.4887
13199TIP3    H261089   0.987   6.633  12.300 -1.2248  1.2309  2.4372
13200TIP3   OH261090   5.767   0.419   0.426  0.5299  0.6518 -0.5068
13200TIP3    H161091   5.725   0.429   0.341  0.3513 -0.9132 -0.6239
13200TIP3    H261092   5.700   0.382   0.483  0.5630  1.9353  0.4163
13201TIP3   OH261093   3.230   4.423  13.860  0.0108  0.3271 -0.3116
13201TIP3    H161094   3.278   4.500  13.828 -0.1909  0.8396  0.5768
13201TIP3    H261095   3.226   4.436  13.955 -0.2258 -0.6735 -0.1754
13202TIP3   OH261096   6.163   4.960   5.758  0.5930 -0.2150 -0.6863
13202TIP3    H161097   6.096   5.020   5.790 -0.9083 -0.7501 -2.5837
13202TIP3    H261098   6.246   5.005   5.773 -0.4455  2.2480 -1.7749
13203TIP3   OH261099   1.991   2.755   1.616  0.7927  0.3023  0.1723
13203TIP3    H161100   1.933   2.764   1.540 -0.9991 -0.7598  1.3465
13203TIP3    H261101   2.011   2.661   1.621  0.0758  0.1943  1.5513
13204TIP3   OH261102   1.832   5.017  15.617  0.1809  0.3372  0.4398
13204TIP3    H161103   1.739   4.997  15.625  0.5911 -1.4610  1.2759
13204TIP3    H261104   1.876   4.941  15.657  1.9456  2.3350  2.5707
13205TIP3   OH261105   3.473   2.958  16.821 -0.3841  0.4330 -0.2319
13205TIP3    H161106   3.513   2.875  16.797  0.3755  0.1469  1.8211
13205TIP3    H261107   3.451   2.999  16.738  2.7425 -0.1031 -1.4608
13206TIP3   OH261108   2.811   6.802  14.628 -0.4964  0.7440 -0.1277
13206TIP3    H161109   2.822   6.835  14.539 -4.6263  4.0485  0.3136
13206TIP3    H261110   2.773   6.715  14.617 -0.6432  0.9709 -1.5658
13207TIP3   OH261111   5.687   6.560  12.650  0.1675  0.4792 -0.1471
13207TIP3    H161112   5.601   6.531  12.619  0.2959  0.2638 -0.3092
13207TIP3    H261113   5.669   6.607  12.731  0.0765 -1.4136  0.9895
13208TIP3   OH261114   0.673   5.315   3.442  0.4470  0.5260 -0.1317
13208TIP3    H161115   0.760   5.277   3.427 -0.4951 -1.4573 -0.8962
13208TIP3    H261116   0.674   5.395   3.389  2.0092  0.8774  0.3703
13209TIP3   OH261117   3.697   5.683   4.513 -0.5381 -0.3634  0.6364
13209TIP3    H161118   3.651   5.610   4.556 -0.8720  0.2374  1.3280
13209TIP3    H261119   3.655   5.761   4.549 -0.6712  0.1672 -0.6479
13210TIP3   OH261120   4.809   6.012   0.002 -0.3912  0.2728  0.2151
13210TIP3    H161121   4.821   6.027  -0.091  0.9795 -0.4698  0.2568
13210TIP3    H261122   4.714   6.003   0.013 -0.4762 -0.9740 -1.3149
13211TIP3   OH261123   3.172   3.455  12.338 -0.2817 -0.1383  0.1635
13211TIP3    H161124   3.243   3.409  12.380 -0.4239  0.6378  1.3003
13211TIP3    H261125   3.126   3.499  12.409 -1.8273 -0.5187 -0.5554
13212TIP3   OH261126   6.411   3.935   0.364 -0.0625  0.3536  0.0682
13212TIP3    H161127   6.504   3.955   0.377  0.2128 -0.3254 -0.7167
13212TIP3    H261128   6.405   3.840   0.377 -0.4025  0.2018 -1.0876
13213TIP3   OH261129   2.330   3.260   3.777 -0.1563 -0.3154  0.0661
13213TIP3    H161130   2.313   3.193   3.843  0.3288  0.0083  0.5280
13213TIP3    H261131   2.417   3.240   3.744  0.9835  1.3876  1.8378
13214TIP3   OH261132   3.965   0.959  14.472 -0.4817  0.5889 -0.1662
13214TIP3    H161133   3.954   0.972  14.566 -1.8275  0.0953 -0.2385
13214TIP3    H261134   4.033   1.022  14.448  0.6759 -0.0258  1.3017
13215TIP3   OH261135   1.135   5.196  12.401  0.4519  0.0708 -0.5685
13215TIP3    H161136   1.088   5.113  12.398  1.9601 -0.8235 -0.4316
13215TIP3    H261137   1.173   5.206  12.314 -0.5642  1.1682 -0.9202
13216TIP3   OH261138   0.612   4.339  11.858 -0.2097  0.2458  0.1651
13216TIP3    H161139   0.687   4.385  11.822 -0.5372 -0.4950 -1.5569
13216TIP3    H261140   0.631   4.246  11.843 -1.8395  0.0732 -1.1668
13217TIP3   OH261141   2.218   6.012  13.876 -0.2544 -0.2319  0.6701
13217TIP3    H161142   2.149   5.961  13.918 -0.2440 -1.5176 -0.8154
13217TIP3    H261143   2.230   5.972  13.790  0.0863  1.9769 -0.4031
13218TIP3   OH261144   6.603   2.265   5.610 -0.1721 -0.3002 -0.3973
13218TIP3    H161145   6.530   2.249   5.551  0.6459  0.5342 -1.6929
13218TIP3    H261146   6.570   2.329   5.673 -0.1441  1.2587 -1.9006
13219TIP3   OH261147   2.826   1.981   2.843 -0.0115  0.4249  0.0982
13219TIP3    H161148   2.877   1.908   2.808 -0.5725  0.1975 -0.2551
13219TIP3    H261149   2.833   2.049   2.776  0.5947  0.7413  0.4721
13220TIP3   OH261150   3.785   1.532   5.933  0.0662  0.3634  0.0707
13220TIP3    H161151   3.750   1.610   5.891 -1.4400  0.1788  0.9328
13220TIP3    H261152   3.731   1.519   6.011  0.3214 -1.4991 -0.0088
13221TIP3   OH261153   3.367   0.745   0.412  0.1555  0.0048  0.0276
13221TIP3    H161154   3.322   0.829   0.405 -0.4706 -0.3678 -0.5406
13221TIP3    H261155   3.342   0.711   0.498 -0.7808 -0.2645 -0.3423
13222TIP3   OH261156   0.860   3.173  16.692  0.3754 -0.5287  0.0722
13222TIP3    H161157   0.800   3.142  16.760  2.1379 -2.0182  1.0296
13222TIP3    H261158   0.845   3.268  16.689 -0.6680 -0.6034  1.6124
13223TIP3   OH261159   6.656   4.674   1.452 -0.2924 -0.4338  0.7015
13223TIP3    H161160   6.615   4.695   1.536  0.4463  1.3480  0.6531
13223TIP3    H261161   6.743   4.643   1.475 -0.4624 -0.9630  0.6377
13224TIP3   OH261162   2.839   2.789  16.493  0.2866 -0.3434 -0.3922
13224TIP3    H161163   2.933   2.776  16.477  0.0701 -1.7614 -0.6932
13224TIP3    H261164   2.835   2.856  16.561  1.5747 -1.1126  0.4858
13225TIP3   OH261165   2.481   6.711   2.711  0.2588  0.0074  0.1902
13225TIP3    H161166   2.535   6.648   2.663  2.4254  1.2244  0.8681
13225TIP3    H261167   2.435   6.760   2.643  2.4036  0.9510 -0.6729
13226TIP3   OH261168   3.415   5.423  15.065  0.5519 -0.2505  0.0778
13226TIP3    H161169   3.360   5.484  15.114  0.7243 -0.8696  1.0606
13226TIP3    H261170   3.356   5.385  15.000  0.1745  0.1565  0.1809
13227TIP3   OH261171   4.849   1.666  16.171  0.0342  0.1849 -0.1969
13227TIP3    H161172   4.902   1.662  16.091  3.9801  0.5239  2.1041
13227TIP3    H261173   4.832   1.575  16.193  0.4509  0.0228 -0.5315
13228TIP3   OH261174   0.321   3.752   5.523 -0.2909  0.1097  0.4258
13228TIP3    H161175   0.345   3.839   5.553 -0.8131  1.1579 -1.9282
13228TIP3    H261176   0.389   3.694   5.557  0.4893  1.5590  1.3956
13229TIP3   OH261177   1.595   2.225   0.754  0.8328  0.0252  0.9236
13229TIP3    H161178   1.634   2.219   0.667  0.1989 -0.5345  0.6766
13229TIP3    H261179   1.504   2.251   0.739  0.2915 -1.5508  1.3135
13230TIP3   OH261180   3.104   4.233   1.187 -0.1400  0.5959  0.0684
13230TIP3    H161181   3.144   4.161   1.237 -1.5943 -0.0025  0.4198
13230TIP3    H261182   3.175   4.297   1.177  0.7166 -0.1117  1.2517
13231TIP3   OH261183   4.648   0.084  15.041  0.1607  0.0800 -0.9911
13231TIP3    H161184   4.638  -0.009  15.016  0.4277 -0.6331  1.3416
13231TIP3    H261185   4.558   0.112  15.061  0.3179 -0.3521  0.4118
13232TIP3   OH261186   6.034   0.098   5.954  0.3474  0.1677  0.1350
13232TIP3    H161187   6.047   0.010   5.988 -0.0597  0.1407  0.2278
13232TIP3    H261188   6.120   0.125   5.922  0.2945 -0.5964 -0.6926
13233TIP3   OH261189   0.238   1.103  16.244 -0.7639 -0.1186 -0.3467
13233TIP3    H161190   0.142   1.100  16.237 -0.7154 -0.4847 -0.9541
13233TIP3    H261191   0.268   1.096  16.153 -0.1288 -1.4734 -0.0493
13234TIP3   OH261192   5.594   0.370  10.688 -0.1785  0.4562 -0.1855
13234TIP3    H161193   5.579   0.304  10.620 -2.2014 -2.3003  2.6482
13234TIP3    H261194   5.688   0.366  10.705 -0.2076 -1.6078 -0.2786
13235TIP3   OH261195   5.111   5.149  11.852 -0.0812 -0.1542 -0.3309
13235TIP3    H161196   5.043   5.089  11.821 -1.9712  0.3888  2.4078
13235TIP3    H261197   5.166   5.164  11.776 -3.2088 -0.3640 -2.8540
13236TIP3   OH261198   1.940   3.661  11.965 -0.1119 -0.3701 -0.6979
13236TIP3    H161199   1.979   3.614  11.892 -0.2303 -2.3527  0.4551
13236TIP3    H261200   1.875   3.719  11.924 -1.2202 -2.4724 -2.1123
13237TIP3   OH261201   0.075   6.416  15.268  0.5886 -0.7294  0.0305
13237TIP3    H161202   0.076   6.489  15.207 -1.3175  0.7358  1.6245
13237TIP3    H261203  -0.016   6.387  15.271  1.4798 -4.2397 -1.6384
13238TIP3   OH261204   1.991   6.621  12.698  0.0536  0.0745 -0.1957
13238TIP3    H161205   2.070   6.575  12.670 -0.2363  0.0272 -0.9710
13238TIP3    H261206   1.946   6.644  12.616 -0.0256  1.3569  0.1833
13239TIP3   OH261207   2.056   0.480  12.663  0.0717 -0.3082 -0.1938
13239TIP3    H161208   2.082   0.476  12.755  1.0463 -0.2708 -0.4616
13239TIP3    H261209   1.984   0.417  12.656  0.1462 -0.4822  0.5400
13240TIP3   OH261210   1.812   6.138   1.144  0.2076  0.1394 -0.0852
13240TIP3    H161211   1.810   6.114   1.051 -3.7827  0.8622 -0.3717
13240TIP3    H261212   1.795   6.232   1.145  2.6143  0.6338  1.3903
13241TIP3   OH261213   4.976   4.650  11.134 -0.2121 -0.1123 -0.3136
13241TIP3    H161214   4.958   4.597  11.212  1.1237  0.2505  0.2748
13241TIP3    H261215   4.930   4.605  11.063 -0.1799 -1.3295  0.4035
13242TIP3   OH261216   1.109   2.571   0.721 -0.6249 -0.6138  0.0349
13242TIP3    H161217   1.092   2.650   0.772  1.1943 -0.2880  0.2091
13242TIP3    H261218   1.079   2.592   0.633  1.0755  0.8280 -0.2512
13243TIP3   OH261219   1.432   4.041   3.105  0.2800  0.1681  0.8216
13243TIP3    H161220   1.366   4.005   3.046  0.9541  0.5612 -0.1983
13243TIP3    H261221   1.456   4.125   3.066  0.8173  0.3896  1.6047
13244TIP3   OH261222   3.348   3.753  17.296  0.1164  0.1780  0.2422
13244TIP3    H161223   3.429   3.799  17.320  0.5958 -0.3582 -0.2861
13244TIP3    H261224   3.278   3.816  17.312  0.7504  1.0907 -0.4519
13245TIP3   OH261225   5.794   3.503  13.760  0.0864 -0.5517  0.8065
13245TIP3    H161226   5.810   3.590  13.796 -0.6307  0.2405 -0.6626
13245TIP3    H261227   5.873   3.484  13.708 -0.6864  0.2988 -0.7734
13246TIP3   OH261228   0.801   4.628   4.445  0.3916 -0.4362  0.2146
13246TIP3    H161229   0.858   4.585   4.381 -1.6711 -2.0664 -0.6622
13246TIP3    H261230   0.730   4.565   4.460  0.0483  0.4867  3.0793
13247TIP3   OH261231   5.348   4.370   6.189  0.2320  0.5467  0.0611
13247TIP3    H161232   5.371   4.283   6.221 -4.2938 -0.3849  1.4478
13247TIP3    H261233   5.345   4.361   6.094 -1.2666 -1.2387  0.2257
13248TIP3   OH261234   5.387   2.959  15.682  0.4274 -0.4452  0.0226
13248TIP3    H161235   5.462   2.997  15.637  0.7095 -1.7524 -0.6704
13248TIP3    H261236   5.350   3.031  15.733  1.0395  0.6908 -1.0828
13249TIP3   OH261237   0.383   5.677   3.368 -0.2135  0.3973 -0.1450
13249TIP3    H161238   0.359   5.594   3.327  0.3854 -0.1364  0.5394
13249TIP3    H261239   0.300   5.714   3.398 -0.7050  0.9459 -2.0277
13250TIP3   OH261240   2.542   0.343  15.841  0.3007 -0.4225  1.1499
13250TIP3    H161241   2.495   0.383  15.768  1.0065  0.5591  1.2180
13250TIP3    H261242   2.494   0.371  15.919  0.1016 -0.6956  1.1288
13251TIP3   OH261243   0.845   1.504   4.955 -0.2064 -0.3760  0.3636
13251TIP3    H161244   0.765   1.460   4.925 -0.4635  0.8075 -0.7709
13251TIP3    H261245   0.915   1.464   4.903  0.4243 -3.2036  3.0577
13252TIP3   OH261246   5.953   6.070   2.431  0.3045  0.0313  0.3564
13252TIP3    H161247   6.009   6.142   2.402  1.1265 -0.4051  0.8246
13252TIP3    H261248   5.865   6.108   2.434  0.6907  0.9571  0.3997
13253TIP3   OH261249   2.937   6.587   1.177 -0.2441  0.7943  0.1612
13253TIP3    H161250   2.942   6.535   1.097  1.3346  0.8953  0.1658
13253TIP3    H261251   2.848   6.572   1.210 -1.3361  1.6527 -2.1808
13254TIP3   OH261252   5.946   3.482  12.690 -0.1033  0.2311  0.1017
13254TIP3    H161253   6.020   3.436  12.729 -0.9027 -1.3293 -0.1435
13254TIP3    H261254   5.882   3.414  12.673 -1.5153  1.5145  0.0862
13255TIP3   OH261255   5.524   2.093  16.608  0.0752  0.0935  0.4178
13255TIP3    H161256   5.475   2.105  16.690  2.2756 -1.7891  2.1442
13255TIP3    H261257   5.506   2.172  16.558 -3.2369  0.3214  1.6644
13256TIP3   OH261258   6.230   3.669   2.348  0.3268 -0.6728 -0.5846
13256TIP3    H161259   6.168   3.646   2.418  0.4046  0.7714 -0.0055
13256TIP3    H261260   6.190   3.744   2.305  1.2077 -0.3601 -0.8613
13257TIP3   OH261261   5.416   4.095   6.222  0.0191  0.2338  0.1225
13257TIP3    H161262   5.348   4.117   6.159  0.7605 -2.1054 -1.6117
13257TIP3    H261263   5.378   4.027   6.277  0.8532 -1.0211 -0.7946
13258TIP3   OH261264   3.006   3.182   3.995  0.5054 -0.1254 -0.2823
13258TIP3    H161265   2.987   3.209   4.085 -0.0321  1.8499 -0.9299
13258TIP3    H261266   3.047   3.258   3.956 -3.2209  0.8280 -2.9422
13259TIP3   OH261267   5.590   0.128  17.213  0.0619  0.1123 -0.4327
13259TIP3    H161268   5.552   0.073  17.144 -0.7795 -0.2104  0.2647
13259TIP3    H261269   5.669   0.166  17.173  0.5045 -1.3672 -1.0315
13260TIP3   OH261270   3.441   2.038   2.914 -0.5081 -0.5389  0.3341
13260TIP3    H161271   3.371   2.031   2.849  1.3651  1.0041 -2.0049
13260TIP3    H261272   3.400   2.082   2.988 -2.2064 -0.3590 -0.6511
13261TIP3   OH261273   0.616   1.482  12.435  0.0672  0.2457  0.2784
13261TIP3    H161274   0.630   1.514  12.524  0.0185  0.3944  0.2328
13261TIP3    H261275   0.532   1.520  12.409 -1.1520 -1.7358  1.0673
13262TIP3   OH261276   1.128   4.938  16.483  0.2170 -0.4997  0.7146
13262TIP3    H161277   1.084   5.017  16.450  0.3928 -0.7058 -0.0235
13262TIP3    H261278   1.221   4.963  16.487  0.7205 -1.5170 -2.2499
13263TIP3   OH261279   5.364   4.939   1.237 -0.5152  0.8685  0.3735
13263TIP3    H161280   5.283   4.893   1.215  0.4775 -0.0528 -1.5427
13263TIP3    H261281   5.345   5.031   1.217 -1.0981  0.6688 -0.0384
13264TIP3   OH261282   4.371   6.075   2.309 -0.0792 -0.3421 -0.0274
13264TIP3    H161283   4.439   6.113   2.254 -0.4573 -1.9879 -1.7411
13264TIP3    H261284   4.410   6.072   2.397  1.0089  1.1898 -0.4152
13265TIP3   OH261285   4.932   2.848  13.298  0.4058  0.1778 -0.1237
13265TIP3    H161286   4.985   2.880  13.371  0.9041 -0.0983 -0.3619
13265TIP3    H261287   4.920   2.924  13.242  1.0113  0.1155 -0.3438
13266TIP3   OH261288   4.743   5.916   1.698 -0.4521 -0.8432  0.1500
13266TIP3    H161289   4.745   6.004   1.659  0.0809 -1.6840 -1.8510
13266TIP3    H261290   4.672   5.919   1.761 -2.5402  0.1833 -2.0872
13267TIP3   OH261291   4.492   3.629   0.611  0.0903 -0.0247 -0.4474
13267TIP3    H161292   4.518   3.572   0.539  0.6854  0.2687 -0.4670
13267TIP3    H261293   4.404   3.659   0.587 -0.9105 -2.1545  0.3064
13268TIP3   OH261294   5.018   1.227  12.899 -0.4982 -0.2867  0.0624
13268TIP3    H161295   4.927   1.259  12.896 -0.3520  0.1083 -0.3845
13268TIP3    H261296   5.071   1.307  12.897 -0.1373 -0.5123  0.4277
13269TIP3   OH261297   2.960   6.749   2.919  0.0481  0.9331  0.2660
13269TIP3    H161298   2.894   6.804   2.962 -0.3189 -0.8770  2.1540
13269TIP3    H261299   2.955   6.773   2.826 -2.8822  1.2520  0.4363
13270TIP3   OH261300   6.026   6.232  16.302  0.3170  0.2381 -0.3484
13270TIP3    H161301   5.976   6.169  16.354 -0.4080  1.3839  0.3984
13270TIP3    H261302   6.114   6.194  16.297 -0.0684 -0.7838  0.1497
13271TIP3   OH261303   0.123   0.014  15.459 -0.1986  0.2735 -0.6585
13271TIP3    H161304   0.131   0.020  15.364 -2.1971 -0.0686 -0.8748
13271TIP3    H261305   0.127  -0.080  15.478  1.0133  0.3755 -0.2850
13272TIP3   OH261306   4.682   1.668  15.474  0.1373 -0.0853 -0.4437
13272TIP3    H161307   4.674   1.762  15.494 -1.4783 -0.1953 -0.4866
13272TIP3    H261308   4.683   1.664  15.379  0.0958 -0.1217 -0.4426
13273TIP3   OH261309   2.818   4.337   2.160  0.8164  0.3029 -0.0032
13273TIP3    H161310   2.826   4.394   2.084 -1.5664 -1.0488 -1.3782
13273TIP3    H261311   2.908   4.325   2.191  1.5088  4.3723  0.1590
13274TIP3   OH261312   4.619   5.768   0.145  0.3001 -0.1593 -0.9490
13274TIP3    H161313   4.576   5.836   0.093 -1.0110  1.0325  1.5137
13274TIP3    H261314   4.631   5.808   0.231  0.5274 -2.7018  0.2779
13275TIP3   OH261315   1.172   4.174   5.405  0.1289  0.3393 -0.3010
13275TIP3    H161316   1.243   4.198   5.345 -0.4326  0.6489 -0.8434
13275TIP3    H261317   1.167   4.079   5.398 -0.5456  0.4500 -1.4499
13276TIP3   OH261318   5.006   5.006  14.440  0.5389  0.0054 -0.4883
13276TIP3    H161319   5.030   4.918  14.471  2.6476  0.3766 -0.8763
13276TIP3    H261320   4.992   4.995  14.346 -0.4904 -0.1362 -0.3262
13277TIP3   OH261321   4.736   5.145  11.734 -0.0604  0.8568  0.2796
13277TIP3    H161322   4.821   5.141  11.691  0.3794 -0.6815  1.1991
13277TIP3    H261323   4.719   5.055  11.761 -2.6721  0.8356 -1.1403
13278TIP3   OH261324   1.434   1.986  17.181 -0.2883 -0.0728  0.4603
13278TIP3    H161325   1.387   1.956  17.103  1.5601 -1.0628 -0.3547
13278TIP3    H261326   1.461   1.905  17.224 -1.4291  0.4630  2.2667
13279TIP3   OH261327   6.282   1.822   1.176 -0.3187  0.0123 -0.2651
13279TIP3    H161328   6.200   1.868   1.191 -0.5618 -0.2934 -0.6171
13279TIP3    H261329   6.349   1.890   1.182 -0.6234  0.3187 -0.2701
13280TIP3   OH261330   5.018   4.491  12.751  0.3055 -0.1658 -0.9402
13280TIP3    H161331   5.093   4.470  12.807 -0.3985 -0.4099 -0.0614
13280TIP3    H261332   5.057   4.532  12.673  1.2847  0.4677 -0.1429
13281TIP3   OH261333   1.187   4.199  11.039  0.3787 -1.0889  0.3224
13281TIP3    H161334   1.258   4.255  11.007 -0.6133  0.6117  0.9661
13281TIP3    H261335   1.134   4.256  11.093 -2.4547 -1.8124 -1.4795
13282TIP3   OH261336   0.716   3.050  16.890 -0.1340 -0.1995  0.1669
13282TIP3    H161337   0.756   3.115  16.949  1.0161 -1.3202  0.6731
13282TIP3    H261338   0.629   3.085  16.871  0.3116  1.2984  0.7248
13283TIP3   OH261339   3.405   1.327  13.072 -0.3296 -0.0530  0.3615
13283TIP3    H161340   3.410   1.274  13.152  1.7461 -0.0313  0.2975
13283TIP3    H261341   3.461   1.281  13.009 -1.4231  0.2783 -0.8883
13284TIP3   OH261342   0.142   3.167  16.619 -0.6505  0.4448  0.4954
13284TIP3    H161343   0.219   3.175  16.564  0.7851  0.4155  2.3896
13284TIP3    H261344   0.116   3.075  16.613  1.4452 -0.3572  2.2334
13285TIP3   OH261345   3.582   4.609  12.657 -0.0420 -0.4550 -0.4796
13285TIP3    H161346   3.563   4.641  12.568 -3.6205  2.1522  0.9842
13285TIP3    H261347   3.500   4.572  12.687  0.8468 -0.5295  2.0329
13286TIP3   OH261348   5.784   4.675  15.304  0.3292 -0.4834 -0.0482
13286TIP3    H161349   5.704   4.631  15.275 -1.3411  0.6020  2.5822
13286TIP3    H261350   5.824   4.615  15.367 -0.4545  0.4710  1.4210
13287TIP3   OH261351   1.531   2.021   3.639 -0.4078  0.4495 -0.5533
13287TIP3    H161352   1.504   2.041   3.729 -1.5178 -2.8727 -0.0422
13287TIP3    H261353   1.624   1.998   3.646 -1.2016 -2.9993  0.4801
13288TIP3   OH261354   0.252   3.029  10.954 -0.3722 -0.1866 -0.0486
13288TIP3    H161355   0.202   2.956  10.991  2.8897 -2.5873  0.1070
13288TIP3    H261356   0.298   3.066  11.030 -0.5296  0.8143 -0.4305
13289TIP3   OH261357   0.673   2.881  12.626 -0.2368  0.3045 -0.1885
13289TIP3    H161358   0.680   2.785  12.620 -2.2082  0.1295 -0.4692
13289TIP3    H261359   0.670   2.898  12.720  2.1606  0.3251 -0.0642
13290TIP3   OH261360   6.641   6.043   4.727  0.4177 -0.5919 -0.4845
13290TIP3    H161361   6.642   6.007   4.816 -0.2201  0.1815 -0.1490
13290TIP3    H261362   6.615   5.970   4.671 -0.7295 -0.7015  0.1664
13291TIP3   OH261363   6.557   4.713  17.223 -0.3421  0.1912  0.6520
13291TIP3    H161364   6.584   4.804  17.239 -3.0995  1.4616 -1.1838
13291TIP3    H261365   6.462   4.713  17.235 -0.6496 -2.0382 -1.0375
13292TIP3   OH261366   2.178   1.507  11.984 -0.3230  0.4307 -0.3967
13292TIP3    H161367   2.229   1.460  11.918  0.5820 -0.4027  0.8243
13292TIP3    H261368   2.090   1.470  11.977 -0.2968  0.5127 -1.2679
13293TIP3   OH261369   5.854   1.836  13.510  0.3246  0.5559  0.0581
13293TIP3    H161370   5.878   1.762  13.566 -1.6277 -0.2121 -0.0101
13293TIP3    H261371   5.900   1.819  13.428  0.7922  0.0164  0.4209
13294TIP3   OH261372   5.942   3.329   2.919 -0.0215  0.2766  0.3918
13294TIP3    H161373   5.874   3.377   2.871  0.5320  1.2849  0.5701
13294TIP3    H261374   5.994   3.286   2.851 -0.2025  0.3765  0.1902
13295TIP3   OH261375   0.784   3.437  16.388 -0.2202 -0.2935 -0.3619
13295TIP3    H161376   0.777   3.465  16.479  1.4004  3.2410 -1.1415
13295TIP3    H261377   0.877   3.414  16.378 -0.2267  0.0414 -1.2484
13296TIP3   OH261378   4.927   0.767  13.977 -0.2373  0.3799  0.2676
13296TIP3    H161379   4.904   0.754  14.069  1.3496  0.6006  0.7236
13296TIP3    H261380   4.890   0.692  13.932  0.7112 -0.8234  1.4135
13297TIP3   OH261381   2.554   6.057  13.687 -0.3761 -0.0341 -0.2929
13297TIP3    H161382   2.605   6.133  13.662 -0.5993  0.3972  0.5281
13297TIP3    H261383   2.604   6.017  13.758 -0.6448 -0.2237 -0.2094
13298TIP3   OH261384   4.090   1.989   1.271  0.6943 -0.2697 -0.3135
13298TIP3    H161385   4.144   1.910   1.277  0.0599 -0.6244  1.5450
13298TIP3    H261386   4.154   2.060   1.269  1.2679 -0.7823 -0.8120
13299TIP3   OH261387   3.007   1.533   1.297  0.1945  0.4671  0.2262
13299TIP3    H161388   3.029   1.458   1.352 -0.8542 -0.5646 -0.7256
13299TIP3    H261389   3.025   1.609   1.353  0.2028 -0.5038  1.6002
13300TIP3   OH261390   6.207   0.405  11.150  0.0412 -0.0478  0.4601
13300TIP3    H161391   6.139   0.443  11.093 -0.0366 -0.7904  0.0528
13300TIP3    H261392   6.159   0.351  11.212  0.2797 -0.8850 -0.0703
13301TIP3   OH261393   4.679   2.163  15.112  0.2221 -0.2998  0.1463
13301TIP3    H161394   4.721   2.228  15.055  1.9665 -0.7447  0.8510
13301TIP3    H261395   4.741   2.090  15.115 -0.4540 -0.8630  1.5055
13302TIP3   OH261396   4.981   0.445  12.209 -0.0435  0.0073  0.2899
13302TIP3    H161397   4.994   0.525  12.158  0.1498 -0.0022  0.3225
13302TIP3    H261398   4.983   0.473  12.300 -0.1425 -0.0112  0.2981
13303TIP3   OH261399   2.615   3.580   3.229 -0.4379 -0.2692 -0.6122
13303TIP3    H161400   2.568   3.529   3.295  0.4781 -0.4012 -0.0394
13303TIP3    H261401   2.619   3.669   3.265  0.2849 -0.3973 -0.3565
13304TIP3   OH261402   6.195   4.778  16.402 -0.6096  0.5031 -0.1109
13304TIP3    H161403   6.278   4.775  16.354 -0.1437 -1.4347  0.7252
13304TIP3    H261404   6.221   4.790  16.494 -1.2422 -0.1809  0.1640
13305TIP3   OH261405   3.741   0.450  15.916  0.0253 -0.4067 -0.3396
13305TIP3    H161406   3.718   0.543  15.910 -0.2908 -0.3131  1.5126
13305TIP3    H261407   3.671   0.405  15.870 -0.0260  0.2518 -0.9203
13306TIP3   OH261408   5.748   3.636  10.997 -0.5054 -0.7213  0.0202
13306TIP3    H161409   5.790   3.559  10.958  0.3605 -0.8151  1.0921
13306TIP3    H261410   5.687   3.666  10.929  0.7006 -1.0586 -1.2677
13307TIP3   OH261411   2.976   0.359   3.009 -0.8117  0.5457  0.3525
13307TIP3    H161412   2.937   0.419   2.947 -1.7511 -1.9611 -1.6345
13307TIP3    H261413   3.069   0.356   2.985 -0.3100  2.6035  1.7691
13308TIP3   OH261414   2.899   5.132   0.441  0.3511  0.2789 -0.4311
13308TIP3    H161415   2.826   5.125   0.502  0.1234 -0.6213 -0.7900
13308TIP3    H261416   2.935   5.043   0.438  0.9986  0.5501 -0.8247
13309TIP3   OH261417   1.450   5.598   3.488 -0.6614  0.0790  0.1982
13309TIP3    H161418   1.423   5.519   3.441 -0.9112 -0.0787  0.6012
13309TIP3    H261419   1.369   5.647   3.502 -0.5741  0.1790  0.3613
13310TIP3   OH261420   3.828   5.279  15.380 -0.2210 -0.1115 -0.5794
13310TIP3    H161421   3.862   5.260  15.292  1.2371  2.0157 -0.5611
13310TIP3    H261422   3.903   5.317  15.427 -1.8300  1.9860  0.4573
13311TIP3   OH261423   6.420   1.915   4.591  0.0452  0.4653  0.1427
13311TIP3    H161424   6.472   1.949   4.664 -2.6696  1.6733  1.6721
13311TIP3    H261425   6.450   1.965   4.515  2.0351  0.1268  0.6683
13312TIP3   OH261426   3.536   5.818  16.008 -0.1056 -0.2542 -0.2859
13312TIP3    H161427   3.511   5.895  15.959 -1.5934 -0.7723 -0.3789
13312TIP3    H261428   3.571   5.758  15.943 -0.6385 -0.3478 -0.4887
13313TIP3   OH261429   5.033   2.523   2.695  0.1875  0.3836 -0.4187
13313TIP3    H161430   5.123   2.548   2.674 -0.1392  1.5602 -0.4890
13313TIP3    H261431   4.986   2.528   2.612 -0.3660  1.7545 -0.0510
13314TIP3   OH261432   0.592   3.694  12.475  0.3363  0.5800 -0.5481
13314TIP3    H161433   0.655   3.668  12.408  2.6282  1.1476  1.2646
13314TIP3    H261434   0.537   3.616  12.487 -0.7770  0.7376 -3.6177
13315TIP3   OH261435   5.121   0.135  14.728  0.0746  0.2094 -0.0493
13315TIP3    H161436   5.055   0.087  14.777  0.3824  1.5788  1.8010
13315TIP3    H261437   5.205   0.100  14.759  0.2606  0.1940 -0.5588
13316TIP3   OH261438   3.162   0.208   1.536 -0.1015 -0.2309 -0.0546
13316TIP3    H161439   3.125   0.202   1.447  0.0630 -1.8721 -0.0405
13316TIP3    H261440   3.256   0.195   1.523 -0.2681 -2.2965  0.5009
13317TIP3   OH261441   0.077   6.016   5.412 -0.2977  0.0295  0.1669
13317TIP3    H161442   0.109   5.935   5.451 -2.2554 -0.8454  0.0748
13317TIP3    H261443   0.129   6.027   5.333 -1.1878 -2.1547 -0.7886
13318TIP3   OH261444   1.156   1.985   2.148 -0.1970  0.3927  0.5560
13318TIP3    H161445   1.244   1.955   2.170  0.9491  1.0474 -2.6096
13318TIP3    H261446   1.168   2.046   2.075 -3.2444  0.9592  0.3650
13319TIP3   OH261447   4.935   5.334   4.116 -0.0488  0.3024  0.4685
13319TIP3    H161448   5.029   5.333   4.130 -0.0430  0.1606  0.4237
13319TIP3    H261449   4.922   5.393   4.041  0.2559 -1.7140 -1.2793
13320TIP3   OH261450   4.591   4.502   0.232 -0.1510 -0.1184 -0.2633
13320TIP3    H161451   4.601   4.506   0.327  1.4764 -0.4218 -0.3943
13320TIP3    H261452   4.535   4.577   0.211  0.0928  0.4001  0.8555
13321TIP3   OH261453   5.265   6.566   2.213 -0.1640 -0.8171  0.0745
13321TIP3    H161454   5.244   6.488   2.264  0.3815  0.0866  1.7767
13321TIP3    H261455   5.297   6.629   2.278  0.9959  0.2527 -1.4577
13322TIP3   OH261456   2.018   0.341  10.216  0.3966  0.1441 -0.6098
13322TIP3    H161457   2.053   0.360  10.303 -0.7876  0.6238 -0.2113
13322TIP3    H261458   2.009   0.246  10.214 -0.0431  0.1681 -0.0078
13323TIP3   OH261459   4.265   3.018  10.838 -0.3840 -0.0697  0.6419
13323TIP3    H161460   4.311   3.095  10.872 -0.9945  0.5498  0.0952
13323TIP3    H261461   4.172   3.041  10.841 -0.4605  0.2440 -1.8982
13324TIP3   OH261462   1.139   6.789  16.056 -0.1956  0.3343  0.5441
13324TIP3    H161463   1.174   6.877  16.037  0.4452  0.2810  1.3692
13324TIP3    H261464   1.178   6.733  15.990  0.2694  0.4974  0.6735
13325TIP3   OH261465   3.103   0.355   6.197 -0.2727  0.2298  0.5015
13325TIP3    H161466   3.170   0.346   6.129 -1.3433 -1.4030 -0.4217
13325TIP3    H261467   3.085   0.265   6.224 -0.3990  0.8042  2.4676
13326TIP3   OH261468   1.695   0.649   3.047 -0.0858  0.6193  0.2666
13326TIP3    H161469   1.672   0.561   3.076 -0.1861 -0.3894 -2.5861
13326TIP3    H261470   1.782   0.664   3.085 -0.7197  0.0026  2.0899
13327TIP3   OH261471   2.637   0.222  15.493 -0.6048  0.0355 -0.4695
13327TIP3    H161472   2.574   0.153  15.471 -2.8818  2.1846 -1.1725
13327TIP3    H261473   2.656   0.264  15.409 -1.3377  1.8664  0.2347
13328TIP3   OH261474   6.650   0.916  14.131  0.3712  0.5489  0.0009
13328TIP3    H161475   6.562   0.883  14.112  0.3062  1.4590 -1.3783
13328TIP3    H261476   6.645   0.943  14.223 -1.0400  1.2713 -0.2542
13329TIP3   OH261477   3.313   2.715   3.333  0.4166  0.0891 -0.4997
13329TIP3    H161478   3.296   2.809   3.337 -1.6285 -0.2644  0.4849
13329TIP3    H261479   3.389   2.702   3.390  0.3295  1.0646 -0.1380
13330TIP3   OH261480   3.719   2.477   5.947  0.0645 -0.1689 -0.5906
13330TIP3    H161481   3.799   2.438   5.983 -0.3747  0.0455  0.6556
13330TIP3    H261482   3.648   2.435   5.995 -0.6787 -1.3109 -2.5849
13331TIP3   OH261483   4.530   2.791   6.286 -0.0591  0.0200 -0.2201
13331TIP3    H161484   4.502   2.723   6.347 -0.1261 -1.5222 -1.8892
13331TIP3    H261485   4.593   2.844   6.336 -1.0224 -0.4253  1.5352
13332TIP3   OH261486   0.552   3.487   3.720 -0.2431  0.3215  0.4914
13332TIP3    H161487   0.645   3.477   3.701 -0.4471  0.0434 -0.4334
13332TIP3    H261488   0.543   3.579   3.746  0.2378  0.4354  0.2685
13333TIP3   OH261489   0.398   4.207   5.234 -0.2031  0.3078  0.3366
13333TIP3    H161490   0.347   4.148   5.179  0.9674 -1.5026  1.0985
13333TIP3    H261491   0.461   4.246   5.173 -1.1665  1.0264 -0.2273
13334TIP3   OH261492   3.485   5.176   3.385  0.4636 -0.1391  0.5060
13334TIP3    H161493   3.419   5.236   3.421 -0.1631 -1.3330  1.4063
13334TIP3    H261494   3.443   5.091   3.384  1.4803 -0.6657 -0.3882
13335TIP3   OH261495   3.683   0.621   3.880  0.3773  0.1061 -0.3572
13335TIP3    H161496   3.650   0.611   3.790 -0.2342  1.8932 -0.3653
13335TIP3    H261497   3.778   0.627   3.870  0.4131 -0.9233 -0.7485
13336TIP3   OH261498   2.456   2.957   5.457  0.8277 -0.6178  0.0770
13336TIP3    H161499   2.520   2.908   5.509  1.1367 -1.4936 -1.0836
13336TIP3    H261500   2.456   3.045   5.495  0.6383 -1.3561  1.9008
13337TIP3   OH261501   1.600   3.574  15.352 -0.0396  0.2521 -0.1844
13337TIP3    H161502   1.558   3.531  15.427  1.2284 -0.0147  0.4056
13337TIP3    H261503   1.572   3.523  15.276  0.4818 -0.9003  0.3749
13338TIP3   OH261504   5.239   1.633   5.260  0.4364 -0.6654 -0.4728
13338TIP3    H161505   5.214   1.559   5.205 -0.7638 -1.1043  0.6153
13338TIP3    H261506   5.174   1.701   5.241  0.7864 -0.3405 -0.5313
13339TIP3   OH261507   5.925   2.236  13.652 -0.3418  0.7738 -0.2905
13339TIP3    H161508   5.953   2.242  13.561  1.1736 -0.4281  0.0668
13339TIP3    H261509   6.002   2.205  13.700 -1.5348 -0.0942  1.1626
13340TIP3   OH261510   4.478   0.357  13.811  0.0799 -0.1708 -0.0370
13340TIP3    H161511   4.557   0.408  13.794  0.2120 -0.6457 -0.9582
13340TIP3    H261512   4.428   0.363  13.729 -0.4293 -0.5757  0.2400
13341TIP3   OH261513   4.422   5.792  16.056  0.2072  0.5884 -0.0346
13341TIP3    H161514   4.447   5.712  16.011 -0.0791  1.0810 -1.0923
13341TIP3    H261515   4.504   5.826  16.092  0.4920  0.3748 -0.4822
13342TIP3   OH261516   2.915   1.113  16.213  0.1154  0.3457  0.4403
13342TIP3    H161517   2.919   1.049  16.143  0.4741 -1.5410  2.0869
13342TIP3    H261518   2.934   1.197  16.171 -0.9035 -0.5184 -1.8856
13343TIP3   OH261519   0.358   1.464  15.762 -0.0693  0.6926  0.0836
13343TIP3    H161520   0.360   1.431  15.852 -0.7845  0.9022  0.1870
13343TIP3    H261521   0.299   1.404  15.716  1.9956 -0.7471 -0.8173
13344TIP3   OH261522   4.409   3.419  17.034 -0.1988 -0.1672 -0.0628
13344TIP3    H161523   4.415   3.416  17.130 -0.3094  0.8002 -0.0113
13344TIP3    H261524   4.317   3.400  17.016 -0.2299 -0.1228  0.0417
13345TIP3   OH261525   3.386   2.437   2.385  0.2053  0.3445  0.7343
13345TIP3    H161526   3.315   2.497   2.363 -1.1298 -0.7739  1.7845
13345TIP3    H261527   3.396   2.445   2.480 -0.2406 -1.3098  0.9476
13346TIP3   OH261528   2.450   2.301   5.876  0.5946  0.2915  0.3242
13346TIP3    H161529   2.510   2.261   5.939 -0.5602  0.1313  1.3773
13346TIP3    H261530   2.379   2.336   5.931 -0.6640 -0.2250 -0.9268
13347TIP3   OH261531   5.071   4.950  13.097  0.5472 -0.3087 -0.4552
13347TIP3    H161532   5.052   4.906  13.015  0.2940  0.5261 -0.8651
13347TIP3    H261533   5.108   5.034  13.071 -0.9793  0.6294  0.2177
13348TIP3   OH261534   4.818   2.855   2.446  0.1724  0.3915 -0.6791
13348TIP3    H161535   4.824   2.775   2.394  3.5548 -0.3806  0.6050
13348TIP3    H261536   4.908   2.869   2.478 -0.8943  3.0986  1.5104
13349TIP3   OH261537   0.062   5.563  14.002  0.0857  0.2203 -1.0389
13349TIP3    H161538   0.114   5.622  13.947  2.5758 -0.0986  0.8142
13349TIP3    H261539   0.075   5.477  13.962  1.1427  0.1260 -0.5377
13350TIP3   OH261540   0.796   6.747   3.488 -0.3754  0.2784  0.2007
13350TIP3    H161541   0.877   6.797   3.494 -0.4532  0.8178 -2.2165
13350TIP3    H261542   0.735   6.792   3.547  0.6193  0.7523  0.8981
13351TIP3   OH261543   3.874   4.699   3.820 -0.3364  0.5065  0.6294
13351TIP3    H161544   3.856   4.727   3.909 -0.9788  0.4458  0.5244
13351TIP3    H261545   3.879   4.603   3.825  0.1041  0.5258  0.6763
13352TIP3   OH261546   5.272   2.107  15.071 -0.5119  0.3164  0.1013
13352TIP3    H161547   5.221   2.039  15.028  0.7954 -1.4278  1.1620
13352TIP3    H261548   5.353   2.113  15.019  0.2859 -0.4969  1.2065
13353TIP3   OH261549   5.664   0.961  15.603 -0.1886 -0.4345  0.3131
13353TIP3    H161550   5.703   0.874  15.611  1.8198  0.1821 -1.8913
13353TIP3    H261551   5.604   0.954  15.528 -0.5697 -0.0987  0.5808
13354TIP3   OH261552   2.425   0.557   0.381  0.0484  0.0708 -0.3249
13354TIP3    H161553   2.448   0.649   0.388  0.4430  0.0416 -1.1453
13354TIP3    H261554   2.349   0.554   0.324  0.0390 -0.1158 -0.3055
13355TIP3   OH261555   6.372   3.832  11.841  0.5036 -0.3906  0.2545
13355TIP3    H161556   6.389   3.749  11.797 -2.3430 -0.4614 -0.9196
13355TIP3    H261557   6.449   3.885  11.822  2.3186 -2.6396  0.8864
13356TIP3   OH261558   4.082   3.556  14.513 -0.1764  0.5718  0.4330
13356TIP3    H161559   4.140   3.482  14.530 -1.6547 -0.3063  1.9082
13356TIP3    H261560   4.140   3.625  14.480  1.2596 -1.1566 -0.8159
13357TIP3   OH261561   6.244   2.641  15.800 -0.2969 -0.8882 -0.1088
13357TIP3    H161562   6.316   2.605  15.852 -0.0168 -0.1741  0.0115
13357TIP3    H261563   6.198   2.700  15.861 -0.0431 -0.1487 -0.6217
13358TIP3   OH261564   4.845   6.492   0.628  0.3705  0.5730 -0.1529
13358TIP3    H161565   4.865   6.572   0.580  0.9271 -0.1785 -1.2231
13358TIP3    H261566   4.913   6.430   0.600  0.1305 -0.1823  0.8778
13359TIP3   OH261567   3.640   3.721  15.023 -0.0455  0.0799  0.7014
13359TIP3    H161568   3.589   3.716  15.104 -0.0057 -1.1855  0.6712
13359TIP3    H261569   3.683   3.636  15.017 -0.4105 -0.0228 -0.8866
13360TIP3   OH261570   0.274   6.279  10.335  0.1345 -0.2064 -0.1101
13360TIP3    H161571   0.258   6.361  10.381 -1.6055 -0.7133  0.2940
13360TIP3    H261572   0.191   6.231  10.343  0.7289 -1.5156 -1.3196
13361TIP3   OH261573   1.303   0.461   4.303 -0.3050  0.5117 -0.0936
13361TIP3    H161574   1.212   0.471   4.273 -0.5025 -0.2349  0.2170
13361TIP3    H261575   1.311   0.367   4.322  1.3503 -0.0122 -2.7554
13362TIP3   OH261576   3.669   3.121  13.341 -0.5618  0.4112 -0.0611
13362TIP3    H161577   3.638   3.030  13.342  1.0247 -0.1638 -0.1027
13362TIP3    H261578   3.687   3.139  13.249 -0.6370  0.6897 -0.0223
13363TIP3   OH261579   5.714   1.449   1.234 -0.4453  0.0322  0.3226
13363TIP3    H161580   5.659   1.525   1.217 -0.9684 -0.6791 -1.3508
13363TIP3    H261581   5.772   1.444   1.158 -0.1684 -1.0132  0.5820
13364TIP3   OH261582   5.205   1.556   0.868  0.3912  0.5575 -0.2357
13364TIP3    H161583   5.111   1.573   0.875  0.2288 -0.6664  0.9665
13364TIP3    H261584   5.210   1.461   0.855  1.4597  0.6800 -0.7945
13365TIP3   OH261585   3.443   0.951  14.996  0.2680  0.3056 -0.4597
13365TIP3    H161586   3.408   0.938  15.084  0.4983 -1.7049 -0.6336
13365TIP3    H261587   3.373   0.923  14.938  1.0062 -0.7910 -0.8526
13366TIP3   OH261588   0.531   5.228  15.175  0.3783  0.4717  0.0711
13366TIP3    H161589   0.449   5.239  15.128 -0.6935  1.0999  1.9897
13366TIP3    H261590   0.598   5.258  15.114 -0.8320  0.2722 -1.4032
13367TIP3   OH261591   4.193   3.238  12.188 -0.0297  0.2807 -0.5824
13367TIP3    H161592   4.262   3.184  12.227 -0.8538  0.0055  0.5173
13367TIP3    H261593   4.198   3.321  12.234 -1.6634 -0.3807  0.8844
13368TIP3   OH261594   6.729   3.100   2.603  0.1377  0.1271  0.5654
13368TIP3    H161595   6.723   3.014   2.644 -2.6594  0.3653  0.8622
13368TIP3    H261596   6.773   3.154   2.669 -0.3353 -0.5227  1.4438
13369TIP3   OH261597   6.257   2.510  11.923  0.3686 -0.3827  1.3390
13369TIP3    H161598   6.307   2.442  11.968  1.9556 -0.0927  0.1123
13369TIP3    H261599   6.234   2.472  11.839  2.6289  1.0216 -0.0208
13370TIP3   OH261600   1.859   4.130   0.258 -0.1512  0.5374 -0.0417
13370TIP3    H161601   1.921   4.074   0.210  0.2124  2.0613 -1.4272
13370TIP3    H261602   1.817   4.070   0.320  1.4520 -0.9133 -0.2469
13371TIP3   OH261603   0.782   0.690   2.854 -0.1600 -0.0396 -0.2948
13371TIP3    H161604   0.770   0.759   2.920  1.0543 -0.2303  0.1447
13371TIP3    H261605   0.693   0.672   2.823 -0.7072  0.4534  0.8928
13372TIP3   OH261606   2.426   2.094   2.706 -0.2422 -0.5742 -0.1495
13372TIP3    H161607   2.332   2.102   2.691 -0.0997  1.5197 -0.2620
13372TIP3    H261608   2.441   2.000   2.717 -2.3974 -0.9091  0.3347
13373TIP3   OH261609   5.624   0.839  13.255 -0.4343  0.0023  0.0814
13373TIP3    H161610   5.572   0.797  13.324  0.0980  0.4147  0.7447
13373TIP3    H261611   5.681   0.899  13.302 -0.8550  1.1285 -0.8166
13374TIP3   OH261612   5.676   4.386   0.668  0.2461  0.6317 -0.5635
13374TIP3    H161613   5.660   4.375   0.762 -0.4104 -0.5087 -0.7971
13374TIP3    H261614   5.613   4.453   0.641 -1.1527 -0.6453 -0.6041
13375TIP3   OH261615   6.453   6.794   0.489 -0.3374 -0.0273  0.0601
13375TIP3    H161616   6.501   6.850   0.550  0.2288 -1.4929  1.0275
13375TIP3    H261617   6.362   6.798   0.519 -0.1225 -0.4437  0.8119
13376TIP3   OH261618   3.927   3.035  11.946  0.1440  0.0399  0.0374
13376TIP3    H161619   3.865   2.994  11.885 -0.7383  1.3862 -0.0035
13376TIP3    H261620   4.002   3.058  11.892 -0.9939  2.0511 -0.8182
13377TIP3   OH261621   1.973   5.712   0.048  0.4695  0.5837 -0.1641
13377TIP3    H161622   2.062   5.683   0.025  0.7973  0.4563  1.1817
13377TIP3    H261623   1.978   5.730   0.142 -1.1354 -0.1809  0.0944
13378TIP3   OH261624   3.152   0.800   5.740 -1.1485 -0.0480 -0.7468
13378TIP3    H161625   3.106   0.717   5.750  0.6212 -0.9973 -0.0292
13378TIP3    H261626   3.242   0.775   5.720 -0.8435  1.7295 -1.7770
13379TIP3   OH261627   2.220   6.797  15.838 -0.6520  0.3136  0.0721
13379TIP3    H161628   2.287   6.730  15.825 -1.2635 -0.8369  2.4646
13379TIP3    H261629   2.243   6.865  15.774  1.1336 -1.2620 -1.0865
13380TIP3   OH261630   5.516   1.193   5.699  0.3644  0.1474 -0.3861
13380TIP3    H161631   5.517   1.189   5.795  1.0704  0.1623 -0.3876
13380TIP3    H261632   5.604   1.222   5.675  0.0661  0.5551 -1.0230
13381TIP3   OH261633   1.402   3.576  12.658  0.3118  0.1518  0.0309
13381TIP3    H161634   1.347   3.504  12.627 -0.7706  1.2272 -0.6061
13381TIP3    H261635   1.377   3.587  12.750  2.6311 -2.2054  1.0861
13382TIP3   OH261636   6.207   2.395  15.614  0.2776  0.0238  0.3507
13382TIP3    H161637   6.265   2.391  15.691  1.1805 -4.0383 -0.2607
13382TIP3    H261638   6.267   2.394  15.540 -0.5188 -1.0049 -0.3138
13383TIP3   OH261639   6.272   0.079  13.262 -0.1392  0.6468 -0.1656
13383TIP3    H161640   6.220   0.038  13.332  1.4295 -1.3726 -0.1061
13383TIP3    H261641   6.219   0.155  13.235 -1.9080  0.1279  1.5695
13384TIP3   OH261642   2.490   0.807   3.558 -0.2995  0.0575  0.2706
13384TIP3    H161643   2.440   0.727   3.540  1.3347 -0.9814  0.1803
13384TIP3    H261644   2.555   0.810   3.488  1.5386 -0.1451  1.9091
13385TIP3   OH261645   0.972   6.501  12.016 -0.6390 -0.3183 -0.0067
13385TIP3    H161646   0.940   6.500  12.106 -0.3256 -1.9366  0.1211
13385TIP3    H261647   0.894   6.491  11.962 -0.5964 -2.8722  0.2560
13386TIP3   OH261648   6.196   6.494  17.307 -0.4230 -0.2776  0.2039
13386TIP3    H161649   6.118   6.549  17.311 -1.5295 -1.4753 -2.6201
13386TIP3    H261650   6.193   6.442  17.388 -0.6839  1.9690  1.7264
13387TIP3   OH261651   3.483   3.961   5.934 -0.4425 -0.7392  0.1533
13387TIP3    H161652   3.552   3.966   6.000  0.7320 -0.1322 -1.0681
13387TIP3    H261653   3.528   3.935   5.854 -1.4919  0.3709 -0.8542
13388TIP3   OH261654   4.392   3.544  12.074  0.2642 -0.1002  0.4016
13388TIP3    H161655   4.471   3.598  12.069  0.5257 -0.1911  2.6817
13388TIP3    H261656   4.359   3.557  12.163 -1.8489 -0.7099 -0.2363
13389TIP3   OH261657   6.051   1.694  12.881  0.1449  0.0390 -0.2563
13389TIP3    H161658   5.989   1.637  12.927  0.4540  0.1843  0.3474
13389TIP3    H261659   6.019   1.696  12.791 -1.8279  1.5762  0.4065
13390TIP3   OH261660   6.145   6.495  16.328  0.1330  0.0836  0.5034
13390TIP3    H161661   6.232   6.466  16.301  0.0791 -1.2114  1.5984
13390TIP3    H261662   6.094   6.414  16.334 -0.8375  0.7098  0.9341
13391TIP3   OH261663   0.382   3.846   1.078 -0.5109  0.0451  0.1833
13391TIP3    H161664   0.365   3.929   1.123  2.9397  0.9003  0.2106
13391TIP3    H261665   0.381   3.869   0.985  0.2035  0.0724  0.1801
13392TIP3   OH261666   4.007   0.781   5.122  0.0972 -0.1255  0.2364
13392TIP3    H161667   3.944   0.752   5.056 -0.7929 -0.1134  1.0448
13392TIP3    H261668   4.018   0.706   5.180  0.8362 -0.1254  0.0963
13393TIP3   OH261669   3.951   2.268  17.093 -0.3540 -0.2903  0.2569
13393TIP3    H161670   4.039   2.306  17.090 -1.8387  3.5688 -0.1481
13393TIP3    H261671   3.905   2.322  17.157 -3.0719 -0.5145 -1.3826
13394TIP3   OH261672   5.178   0.938  11.313  0.7008  0.3793 -0.3346
13394TIP3    H161673   5.273   0.935  11.318  0.7154  1.0096 -0.1654
13394TIP3    H261674   5.159   1.013  11.257  0.2956  0.7323  0.2555
13395TIP3   OH261675   3.816   6.384   1.227 -0.7650 -0.0299 -0.3220
13395TIP3    H161676   3.860   6.462   1.193 -0.7620 -0.0150 -0.2852
13395TIP3    H261677   3.876   6.351   1.294  0.7301 -1.8385 -2.4354
13396TIP3   OH261678   2.746   6.432   5.773 -0.2604 -0.0067 -0.2289
13396TIP3    H161679   2.780   6.479   5.849  1.7599 -0.3729 -0.8415
13396TIP3    H261680   2.697   6.359   5.810 -0.2157  0.4337  0.7166
13397TIP3   OH261681   5.389   5.265   5.852  0.2034 -0.3112  0.1700
13397TIP3    H161682   5.451   5.336   5.868 -0.5173  0.8751 -1.9312
13397TIP3    H261683   5.443   5.192   5.824  0.7248  0.6030 -1.3055
13398TIP3   OH261684   0.684   5.505  12.439  0.6310  0.5764 -0.0261
13398TIP3    H161685   0.773   5.469  12.436  0.6294  0.5406  0.2966
13398TIP3    H261686   0.684   5.561  12.516  0.1242 -0.0825  0.4585
13399TIP3   OH261687   4.063   1.385  11.523  0.0950  0.2412 -0.1806
13399TIP3    H161688   4.047   1.292  11.540 -0.1323 -0.0135 -1.6511
13399TIP3    H261689   4.056   1.427  11.609 -2.3227 -0.7523  0.1912
13400TIP3   OH261690   0.409   0.633  11.211  0.6455 -0.0298  0.1721
13400TIP3    H161691   0.397   0.717  11.166 -0.4775 -0.3480 -0.1520
13400TIP3    H261692   0.326   0.588  11.200  0.8114 -0.6829  1.4146
13401TIP3   OH261693   3.267   5.846  12.479 -0.6231  0.2115  0.1712
13401TIP3    H161694   3.332   5.821  12.544  0.6383  1.6255 -0.4760
13401TIP3    H261695   3.207   5.904  12.525  0.0319  0.8870  0.1826
13402TIP3   OH261696   5.385   5.072   3.836 -0.4220 -0.5938 -0.4281
13402TIP3    H161697   5.471   5.099   3.804 -1.1704 -0.1629 -2.1976
13402TIP3    H261698   5.393   4.978   3.849  0.2973 -0.5690 -0.6435
13403TIP3   OH261699   2.059   5.401   1.066 -0.3423  0.2605  0.4517
13403TIP3    H161700   2.048   5.397   1.162 -1.0240  0.9306  0.4113
13403TIP3    H261701   2.048   5.493   1.044  3.3870  0.7587  0.0848
13404TIP3   OH261702   6.651   3.820  16.861 -0.2575 -0.3009  0.2207
13404TIP3    H161703   6.660   3.800  16.768  2.1049 -0.9956  0.5607
13404TIP3    H261704   6.628   3.737  16.901 -1.3917  0.0227  0.2906
13405TIP3   OH261705   4.029   2.729   0.157  0.3057  0.8962 -0.4182
13405TIP3    H161706   4.015   2.698   0.067 -0.8337 -0.0943  0.0695
13405TIP3    H261707   3.941   2.736   0.193  0.7929  0.1794  0.9752
13406TIP3   OH261708   1.216   1.472  11.141  0.2627 -0.0238  0.2747
13406TIP3    H161709   1.254   1.472  11.053  0.3458  0.5346  0.3094
13406TIP3    H261710   1.283   1.511  11.196 -0.0910  0.3373  0.4543
13407TIP3   OH261711   1.601   4.232   5.041  0.0555  0.2833 -0.0529
13407TIP3    H161712   1.542   4.286   4.988 -0.1451  0.5980  0.4833
13407TIP3    H261713   1.631   4.291   5.111 -0.2267 -0.3244  0.5884
13408TIP3   OH261714   6.648   1.991   4.018 -0.1483  0.4176 -0.3007
13408TIP3    H161715   6.580   1.981   3.952  1.4446 -0.6466 -1.8980
13408TIP3    H261716   6.647   2.083   4.041  0.1721  1.1498 -2.9469
13409TIP3   OH261717   6.670   6.155  17.135  0.1931  0.3814  0.1212
13409TIP3    H161718   6.639   6.246  17.132  0.7022  0.6320  1.5033
13409TIP3    H261719   6.763   6.161  17.114  0.1228  0.1203 -0.2547
13410TIP3   OH261720   0.893   2.306   2.074  0.0363  0.0820  0.4019
13410TIP3    H161721   0.865   2.379   2.019  2.0495  0.6286  0.0216
13410TIP3    H261722   0.966   2.341   2.126  1.3379 -1.7361 -0.0958
13411TIP3   OH261723   1.923   0.920  14.458  0.3705  0.8848  0.0135
13411TIP3    H161724   2.006   0.893  14.418 -0.3606 -0.0020 -0.9515
13411TIP3    H261725   1.936   0.905  14.552  0.8484 -0.5585 -0.2606
13412TIP3   OH261726   5.820   0.026  12.743  0.0120  0.2867  0.0016
13412TIP3    H161727   5.778   0.034  12.828  0.6879  0.6197  0.3143
13412TIP3    H261728   5.808   0.112  12.702 -1.1762 -0.1721 -0.6626
13413TIP3   OH261729   3.172   0.274   0.166 -0.3071 -0.0754 -0.5281
13413TIP3    H161730   3.135   0.246   0.082 -1.0103  3.9476 -1.8059
13413TIP3    H261731   3.098   0.272   0.226 -0.2752 -1.0453 -0.4990
13414TIP3   OH261732   3.684   3.072   5.642 -0.1604 -0.4432  0.1545
13414TIP3    H161733   3.636   2.989   5.646 -0.1051 -0.5556 -1.1479
13414TIP3    H261734   3.775   3.046   5.628  0.3914 -0.2400  2.8038
13415TIP3   OH261735   5.627   0.771  16.768  0.8276  1.1222 -0.7910
13415TIP3    H161736   5.556   0.796  16.709 -2.5921  0.8908  2.8464
13415TIP3    H261737   5.657   0.687  16.736 -2.5534 -0.1510 -0.9930
13416TIP3   OH261738   4.633   5.156   3.171 -0.2235 -0.5714 -0.2670
13416TIP3    H161739   4.647   5.062   3.159 -0.4153 -1.1970  3.4324
13416TIP3    H261740   4.556   5.175   3.117 -0.0707 -2.4510 -1.2464
13417TIP3   OH261741   4.134   1.966   5.555 -0.1175  0.5261  0.4626
13417TIP3    H161742   4.155   2.054   5.585  1.5122  0.1683  0.4603
13417TIP3    H261743   4.042   1.954   5.577 -0.4264  2.2985  0.2745
13418TIP3   OH261744   2.724   4.808  11.353  0.0866  0.0855 -0.2917
13418TIP3    H161745   2.820   4.804  11.363  0.0633 -0.4614 -0.2746
13418TIP3    H261746   2.711   4.845  11.266  0.3068  1.2538  0.1588
13419TIP3   OH261747   1.392   2.644  11.710 -0.2224 -0.1164 -0.3386
13419TIP3    H161748   1.432   2.582  11.649  0.2213  0.4413 -0.6266
13419TIP3    H261749   1.453   2.718  11.712 -0.4987  0.0971  0.3793
13420TIP3   OH261750   2.838   0.448  16.168 -0.0690  0.4278 -0.1625
13420TIP3    H161751   2.845   0.391  16.092  2.1056 -0.1482  0.3963
13420TIP3    H261752   2.860   0.535  16.135 -0.0234  0.3380 -0.3689
13421TIP3   OH261753   2.807   6.544   2.770 -0.4058  0.0462  0.1105
13421TIP3    H161754   2.860   6.608   2.818 -0.3703  1.4098 -1.6528
13421TIP3    H261755   2.786   6.477   2.835  1.4523  0.6924  1.4583
13422TIP3   OH261756   6.765   1.654   3.038  0.2081  0.3649 -0.1364
13422TIP3    H161757   6.805   1.690   3.117  0.4527  0.3448 -0.2505
13422TIP3    H261758   6.803   1.705   2.966  1.4081 -0.8363 -0.3964
13423TIP3   OH261759   0.228   1.790   0.688 -1.1373 -0.2725 -0.7052
13423TIP3    H161760   0.193   1.747   0.765 -0.2052 -1.0827 -0.7153
13423TIP3    H261761   0.166   1.860   0.669 -1.6006 -0.3336  0.5190
13424TIP3   OH261762   3.434   5.422  16.961 -0.4301  0.4273  0.3181
13424TIP3    H161763   3.402   5.352  16.903 -1.1020  0.6017  0.4725
13424TIP3    H261764   3.485   5.479  16.903 -0.0337 -0.0872  0.1546
13425TIP3   OH261765   3.178   0.328   4.080 -0.6105 -0.2530 -0.2123
13425TIP3    H161766   3.176   0.379   4.161 -0.7453 -0.5888 -0.0007
13425TIP3    H261767   3.270   0.302   4.070 -0.3448  0.9016 -0.8775
13426TIP3   OH261768   2.799   0.735   2.285 -0.0275 -0.2551  0.2107
13426TIP3    H161769   2.813   0.651   2.330  0.3362  0.2582  1.0908
13426TIP3    H261770   2.887   0.771   2.276 -0.0722 -0.4628 -1.1689
13427TIP3   OH261771   4.794   4.166  15.139  0.0942 -0.1061 -0.8241
13427TIP3    H161772   4.710   4.212  15.134 -0.4269 -1.0492 -0.8951
13427TIP3    H261773   4.776   4.087  15.190  1.2554  0.3427  0.3443
13428TIP3   OH261774   3.315   5.689  11.992  0.5785 -0.1860  0.0173
13428TIP3    H161775   3.322   5.781  11.967 -1.1080  0.3481  1.2916
13428TIP3    H261776   3.222   5.677  12.012  0.4530 -2.5867 -1.5648
13429TIP3   OH261777   1.272   0.728   5.440  0.2608  0.6126  0.0572
13429TIP3    H161778   1.252   0.716   5.347  2.3389 -1.9202 -0.1808
13429TIP3    H261779   1.359   0.770   5.439  1.0394 -0.9131  0.7724
13430TIP3   OH261780   6.183   3.396  15.501  0.4912  0.5899 -0.3056
13430TIP3    H161781   6.138   3.480  15.506  0.5736  0.7312 -1.5482
13430TIP3    H261782   6.124   3.334  15.544  0.1169  1.1498  0.0008
13431TIP3   OH261783   4.335   6.800  15.921  0.4986 -0.6695 -0.1382
13431TIP3    H161784   4.377   6.833  16.002  0.3768  0.6298 -0.5758
13431TIP3    H261785   4.384   6.721  15.900  0.6667 -0.9269  1.0972
13432TIP3   OH261786   1.280   1.455  14.361  0.0981  0.0837 -0.7553
13432TIP3    H161787   1.228   1.535  14.352 -2.6618 -1.6667 -1.6985
13432TIP3    H261788   1.260   1.422  14.448  0.1344 -0.3018 -0.8904
13433TIP3   OH261789   4.780   3.846  16.204 -0.4012 -0.2440  0.0545
13433TIP3    H161790   4.749   3.839  16.294  0.7450  1.4107  0.6397
13433TIP3    H261791   4.783   3.756  16.171 -1.1749 -0.8369  1.5379
13434TIP3   OH261792   0.425   1.984   4.987  0.0099  0.6648 -0.2732
13434TIP3    H161793   0.433   1.950   4.898 -1.0445  1.9626 -0.8971
13434TIP3    H261794   0.332   1.974   5.008  0.2107  0.5743  0.6115
13435TIP3   OH261795   2.383   0.458  12.545  0.4768  0.5320  0.0042
13435TIP3    H161796   2.429   0.462  12.461 -1.3600 -0.0482 -1.0817
13435TIP3    H261797   2.309   0.400  12.529  0.6826 -0.4901  2.3506
13436TIP3   OH261798   1.639   4.984   1.778 -0.6015 -0.0707  0.5017
13436TIP3    H161799   1.713   4.926   1.799 -1.2225 -0.7507  0.8803
13436TIP3    H261800   1.568   4.924   1.756 -0.7247  0.5971 -0.9966
13437TIP3   OH261801   5.980   3.898  13.444 -0.0910 -0.0637 -0.3618
13437TIP3    H161802   6.010   3.975  13.492  0.5274 -0.7983  0.4555
13437TIP3    H261803   5.895   3.878  13.482  1.1767 -1.7376  1.7995
13438TIP3   OH261804   3.840   4.656   5.177 -0.5156  0.1966  0.2948
13438TIP3    H161805   3.887   4.659   5.261  0.9789 -0.2531 -0.4869
13438TIP3    H261806   3.891   4.595   5.124 -1.6238  0.2340 -0.8424
13439TIP3   OH261807   1.801   1.836  16.053  0.0986  0.2918  0.5324
13439TIP3    H161808   1.750   1.893  16.111  2.0050  2.0522  0.5759
13439TIP3    H261809   1.866   1.796  16.110  0.1820 -0.1931  0.0971
13440TIP3   OH261810   0.803   5.567   1.247 -0.4409 -0.1912 -0.2456
13440TIP3    H161811   0.873   5.516   1.288 -0.1209 -0.0720 -0.6392
13440TIP3    H261812   0.845   5.647   1.217 -1.1330  0.7937  1.2644
13441TIP3   OH261813   0.032   2.873   1.014  0.0161  0.5988  0.3932
13441TIP3    H161814   0.121   2.841   1.002 -0.4474 -0.9255  0.6867
13441TIP3    H261815   0.039   2.942   1.080  1.0017  0.6874  0.2035
13442TIP3   OH261816   2.453   6.367   3.617  0.7166  0.6594  0.8014
13442TIP3    H161817   2.449   6.329   3.529 -1.6365  2.9415 -0.1778
13442TIP3    H261818   2.431   6.294   3.676 -0.8992 -0.1807 -0.7682
13443TIP3   OH261819   5.500   6.561  10.769 -0.2463  0.2435  0.0226
13443TIP3    H161820   5.511   6.506  10.847 -0.1407 -0.8160 -0.7284
13443TIP3    H261821   5.484   6.500  10.698 -0.1074  1.1884 -0.8472
13444TIP3   OH261822   0.857   2.321  14.743 -0.2987  0.6659 -0.1984
13444TIP3    H161823   0.767   2.289  14.736  0.1800 -0.9175  0.6011
13444TIP3    H261824   0.911   2.251  14.708  0.8134  0.3056  2.0414
13445TIP3   OH261825   6.139   3.200   3.080 -0.2349  0.2670 -0.0991
13445TIP3    H161826   6.112   3.279   3.033  1.7680  0.7939 -0.4640
13445TIP3    H261827   6.076   3.193   3.152 -0.7973  1.8876 -0.3780
13446TIP3   OH261828   2.397   0.931  11.378  0.4813  0.4417  0.6095
13446TIP3    H161829   2.344   0.852  11.390 -1.2114  1.4317  0.0306
13446TIP3    H261830   2.481   0.899  11.346 -0.4851 -1.0792 -0.5290
13447TIP3   OH261831   4.037   6.547  16.515 -0.2316 -0.2331 -0.4498
13447TIP3    H161832   4.001   6.497  16.589  2.4089  0.1370  1.2196
13447TIP3    H261833   4.106   6.601  16.554 -0.0515  1.4794 -2.9118
13448TIP3   OH261834   1.648   3.164  11.704 -0.6322 -0.0137 -0.2230
13448TIP3    H161835   1.577   3.137  11.645  0.1389 -0.8572 -0.7850
13448TIP3    H261836   1.691   3.082  11.728 -1.1653  0.2743  1.8414
13449TIP3   OH261837   2.213   5.884  12.599  0.1226 -0.1325 -0.1485
13449TIP3    H161838   2.221   5.835  12.680 -0.2730  2.7666  1.7818
13449TIP3    H261839   2.159   5.828  12.542 -0.1760 -1.9495  1.8039
13450TIP3   OH261840   4.258   6.144  16.789  0.3060  0.2631 -0.2523
13450TIP3    H161841   4.169   6.131  16.756  0.8924 -1.2546 -1.3740
13450TIP3    H261842   4.281   6.060  16.830  1.7864  0.0122 -1.4851
13451TIP3   OH261843   1.960   0.240   5.107  0.7420  0.6253 -0.2480
13451TIP3    H161844   1.900   0.285   5.167  0.0994 -1.3971  0.7201
13451TIP3    H261845   2.039   0.294   5.108  0.1956  1.4684  1.2452
13452TIP3   OH261846   6.238   4.601   4.457  0.4053 -0.1261  0.1020
13452TIP3    H161847   6.172   4.658   4.497  0.8194 -0.2967  1.0634
13452TIP3    H261848   6.302   4.586   4.526  0.4182 -1.5949 -0.1864
13453TIP3   OH261849   2.231   2.269  13.261  0.6665 -0.4565  0.5486
13453TIP3    H161850   2.287   2.300  13.332  0.9122 -0.2590  0.2734
13453TIP3    H261851   2.276   2.296  13.181 -0.7486  1.4135  0.3100
13454TIP3   OH261852   6.361   1.175   5.797 -0.2987  0.2663  0.1211
13454TIP3    H161853   6.361   1.270   5.805 -0.5683  0.2457  0.3965
13454TIP3    H261854   6.296   1.156   5.730 -1.9327  0.1606  1.6857
13455TIP3   OH261855   2.235   2.971  15.965 -0.0473  0.7459 -0.3211
13455TIP3    H161856   2.149   2.950  16.001 -0.2269  1.1946 -0.4893
13455TIP3    H261857   2.295   2.956  16.038 -0.2619  0.4166 -0.2076
13456TIP3   OH261858   4.602   2.056  16.053  0.6112  0.7225 -0.1854
13456TIP3    H161859   4.671   2.088  16.111  1.9006 -0.4543 -1.0180
13456TIP3    H261860   4.646   1.994  15.995 -1.0063  0.5051 -1.2409
13457TIP3   OH261861   3.474   3.392   2.983 -0.0108  0.0889  0.3905
13457TIP3    H161862   3.388   3.357   2.959  0.2615  0.1497 -0.7433
13457TIP3    H261863   3.522   3.316   3.016 -0.9000  0.2951  2.2777
13458TIP3   OH261864   1.871   2.750  15.265  0.0093 -0.2314  0.0870
13458TIP3    H161865   1.778   2.747  15.244 -0.6185  0.3800  2.4817
13458TIP3    H261866   1.879   2.698  15.345  1.7651 -0.3871 -0.1482
13459TIP3   OH261867   0.699   1.116  13.288  0.3771 -0.2358 -0.2032
13459TIP3    H161868   0.660   1.197  13.318  0.8167  0.1203 -0.5800
13459TIP3    H261869   0.680   1.113  13.194 -0.3284 -0.9670 -0.0561
13460TIP3   OH261870   3.542   0.025   3.060 -0.2606 -0.0766  0.6919
13460TIP3    H161871   3.503   0.054   3.142 -3.2962  0.5346 -0.8007
13460TIP3    H261872   3.507  -0.063   3.046  1.3712 -0.7644  0.6784
13461TIP3   OH261873   6.713   0.629   1.149 -0.1450  0.6178  0.2672
13461TIP3    H161874   6.741   0.697   1.211 -0.2998  1.3366 -0.4371
13461TIP3    H261875   6.677   0.677   1.075  1.6976 -0.1388 -1.2096
13462TIP3   OH261876   3.185   2.963  16.668  0.3454  0.0562 -0.0837
13462TIP3    H161877   3.176   2.914  16.750 -0.3486 -0.5763 -0.5263
13462TIP3    H261878   3.205   3.052  16.696 -0.2272 -0.0731  0.7903
13463TIP3   OH261879   5.166   6.529  14.017  0.4362 -0.6630 -0.3341
13463TIP3    H161880   5.215   6.590  13.962 -1.8027  1.0372 -0.5707
13463TIP3    H261881   5.171   6.566  14.105  0.4055 -1.0122 -0.1858
13464TIP3   OH261882   3.397   2.336   4.243  0.3827  0.1652 -0.2024
13464TIP3    H161883   3.346   2.414   4.265  0.1298  0.2975 -1.2424
13464TIP3    H261884   3.486   2.356   4.275 -0.0139  0.2463  0.9062
13465TIP3   OH261885   2.242   0.060  11.628  0.5166  0.7376 -0.0422
13465TIP3    H161886   2.313   0.061  11.692  0.9811 -2.2268 -0.3958
13465TIP3    H261887   2.276   0.007  11.556 -1.0674  1.5965 -1.4850
13466TIP3   OH261888   1.042   5.730   3.750 -0.2663  0.1136 -0.3867
13466TIP3    H161889   1.093   5.808   3.727 -1.1641  1.3202  1.4928
13466TIP3    H261890   1.048   5.674   3.672  1.6205  1.3910 -1.2365
13467TIP3   OH261891   4.438   2.584  16.988 -0.2284 -0.9773  0.3449
13467TIP3    H161892   4.408   2.519  16.924  1.8575 -0.0207 -1.7363
13467TIP3    H261893   4.489   2.533  17.051  0.4098 -1.5498 -0.6089
13468TIP3   OH261894   6.062   3.857  16.758 -0.1119  0.6466 -0.1246
13468TIP3    H161895   6.001   3.903  16.815 -0.3032  2.5311 -1.7250
13468TIP3    H261896   6.006   3.805  16.700 -0.1324  1.0075 -0.4409
13469TIP3   OH261897   3.545   3.382   0.775 -0.3766  0.0897  0.5112
13469TIP3    H161898   3.573   3.348   0.860 -0.0555  1.2195  0.8897
13469TIP3    H261899   3.580   3.472   0.773  0.0858 -0.0916 -1.0382
13470TIP3   OH261900   4.819   2.558   2.482 -0.0202 -1.0707  0.4718
13470TIP3    H161901   4.760   2.495   2.440 -1.4554 -1.1348  2.4352
13470TIP3    H261902   4.761   2.618   2.528  1.4038  0.3644  0.4716
13471TIP3   OH261903   0.142   1.486  12.532  0.2694  0.1931  0.3904
13471TIP3    H161904   0.188   1.505  12.450  0.4196 -0.2773  0.3664
13471TIP3    H261905   0.055   1.525  12.520  0.2750  0.0862 -0.0099
13472TIP3   OH261906   1.229   1.693  15.849  0.0751 -0.2019  0.2763
13472TIP3    H161907   1.178   1.750  15.907 -0.5658 -0.4678 -0.0164
13472TIP3    H261908   1.166   1.666  15.781  0.9359  0.5211 -0.8397
13473TIP3   OH261909   4.746   6.372  16.823  0.3429 -0.3475 -0.3024
13473TIP3    H161910   4.751   6.313  16.748 -3.2384 -1.6632  0.2920
13473TIP3    H261911   4.707   6.452  16.789 -1.3368 -0.9654  0.0766
13474TIP3   OH261912   6.713   4.707  12.447 -0.4248  0.5477 -0.1156
13474TIP3    H161913   6.789   4.675  12.495 -0.3181 -0.1033 -0.6958
13474TIP3    H261914   6.749   4.767  12.382 -0.5574  1.3374  0.5193
13475TIP3   OH261915   0.483   0.261   0.660  0.6008 -0.4397  0.0802
13475TIP3    H161916   0.558   0.241   0.716  1.4765  1.7445 -0.2336
13475TIP3    H261917   0.475   0.184   0.604  3.5495 -0.2215 -0.8324
13476TIP3   OH261918   6.563   0.980  10.239 -0.3686  0.3716 -0.3329
13476TIP3    H161919   6.507   1.017  10.307 -1.5077  0.2676 -1.1844
13476TIP3    H261920   6.544   1.032  10.161 -2.1391 -2.0098 -1.6137
13477TIP3   OH261921   1.400   1.091   2.355 -0.2850  0.5086  0.0572
13477TIP3    H161922   1.448   1.169   2.382 -0.5500  1.3659 -1.7796
13477TIP3    H261923   1.466   1.036   2.312 -0.5257  0.8126 -0.7336
13478TIP3   OH261924   2.846   6.163   0.965 -0.3825  0.1784  0.0690
13478TIP3    H161925   2.860   6.110   0.887 -0.8501  0.9534 -0.5536
13478TIP3    H261926   2.752   6.183   0.965 -0.1038  1.5523 -0.0769
13479TIP3   OH261927   1.276   1.636   4.532  0.0123  0.3278  0.0920
13479TIP3    H161928   1.364   1.658   4.562  1.0726 -0.3190 -2.3232
13479TIP3    H261929   1.272   1.669   4.442 -0.8810 -2.7651 -1.1403
13480TIP3   OH261930   1.414   2.355  14.657  0.5192 -0.1153 -0.4774
13480TIP3    H161931   1.409   2.361  14.752  1.7933  0.3703 -0.4163
13480TIP3    H261932   1.324   2.367  14.627  0.3437  1.5605  0.5979
13481TIP3   OH261933   6.372   1.544  13.359 -0.5036  0.3794  0.3532
13481TIP3    H161934   6.376   1.614  13.295 -1.7556  0.0016 -0.1671
13481TIP3    H261935   6.321   1.580  13.432 -1.1411  0.0190  0.0888
13482TIP3   OH261936   0.111   1.585   0.113  0.0861 -0.2738 -0.0972
13482TIP3    H161937   0.197   1.615   0.084  0.2848 -0.0068  0.7216
13482TIP3    H261938   0.129   1.530   0.189 -0.5662  1.9981  1.8493
13483TIP3   OH261939   2.745   6.213   1.872 -0.5616  0.5609 -0.1347
13483TIP3    H161940   2.832   6.253   1.883  0.3169 -1.1637 -0.4787
13483TIP3    H261941   2.716   6.244   1.786 -0.0377  0.7237 -0.2623
13484TIP3   OH261942   6.011   2.364   2.500 -0.7967  0.1987 -0.0640
13484TIP3    H161943   6.103   2.358   2.528 -0.0717  1.6793 -1.8848
13484TIP3    H261944   5.976   2.440   2.548 -0.2977  1.1677 -1.1759
13485TIP3   OH261945   6.151   6.481   0.248 -0.0631 -0.2257 -0.4188
13485TIP3    H161946   6.155   6.575   0.268  0.1038  0.0963 -1.8396
13485TIP3    H261947   6.168   6.438   0.332  0.0928  1.0117  0.2135
13486TIP3   OH261948   6.633   3.639   3.651 -0.2887 -0.0729  0.0646
13486TIP3    H161949   6.642   3.552   3.612  1.3443  0.1204 -0.0648
13486TIP3    H261950   6.712   3.651   3.704 -0.2226  1.5307 -0.3271
13487TIP3   OH261951   2.470   6.691  13.962  0.2909  0.2206 -0.1776
13487TIP3    H161952   2.414   6.662  13.890 -2.2320  3.0190  0.4428
13487TIP3    H261953   2.456   6.626  14.031 -2.0253  0.6803 -0.1590
13488TIP3   OH261954   4.710   4.150   5.043  0.1151  0.2778 -0.6002
13488TIP3    H161955   4.654   4.172   4.969  0.6340  1.0740 -0.7651
13488TIP3    H261956   4.792   4.197   5.027  0.6116 -0.3721 -0.0509
13489TIP3   OH261957   0.594   2.697  15.910  0.1045  0.1873  0.3866
13489TIP3    H161958   0.668   2.678  15.853  0.9277  1.0291  1.1487
13489TIP3    H261959   0.583   2.792  15.906  0.3650  0.3020  1.8268
13490TIP3   OH261960   4.518   5.037  13.078  0.3212 -0.2167 -0.0293
13490TIP3    H161961   4.521   5.097  13.004 -0.1969  0.4197  0.4518
13490TIP3    H261962   4.556   4.956  13.045 -0.4735 -0.1418 -1.1720
13491TIP3   OH261963   5.808   5.600  17.018 -0.1486  0.0508  0.1474
13491TIP3    H161964   5.837   5.551  17.095  0.8012  0.6170  0.1662
13491TIP3    H261965   5.886   5.648  16.990 -1.0521  1.5862  0.1622
13492TIP3   OH261966   6.818   0.434  14.152 -0.2159  0.0084 -0.7356
13492TIP3    H161967   6.738   0.381  14.151 -1.0245  1.1691  0.3209
13492TIP3    H261968   6.788   0.524  14.157  1.1606  0.5668 -1.7832
13493TIP3   OH261969   4.294   4.306  13.695  0.3327  0.2584 -0.5166
13493TIP3    H161970   4.309   4.240  13.627 -1.3313 -0.0019 -0.6946
13493TIP3    H261971   4.299   4.257  13.777 -1.5992 -0.3284 -0.6729
13494TIP3   OH261972   2.803   0.038   4.218 -0.3953 -0.1026  0.6834
13494TIP3    H161973   2.764  -0.026   4.157 -2.0550 -0.1561  1.7327
13494TIP3    H261974   2.742   0.111   4.218  2.0967  2.1986 -1.4758
13495TIP3   OH261975   0.966   0.439  17.155  0.1156  0.0667  0.1570
13495TIP3    H161976   1.002   0.528  17.157  1.8391 -0.6179  1.2453
13495TIP3    H261977   0.882   0.447  17.200 -0.4579  1.3916 -1.0462
13496TIP3   OH261978   6.580   4.971   3.360 -0.3067 -0.2458  0.6220
13496TIP3    H161979   6.673   4.959   3.340 -0.2963 -0.2285  0.6599
13496TIP3    H261980   6.534   4.936   3.284 -0.2362  1.6770 -0.3790
13497TIP3   OH261981   5.044   4.475  15.381  0.0544 -0.2347  0.4328
13497TIP3    H161982   4.998   4.392  15.390  0.2900 -0.3635  0.4616
13497TIP3    H261983   5.133   4.457  15.413  0.0661  0.0639  0.5727
13498TIP3   OH261984   2.979   4.143  11.296  0.2349  0.0656  0.2038
13498TIP3    H161985   2.955   4.069  11.241 -0.1452  0.2721  0.0912
13498TIP3    H261986   2.907   4.205  11.286  0.8666  0.7447 -0.2322
13499TIP3   OH261987   2.109   5.946   6.339  0.3327 -0.2020 -0.2376
13499TIP3    H161988   2.045   5.882   6.370 -0.8678  1.4242  0.7591
13499TIP3    H261989   2.064   5.994   6.270  0.3778  1.0838  0.6058
13500TIP3   OH261990   2.168   6.262   5.065  0.0488  0.4207  0.2498
13500TIP3    H161991   2.086   6.235   5.106 -0.0778  0.3032 -0.0811
13500TIP3    H261992   2.154   6.352   5.039  0.8266  1.2070  2.3031
13501TIP3   OH261993   6.300   1.900  11.257 -0.5324 -0.1652 -0.0154
13501TIP3    H161994   6.311   1.939  11.170  1.0061 -0.5495 -0.0140
13501TIP3    H261995   6.222   1.944  11.292  0.7168  2.4708 -0.2761
13502TIP3   OH261996   1.793   4.946  12.404 -0.0229 -0.2686  0.0507
13502TIP3    H161997   1.809   4.923  12.313  0.9472 -0.9442  0.3739
13502TIP3    H261998   1.871   4.995  12.431 -0.0601 -0.5188  0.6476
13503TIP3   OH261999   4.602   4.226  16.882 -0.4341  0.8209  0.5930
13503TIP3    H162000   4.602   4.322  16.881  0.5331  0.8299  0.0245
13503TIP3    H262001   4.578   4.202  16.793 -4.1782  0.4565  1.5314
13504TIP3   OH262002   2.928   2.345  13.491 -0.2596 -0.1118 -0.5212
13504TIP3    H162003   2.946   2.292  13.569 -1.4594 -0.3409 -0.3817
13504TIP3    H262004   2.987   2.309  13.424 -2.9650 -3.7107 -1.2944
13505TIP3   OH262005   2.884   0.400  16.437 -0.3225 -0.0004 -0.3938
13505TIP3    H162006   2.878   0.398  16.342 -1.0343 -0.9917 -0.3350
13505TIP3    H262007   2.947   0.331  16.458  0.1130  0.4598 -0.1518
13506TIP3   OH262008   0.240   2.888  16.511 -0.0521  0.3659  0.4620
13506TIP3    H162009   0.272   2.892  16.601  0.2796  0.9976  0.3251
13506TIP3    H262010   0.319   2.873  16.459  0.3342  3.4158 -0.0173
13507TIP3   OH262011   0.713   0.167   5.468  0.0032 -0.8210  0.0274
13507TIP3    H162012   0.722   0.072   5.458  1.2082 -0.6918 -0.1803
13507TIP3    H262013   0.767   0.204   5.399 -1.3494  0.0391 -0.6091
13508TIP3   OH262014   0.530   0.929  14.580 -0.1959  0.5526  0.5590
13508TIP3    H162015   0.526   0.840  14.546 -1.0434  0.2817  1.3137
13508TIP3    H262016   0.443   0.965  14.561 -0.0552  1.0139  0.7831
13509TIP3   OH262017   0.195   2.561  14.465 -0.5636 -0.8390  0.1612
13509TIP3    H162018   0.282   2.529  14.489 -1.3151 -4.4610 -1.2819
13509TIP3    H262019   0.199   2.576  14.371 -1.4611 -0.9366  0.0961
13510TIP3   OH262020   4.479   5.328  15.969 -0.0493  0.1896  0.2234
13510TIP3    H162021   4.500   5.278  15.891 -0.6674  0.2010  0.0415
13510TIP3    H262022   4.564   5.355  16.004  0.3736 -2.0158  1.0254
13511TIP3   OH262023   3.684   5.456  13.892  0.3262 -0.3261 -0.2982
13511TIP3    H162024   3.726   5.473  13.976 -2.1114  0.8430  0.7875
13511TIP3    H262025   3.693   5.362  13.879  0.9212 -0.5015  1.1484
13512TIP3   OH262026   6.266   0.929  16.338  0.4663 -0.0190  0.2973
13512TIP3    H162027   6.200   0.983  16.295  0.7762  0.4121  0.3665
13512TIP3    H262028   6.310   0.987  16.399  0.6867 -0.3909  0.4976
13513TIP3   OH262029   4.570   4.198   5.305 -0.0452 -0.7860 -0.2282
13513TIP3    H162030   4.609   4.125   5.257  0.0478  0.5521 -2.3039
13513TIP3    H262031   4.505   4.234   5.244  1.1989  1.9842 -0.0642
13514TIP3   OH262032   1.542   1.300   2.938  0.0107  0.3933 -0.5009
13514TIP3    H162033   1.580   1.213   2.953 -1.6073 -0.5429 -1.4890
13514TIP3    H262034   1.532   1.337   3.026  0.3714 -0.5724 -0.0375
13515TIP3   OH262035   0.742   6.440  17.235 -0.0257  0.0865 -0.4750
13515TIP3    H162036   0.765   6.501  17.164  0.1343 -0.6647 -1.0802
13515TIP3    H262037   0.819   6.440  17.292 -0.5057  1.4060  0.2386
13516TIP3   OH262038   6.089   3.131  14.849 -0.2540 -0.1912  0.3731
13516TIP3    H162039   6.129   3.149  14.934 -1.1368 -2.6524  1.4094
13516TIP3    H262040   6.111   3.040  14.830 -0.3072  0.2023 -1.9399
13517TIP3   OH262041   0.945   6.283  13.080  0.1831 -0.1849  0.0116
13517TIP3    H162042   0.899   6.341  13.019  0.1998 -0.4833 -0.2887
13517TIP3    H262043   0.987   6.217  13.024 -0.1881 -0.7361  0.3712
13518TIP3   OH262044   0.761   5.867  15.873  0.1272  0.0500 -0.6359
13518TIP3    H162045   0.834   5.813  15.844  1.5252  0.9279  1.0973
13518TIP3    H262046   0.771   5.949  15.824  0.7490  0.4241  0.0873
13519TIP3   OH262047   0.976   2.121  11.177  0.7326  0.3188  0.0315
13519TIP3    H162048   1.021   2.039  11.198 -2.3363 -1.3928  0.4075
13519TIP3    H262049   0.891   2.115  11.220 -1.0453  2.1113 -2.8237
13520TIP3   OH262050   4.382   5.651  13.991 -0.2439 -0.0634 -0.1459
13520TIP3    H162051   4.362   5.586  14.058 -0.0806 -1.7093 -1.6266
13520TIP3    H262052   4.325   5.627  13.917 -3.4841  4.0915  0.6306
13521TIP3   OH262053   1.902   0.628  10.690  0.4417 -0.3127  0.8007
13521TIP3    H162054   1.995   0.651  10.694  0.5195 -0.4565 -0.0126
13521TIP3    H262055   1.901   0.539  10.654 -0.0554  0.1247 -0.3090
13522TIP3   OH262056   2.670   3.216  16.864  0.7244 -0.3149 -0.0575
13522TIP3    H162057   2.614   3.161  16.918 -0.3923 -0.6371 -1.4797
13522TIP3    H262058   2.649   3.192  16.774  2.1058  0.6022 -0.6754
13523TIP3   OH262059   3.739   4.817   1.716 -0.9958 -0.6872  0.2997
13523TIP3    H162060   3.698   4.761   1.782 -0.0421 -0.3102  1.2452
13523TIP3    H262061   3.828   4.832   1.749 -0.1335 -1.3167 -1.5581
13524TIP3   OH262062   3.258   3.998  16.043  0.4597  0.4577 -0.4175
13524TIP3    H162063   3.179   3.962  16.004  1.1077 -0.5192 -0.8583
13524TIP3    H262064   3.297   4.053  15.974  1.2987 -0.8073 -0.9898
13525TIP3   OH262065   1.919   2.018   5.367  0.5924 -0.5135 -0.5031
13525TIP3    H162066   1.859   2.008   5.293  0.7238 -0.7885 -0.5729
13525TIP3    H262067   1.987   2.076   5.335 -0.4125  1.0253  0.0459
13526TIP3   OH262068   3.142   0.005   5.024  0.4952  0.7980  0.0739
13526TIP3    H162069   3.135  -0.077   5.073  1.8064 -0.4601 -1.7289
13526TIP3    H262070   3.236   0.022   5.019  0.4575  0.6115 -2.3491
13527TIP3   OH262071   3.144   5.361  12.556 -0.2829 -0.9489  0.2462
13527TIP3    H162072   3.146   5.422  12.630  2.7005 -2.0594  1.2306
13527TIP3    H262073   3.200   5.403  12.490 -2.4492 -0.2440 -1.2338
13528TIP3   OH262074   5.599   4.615  13.145  0.4534  0.1040  0.8252
13528TIP3    H162075   5.553   4.688  13.186 -0.7005  0.1343 -0.4418
13528TIP3    H262076   5.658   4.657  13.082 -0.2423 -0.0362  0.0657
13529TIP3   OH262077   3.723   3.777   2.061  0.0145  0.1773 -0.1106
13529TIP3    H162078   3.808   3.746   2.030 -0.1923 -1.0962  0.5408
13529TIP3    H262079   3.668   3.699   2.063 -0.5976  0.6139  1.3529
13530TIP3   OH262080   5.598   5.593   1.787  0.3090  0.0608 -0.6416
13530TIP3    H162081   5.532   5.567   1.851  0.4684 -2.0935 -1.2415
13530TIP3    H262082   5.552   5.654   1.729 -0.5636  0.1463  0.1197
13531TIP3   OH262083   4.318   0.432  14.802  0.0131 -0.3420  0.6859
13531TIP3    H162084   4.369   0.506  14.835  0.1323 -0.4451  0.7353
13531TIP3    H262085   4.232   0.442  14.843 -0.2538  0.2613  0.0132
13532TIP3   OH262086   0.655   5.285   0.248 -0.4219 -0.3952 -0.2577
13532TIP3    H162087   0.719   5.259   0.182  0.2744  2.0147 -0.6050
13532TIP3    H262088   0.689   5.367   0.284 -2.8273  0.4601  0.2356
13533TIP3   OH262089   5.432   1.663   3.319 -0.3584  1.1905 -0.0387
13533TIP3    H162090   5.399   1.751   3.300 -0.6510  1.3260  1.0691
13533TIP3    H262091   5.397   1.609   3.247  0.3798  2.0869 -1.1004
13534TIP3   OH262092   5.594   0.712   0.225  0.0047 -0.4590 -0.3120
13534TIP3    H162093   5.624   0.621   0.233 -0.2512 -0.5090  0.1653
13534TIP3    H262094   5.606   0.734   0.133  1.1638 -0.5900 -0.1999
13535TIP3   OH262095   2.947   2.452  12.302 -0.3306 -0.2361 -0.3183
13535TIP3    H162096   2.938   2.497  12.386  0.6341 -2.8705  1.3321
13535TIP3    H262097   2.927   2.361  12.322 -2.8659 -0.6047 -3.5875
13536TIP3   OH262098   3.697   3.696  11.932 -0.2999 -0.7380  0.5954
13536TIP3    H162099   3.750   3.647  11.994 -0.2322  0.1134  1.2371
13536TIP3    H262100   3.618   3.721  11.981  0.5615  1.5176  0.9778
13537TIP3   OH262101   6.072   4.793   1.148 -0.1737  0.3757 -0.0211
13537TIP3    H162102   6.081   4.839   1.232  1.9288  0.1181 -0.0527
13537TIP3    H262103   6.007   4.844   1.100 -0.8005  1.0183  1.4391
13538TIP3   OH262104   4.857   4.853   4.491  0.2050 -0.2835  0.0621
13538TIP3    H162105   4.809   4.807   4.560  0.9668 -0.3768  0.5481
13538TIP3    H262106   4.825   4.815   4.409 -0.0033 -0.8681  0.4093
13539TIP3   OH262107   2.369   3.263  14.128 -0.4670 -0.3078 -0.1838
13539TIP3    H162108   2.354   3.169  14.116  0.2946 -0.4343 -0.2134
13539TIP3    H262109   2.349   3.301  14.042 -0.0906 -0.5356 -0.3738
13540TIP3   OH262110   0.561   3.328   1.581  0.0852  0.6788  0.3114
13540TIP3    H162111   0.627   3.302   1.517 -0.0016 -1.0303  0.8665
13540TIP3    H262112   0.503   3.387   1.532  0.4782  0.0568 -0.9644
13541TIP3   OH262113   3.692   2.151   2.152 -0.0009  0.0521  0.7310
13541TIP3    H162114   3.687   2.227   2.210  0.3434 -1.1799  2.4940
13541TIP3    H262115   3.631   2.088   2.191 -0.3804 -0.5451 -0.7558
13542TIP3   OH262116   2.229   5.755   4.790  0.2120 -0.2687  0.5807
13542TIP3    H162117   2.314   5.723   4.758 -0.0903 -0.8081  0.3071
13542TIP3    H262118   2.181   5.777   4.711  1.4827  3.8467  0.7469
13543TIP3   OH262119   4.570   6.670  15.646  0.8561 -0.0115 -0.2681
13543TIP3    H162120   4.658   6.679  15.610  0.8514  0.1470 -0.2430
13543TIP3    H262121   4.577   6.707  15.734  1.0541 -1.0975  0.1919
13544TIP3   OH262122   1.783   1.341  17.185  0.5270  0.6154 -0.4243
13544TIP3    H162123   1.833   1.389  17.251  0.7860 -0.6564  0.3171
13544TIP3    H262124   1.799   1.249  17.204 -2.2657  0.1387 -0.0088
13545TIP3   OH262125   1.475   1.063  17.131 -0.1317 -0.1558 -0.2443
13545TIP3    H162126   1.495   0.987  17.076 -0.4813 -0.1105 -0.4372
13545TIP3    H262127   1.521   1.046  17.213  0.1383 -0.3745 -0.4356
13546TIP3   OH262128   4.705   2.750   2.714  0.3848 -1.2767 -0.8636
13546TIP3    H162129   4.799   2.762   2.697  0.4993 -2.9478 -1.6341
13546TIP3    H262130   4.702   2.711   2.801  0.4217 -1.3431 -0.8914
13547TIP3   OH262131   2.412   3.108   4.437  0.3301  0.1766 -0.2473
13547TIP3    H162132   2.330   3.156   4.419  0.4841  0.6637  0.3236
13547TIP3    H262133   2.476   3.177   4.455  0.0251 -0.2232  2.9539
13548TIP3   OH262134   4.361   6.683   0.762  0.5848 -0.6628  0.3329
13548TIP3    H162135   4.342   6.774   0.785  0.0199 -0.3221 -1.3875
13548TIP3    H262136   4.312   6.632   0.828 -1.0210  0.2724 -0.0737
13549TIP3   OH262137   3.728   4.006   5.541  0.1399  0.4417  0.3680
13549TIP3    H162138   3.815   3.970   5.525 -0.1408 -0.2127  0.2693
13549TIP3    H262139   3.686   4.008   5.455  0.2819  1.3758  0.3108
13550TIP3   OH262140   1.097   6.183   3.058  0.1986 -0.0871  0.3023
13550TIP3    H162141   1.070   6.190   3.150 -1.0758 -0.6662 -0.0133
13550TIP3    H262142   1.179   6.232   3.054 -0.3378  0.9798  1.4956
13551TIP3   OH262143   0.349   4.276   0.306 -0.1642  0.7690  0.1366
13551TIP3    H162144   0.328   4.353   0.360  1.4233 -0.1769  2.2726
13551TIP3    H262145   0.445   4.274   0.304 -0.1839 -0.3859 -1.0778
13552TIP3   OH262146   2.507   3.480   6.106  0.1074  0.1177  0.2685
13552TIP3    H162147   2.491   3.571   6.080 -0.9322  0.4839  2.0423
13552TIP3    H262148   2.592   3.459   6.068 -0.4969  1.1674 -1.8052
13553TIP3   OH262149   1.808   1.719  16.460  0.3245  0.2093 -0.0801
13553TIP3    H162150   1.771   1.707  16.547  1.4519 -0.4496  0.3248
13553TIP3    H262151   1.900   1.738  16.475  0.7703 -0.9667 -1.1501
13554TIP3   OH262152   3.281   1.952  12.741  0.1874 -0.3278  0.6565
13554TIP3    H162153   3.211   1.969  12.678  0.9783  1.4960  0.2102
13554TIP3    H262154   3.325   1.873  12.708 -0.2701 -0.2013 -0.2841
13555TIP3   OH262155   5.600   6.202  13.919  0.6486  0.4516  0.6409
13555TIP3    H162156   5.591   6.124  13.975  2.9712 -0.4302 -0.0888
13555TIP3    H262157   5.520   6.252  13.935  0.5129 -0.4800  3.5949
13556TIP3   OH262158   6.771   1.196   2.351  0.0914  0.0521 -0.9916
13556TIP3    H162159   6.813   1.117   2.385  3.2447  2.3122  1.0253
13556TIP3    H262160   6.793   1.196   2.258  0.4881 -1.1645 -0.9206
13557TIP3   OH262161   5.444   0.215   0.144  0.0873 -0.3342 -0.0989
13557TIP3    H162162   5.369   0.155   0.153  0.2685 -0.2569  3.1167
13557TIP3    H262163   5.495   0.178   0.072 -1.8376 -1.7533 -0.8241
13558TIP3   OH262164   5.327   1.403  12.529 -0.6059 -0.1746 -0.6593
13558TIP3    H162165   5.380   1.464  12.581 -1.2204  0.0438 -0.2858
13558TIP3    H262166   5.386   1.375  12.459  0.1189 -0.2051 -0.0472
13559TIP3   OH262167   2.393   5.169  12.232 -0.3941 -0.5950  0.3109
13559TIP3    H162168   2.390   5.230  12.306 -0.3184 -1.5213  1.1109
13559TIP3    H262169   2.425   5.087  12.271 -0.4547 -1.1277 -0.7345
13560TIP3   OH262170   4.519   1.120   2.268 -0.0514 -0.0314  0.0411
13560TIP3    H162171   4.513   1.199   2.214 -0.2537  0.0020  0.1129
13560TIP3    H262172   4.455   1.133   2.338  2.1026  1.1562  1.9250
13561TIP3   OH262173   5.570   6.250   5.393  0.0883  0.0747 -0.0657
13561TIP3    H162174   5.502   6.244   5.326 -0.0510  0.9235 -0.0158
13561TIP3    H262175   5.527   6.293   5.467  0.7738  1.0270 -0.1952
13562TIP3   OH262176   1.965   1.252   5.101  0.1180  0.5567  0.2353
13562TIP3    H162177   2.037   1.189   5.111 -0.4954 -0.0562  0.8762
13562TIP3    H262178   1.900   1.207   5.047 -0.1232  0.8131  0.3090
13563TIP3   OH262179   4.528   2.584   2.575  0.4693 -0.0365 -0.6703
13563TIP3    H162180   4.583   2.658   2.599  0.3330  0.2922 -1.3365
13563TIP3    H262181   4.441   2.607   2.608  0.3729  0.2214 -1.0929
13564TIP3   OH262182   0.831   5.659   0.143 -0.0151 -0.2037 -0.5880
13564TIP3    H162183   0.850   5.602   0.218 -0.4187 -0.5577 -0.7506
13564TIP3    H262184   0.736   5.664   0.141 -0.0555  3.4767  1.6738
13565TIP3   OH262185   6.338   0.326  12.823 -0.4043  0.1271 -0.1371
13565TIP3    H162186   6.344   0.243  12.777  0.4957  0.0039  0.1822
13565TIP3    H262187   6.401   0.318  12.895 -1.4043  0.5055  0.8084
13566TIP3   OH262188   0.583   4.951  16.522  0.1829  0.2843 -0.2381
13566TIP3    H162189   0.542   5.038  16.514 -0.4343 -0.0616 -0.9052
13566TIP3    H262190   0.531   4.906  16.588  0.1446  0.2199 -0.3115
13567TIP3   OH262191   5.072   3.370   5.567 -0.2197 -0.0324  0.0766
13567TIP3    H162192   4.997   3.388   5.511 -0.4203 -2.7625 -0.7085
13567TIP3    H262193   5.037   3.375   5.656 -1.0183  0.0253 -0.2321
13568TIP3   OH262194   3.790   2.412   2.945 -0.2115  0.2734  0.1166
13568TIP3    H162195   3.736   2.368   3.011 -0.9022 -0.4394 -0.8872
13568TIP3    H262196   3.769   2.367   2.864 -0.1544  1.7896 -0.7828
13569TIP3   OH262197   3.129   6.072   5.190  0.4941 -0.0050 -0.0376
13569TIP3    H162198   3.212   6.095   5.148  0.2965  2.6032  0.8534
13569TIP3    H262199   3.096   6.154   5.226 -1.7347 -1.2561  0.9945
13570TIP3   OH262200   5.846   3.229   4.749  0.2947 -0.3010  0.1142
13570TIP3    H162201   5.866   3.247   4.657 -1.3387  1.9544  0.1013
13570TIP3    H262202   5.929   3.244   4.795  0.5916  0.8875 -0.7577
13571TIP3   OH262203   5.371   1.052  15.235  0.3504  0.9776 -0.1897
13571TIP3    H162204   5.379   1.096  15.150  0.7296  0.7050 -0.2972
13571TIP3    H262205   5.308   1.105  15.283 -0.4482  0.7024 -0.9176
13572TIP3   OH262206   3.710   2.270   5.455 -0.6406 -0.2495  0.5721
13572TIP3    H162207   3.713   2.303   5.545  0.3945  0.5319  0.2777
13572TIP3    H262208   3.663   2.337   5.406 -1.2477 -0.6989  0.5373
13573TIP3   OH262209   4.222   3.594   0.881  0.7250  0.3231 -0.4912
13573TIP3    H162210   4.231   3.524   0.817  0.6848 -0.7079  0.6010
13573TIP3    H262211   4.311   3.624   0.896  0.8277 -0.0452 -0.3619
13574TIP3   OH262212   2.215   4.000   1.219 -0.2604  0.1290 -0.2387
13574TIP3    H162213   2.176   3.926   1.266  1.3854 -0.8992 -0.4162
13574TIP3    H262214   2.202   4.075   1.278 -1.1305 -0.4643  0.3538
13575TIP3   OH262215   2.833   3.786   0.499  0.2698  0.1442  0.7000
13575TIP3    H162216   2.834   3.878   0.527 -0.8776 -0.0711  1.4842
13575TIP3    H262217   2.906   3.747   0.547  0.0977  0.4155  1.1961
13576TIP3   OH262218   5.312   1.668   4.441  0.0965 -0.0665 -0.0422
13576TIP3    H162219   5.341   1.741   4.496  1.5904 -1.1409  0.6689
13576TIP3    H262220   5.301   1.596   4.502  2.4890 -1.5049 -1.1823
13577TIP3   OH262221   4.096   4.513  13.044 -0.0950 -0.1321 -0.4078
13577TIP3    H162222   4.027   4.561  13.089  0.3405  0.5802 -0.4893
13577TIP3    H262223   4.138   4.578  12.988 -0.8037 -1.0425 -2.0879
13578TIP3   OH262224   0.036   2.797   5.701  0.5887  0.0846  0.0826
13578TIP3    H162225   0.005   2.786   5.790 -0.6977  1.4770 -0.1416
13578TIP3    H262226   0.111   2.857   5.709  0.8624 -0.2833  0.2819
13579TIP3   OH262227   3.311   5.154  13.494  0.1119 -0.4042  0.3090
13579TIP3    H162228   3.313   5.236  13.544 -0.4492 -0.3721  0.2852
13579TIP3    H262229   3.354   5.090  13.552  1.1543  0.0409  0.0555
13580TIP3   OH262230   3.628   1.460  15.968 -0.4110  0.1093  0.4896
13580TIP3    H162231   3.723   1.463  15.961 -0.3844 -0.3218  0.6157
13580TIP3    H262232   3.608   1.504  16.050 -0.1720 -1.4331  1.4271
13581TIP3   OH262233   4.857   6.074  13.306  0.0254 -0.2832  0.9984
13581TIP3    H162234   4.831   6.110  13.390  3.0409 -0.2067  2.0272
13581TIP3    H262235   4.926   6.010  13.328  0.7834 -0.3756 -1.3712
13582TIP3   OH262236   4.473   5.604  14.251  0.0968 -0.0901 -0.3085
13582TIP3    H162237   4.556   5.587  14.294 -0.2061 -1.0434 -0.0669
13582TIP3    H262238   4.432   5.673  14.303  0.1455 -0.5777  0.3946
13583TIP3   OH262239   5.660   2.380   0.156  0.5029  0.3440 -0.4443
13583TIP3    H162240   5.723   2.331   0.209 -2.2927 -2.0583  0.9427
13583TIP3    H262241   5.651   2.463   0.201  0.9310 -0.2094  0.6960
13584TIP3   OH262242   0.940   5.228  15.711  0.0959 -0.0401 -0.4757
13584TIP3    H162243   0.910   5.292  15.646  0.8408 -0.7355 -1.5118
13584TIP3    H262244   0.953   5.281  15.790 -0.6390  0.8495 -0.9154
13585TIP3   OH262245   6.467   5.574  14.811 -0.1477  0.6395  0.2286
13585TIP3    H162246   6.460   5.648  14.751 -0.0533  0.9666  0.6147
13585TIP3    H262247   6.383   5.572  14.858 -0.7451 -0.4252 -0.8213
13586TIP3   OH262248   4.740   3.933  16.704  0.7261  0.2304  0.0931
13586TIP3    H162249   4.694   3.881  16.638  0.3172  0.3370  0.2863
13586TIP3    H262250   4.799   3.989  16.654 -1.5064  2.2747 -0.4334
13587TIP3   OH262251   3.117   6.174   1.022  0.4334 -0.0282  0.5139
13587TIP3    H162252   3.150   6.125   1.098 -0.7859  1.0648  1.7891
13587TIP3    H262253   3.023   6.157   1.022  0.4213 -0.0510 -0.8093
13588TIP3   OH262254   2.463   4.369  15.185  0.5344  0.4038  0.1056
13588TIP3    H162255   2.445   4.305  15.253 -0.7490  1.4973  0.8633
13588TIP3    H262256   2.551   4.348  15.154  0.9967 -0.3615  1.8204
13589TIP3   OH262257   0.259   5.377  15.706  0.0040  0.5654  0.4320
13589TIP3    H162258   0.326   5.399  15.771 -0.3435  0.3941  0.8573
13589TIP3    H262259   0.210   5.457  15.693 -1.5557  0.0020  2.3267
13590TIP3   OH262260   4.160   4.242  11.216  0.8675 -0.5076 -0.2188
13590TIP3    H162261   4.132   4.198  11.136 -1.0597 -0.2529  0.2691
13590TIP3    H262262   4.099   4.211  11.284 -0.8413  2.9900  0.1127
13591TIP3   OH262263   1.135   3.839  16.588 -0.1982 -0.3097 -0.0858
13591TIP3    H162264   1.220   3.834  16.544  0.6619 -1.5604  1.6027
13591TIP3    H262265   1.132   3.928  16.623 -0.1977  0.1729 -1.2562
13592TIP3   OH262266   0.229   1.866  16.834 -0.3471  0.6651  0.5583
13592TIP3    H162267   0.263   1.953  16.815 -0.0669  0.6175  0.8314
13592TIP3    H262268   0.282   1.835  16.908 -0.7425  0.4483  0.7577
13593TIP3   OH262269   2.628   6.304  14.125  0.2189 -0.5928 -0.0575
13593TIP3    H162270   2.709   6.334  14.085  0.6987 -1.0388  0.5641
13593TIP3    H262271   2.628   6.210  14.112 -1.5335 -0.3559 -2.4640
13594TIP3   OH262272   4.511   4.877  11.193 -0.1593 -0.2178 -0.0131
13594TIP3    H162273   4.503   4.848  11.284 -1.9678 -2.4188 -0.7886
13594TIP3    H262274   4.437   4.937  11.181  0.2683  0.3261  0.0369
13595TIP3   OH262275   6.374   0.442  14.044 -0.5080  0.4304 -0.2744
13595TIP3    H162276   6.412   0.503  13.981 -0.5992 -0.7362 -1.4934
13595TIP3    H262277   6.377   0.489  14.128  0.2186  1.7554 -1.0156
13596TIP3   OH262278   4.172   1.201  15.943 -0.0615 -0.4134  0.3251
13596TIP3    H162279   4.179   1.106  15.931 -0.7679 -0.3158 -0.9559
13596TIP3    H262280   4.214   1.238  15.866 -0.1539  0.3151  0.6203
13597TIP3   OH262281   4.563   6.598  11.681 -0.2208  0.6420  0.8499
13597TIP3    H162282   4.653   6.568  11.691  0.4957  2.7929  1.2541
13597TIP3    H262283   4.571   6.687  11.647 -2.2300  0.5793  0.0851
13598TIP3   OH262284   6.567   3.481  14.178  0.5308  0.1474  0.4781
13598TIP3    H162285   6.503   3.551  14.191  3.4356  2.9969  0.7766
13598TIP3    H262286   6.568   3.467  14.083 -0.9405 -0.4293  0.5265
13599TIP3   OH262287   0.188   3.807  16.594 -0.2229  0.0955 -0.3086
13599TIP3    H162288   0.117   3.770  16.541  0.4788  1.1983 -2.1114
13599TIP3    H262289   0.142   3.859  16.660 -1.1359 -1.7712  0.6084
13600TIP3   OH262290   1.265   3.750  14.128 -0.4782 -0.5753  0.1202
13600TIP3    H162291   1.248   3.745  14.034 -0.3131  0.1035  0.0438
13600TIP3    H262292   1.251   3.843  14.150  0.0066 -0.6216  0.6558
13601TIP3   OH262293   4.497   3.283  13.921  0.0088  0.4061 -0.2404
13601TIP3    H162294   4.463   3.300  13.833 -0.4328  0.4024 -0.0755
13601TIP3    H262295   4.427   3.314  13.979 -0.1567 -0.5779  0.0929
13602TIP3   OH262296   5.029   0.934  15.445  0.3638 -0.0711 -0.2439
13602TIP3    H162297   5.080   0.933  15.526  2.1632  0.1650 -1.3289
13602TIP3    H262298   4.984   0.849  15.444  2.3060 -1.1634 -0.1873
13603TIP3   OH262299   6.792   3.783  12.901 -0.0505 -0.1109 -0.0032
13603TIP3    H162300   6.884   3.803  12.881 -0.5075  0.8481 -1.2425
13603TIP3    H262301   6.795   3.748  12.990  1.9406 -3.4755 -1.2149
13604TIP3   OH262302   4.647   5.429   4.226  0.6230 -0.6512 -0.3735
13604TIP3    H162303   4.588   5.364   4.266 -0.1344  0.6445  0.6890
13604TIP3    H262304   4.731   5.382   4.217  0.2853 -1.5863  1.0009
13605TIP3   OH262305   6.227   2.110   3.497  0.4070 -0.1208 -0.3284
13605TIP3    H162306   6.214   2.192   3.451  0.0736 -0.4024 -0.7379
13605TIP3    H262307   6.143   2.064   3.490  0.4010 -0.2426  0.4044
13606TIP3   OH262308   6.091   3.716   1.854  0.2312 -0.3989  0.3781
13606TIP3    H162309   6.055   3.754   1.774  2.5389  1.4200  0.0634
13606TIP3    H262310   6.016   3.677   1.898 -1.4962  0.4093 -1.6396
13607TIP3   OH262311   6.440   1.114   6.053 -0.8909 -0.9605 -0.4955
13607TIP3    H162312   6.400   1.036   6.092 -1.4515  0.0723  1.0977
13607TIP3    H262313   6.422   1.106   5.960 -2.3310 -1.9408 -0.1705
13608TIP3   OH262314   6.233   6.301  17.020  0.0194 -0.2025 -0.2756
13608TIP3    H162315   6.153   6.307  17.072  0.0679  2.2746 -0.3692
13608TIP3    H262316   6.252   6.207  17.015 -2.3184 -0.7756  0.5732
13609TIP3   OH262317   4.290   5.850   5.705  0.1184 -0.2149  0.5957
13609TIP3    H162318   4.355   5.916   5.681 -1.7782  1.1697 -1.1151
13609TIP3    H262319   4.323   5.769   5.667 -0.8654  1.1815 -3.8605
13610TIP3   OH262320   3.023   0.553   5.665 -0.1302 -0.5113  0.4338
13610TIP3    H162321   3.068   0.487   5.612  0.9139 -0.2933  1.0111
13610TIP3    H262322   3.003   0.508   5.747 -0.5987 -0.4856  0.3335
13611TIP3   OH262323   1.390   2.214  16.673  0.4075 -0.0068 -0.1473
13611TIP3    H162324   1.443   2.275  16.622  0.9139 -0.2511  0.0696
13611TIP3    H262325   1.443   2.197  16.751  0.1480 -0.5119 -0.0787
13612TIP3   OH262326   5.938   5.002   5.075 -0.3935  0.2732 -1.1545
13612TIP3    H162327   5.976   4.925   5.116  0.3057 -0.0235 -2.3127
13612TIP3    H262328   5.920   5.062   5.148  0.3174 -0.4422 -0.3725
13613TIP3   OH262329   2.422   2.032   4.486  0.0784 -0.3484 -0.4055
13613TIP3    H162330   2.492   1.970   4.466  0.4256 -0.3576  0.7804
13613TIP3    H262331   2.462   2.118   4.473  0.2208 -0.3562 -0.0183
13614TIP3   OH262332   5.531   6.750  14.512  0.1585 -0.1409 -0.2602
13614TIP3    H162333   5.501   6.791  14.431  0.5513  1.7139  0.4764
13614TIP3    H262334   5.501   6.809  14.581  1.5322 -0.6307  0.7934
13615TIP3   OH262335   0.688   5.239   3.743  0.6299 -0.0959  0.1664
13615TIP3    H162336   0.625   5.309   3.757 -0.9705 -1.6332  1.0299
13615TIP3    H262337   0.736   5.265   3.664 -1.3433  0.9569 -0.7448
13616TIP3   OH262338   1.371   6.018   4.855  0.0384 -0.3895  0.8755
13616TIP3    H162339   1.350   6.013   4.948 -0.7854 -0.4233  0.6979
13616TIP3    H262340   1.445   6.078   4.849 -0.8493  0.7886  1.4125
13617TIP3   OH262341   2.011   0.072   1.261 -0.4015 -0.6062  0.7625
13617TIP3    H162342   1.918   0.093   1.251 -0.4375 -0.6674  0.9727
13617TIP3    H262343   2.044   0.140   1.319 -0.3600 -0.7109  0.8597
13618TIP3   OH262344   3.668   0.750   4.530 -0.5552  0.0936  0.2577
13618TIP3    H162345   3.598   0.813   4.512 -2.3340 -2.0626 -0.8009
13618TIP3    H262346   3.711   0.784   4.608 -2.1018  2.0582  0.3218
13619TIP3   OH262347   6.027   5.754  13.243 -0.1685  0.3664  0.4015
13619TIP3    H162348   5.992   5.766  13.331 -1.5997 -2.0509  0.2537
13619TIP3    H262349   6.120   5.771  13.251 -0.3151  0.4246  2.3406
13620TIP3   OH262350   5.923   1.765   2.700 -0.4170  0.2834  0.1124
13620TIP3    H162351   5.883   1.805   2.623  1.5588  2.2717  0.0169
13620TIP3    H262352   5.997   1.715   2.664  0.9428  1.7870  0.6838
13621TIP3   OH262353   6.353   5.387  15.114 -0.5489  0.5035 -0.4780
13621TIP3    H162354   6.298   5.456  15.077  0.6374  1.4146 -0.6061
13621TIP3    H262355   6.335   5.310  15.059 -0.9699  1.0443 -1.1081
13622TIP3   OH262356   1.062   6.031   2.232 -0.3427 -0.0378  0.0348
13622TIP3    H162357   1.108   6.054   2.151  0.0383  0.2894  0.3394
13622TIP3    H262358   1.128   6.042   2.301  0.6877 -4.4133  0.0099
13623TIP3   OH262359   0.056   4.844  14.875  0.3988  0.5286  0.7622
13623TIP3    H162360  -0.031   4.815  14.844  0.2895  2.1617 -0.5654
13623TIP3    H262361   0.037   4.898  14.951 -0.1430  3.5627 -1.3462
13624TIP3   OH262362   1.930   0.215  17.031 -0.3133 -0.0181  0.0032
13624TIP3    H162363   1.927   0.132  17.078 -1.5626  0.6909  1.2895
13624TIP3    H262364   2.011   0.212  16.980  0.6943 -1.2125  1.5691
13625TIP3   OH262365   0.508   2.630  15.256  0.3498 -0.6986  0.0749
13625TIP3    H162366   0.521   2.655  15.348 -2.2924  0.3212  0.2470
13625TIP3    H262367   0.528   2.537  15.254 -0.4420 -0.9579  1.9452
13626TIP3   OH262368   6.322   6.327   2.622  0.1070  0.6034  0.6115
13626TIP3    H162369   6.352   6.331   2.531 -0.0150  0.7458  0.5776
13626TIP3    H262370   6.303   6.418   2.645 -3.3100  0.2657 -0.3677
13627TIP3   OH262371   4.519   4.363   3.030  0.6325  0.0843  0.6226
13627TIP3    H162372   4.426   4.339   3.022  0.8164 -1.2667  2.0053
13627TIP3    H262373   4.565   4.296   2.980  0.8337  1.4948 -1.1637
13628TIP3   OH262374   6.400   3.340   4.318 -0.3821 -0.6084  0.4204
13628TIP3    H162375   6.463   3.287   4.269 -1.1257  1.6513 -3.3753
13628TIP3    H262376   6.434   3.429   4.314 -2.1673  0.1743  1.2487
13629TIP3   OH262377   1.894   6.156   4.298  0.3017 -0.1763  0.2071
13629TIP3    H162378   1.956   6.226   4.276  0.3498 -0.7114 -1.5657
13629TIP3    H262379   1.812   6.202   4.316  0.1330  0.3437 -1.6708
13630TIP3   OH262380   4.603   4.451  13.733  0.0743 -0.4860 -0.0950
13630TIP3    H162381   4.551   4.426  13.810  1.5114  0.1517  1.1258
13630TIP3    H262382   4.551   4.420  13.659 -2.1504  0.3071  1.0357
13631TIP3   OH262383   0.226   3.562   0.555  1.2992  0.2866 -0.3220
13631TIP3    H162384   0.251   3.471   0.573  1.1706 -0.2509 -2.6306
13631TIP3    H262385   0.138   3.569   0.590  1.6507 -0.1693  0.7177
13632TIP3   OH262386   6.728   1.339   5.576 -0.1117 -0.8028 -0.1389
13632TIP3    H162387   6.797   1.405   5.566 -0.8892  0.0373 -0.1033
13632TIP3    H262388   6.689   1.358   5.662 -1.6893  0.0254 -0.9911
13633TIP3   OH262389   4.884   0.467   4.275  0.1577  0.0211 -0.1842
13633TIP3    H162390   4.852   0.379   4.293  1.0352 -0.0422  1.2824
13633TIP3    H262391   4.869   0.481   4.182 -0.1946 -1.5906 -0.3833
13634TIP3   OH262392   3.150   2.569  11.493 -0.1859 -0.1422  0.5017
13634TIP3    H162393   3.192   2.650  11.465  2.0832 -1.0844  0.9386
13634TIP3    H262394   3.189   2.501  11.438 -0.1099 -1.2500  1.8689
13635TIP3   OH262395   2.594   0.629   4.051 -0.0730 -0.3475 -0.5073
13635TIP3    H162396   2.648   0.555   4.078 -1.2408 -1.0561 -0.0145
13635TIP3    H262397   2.587   0.621   3.956  1.5145  0.3575 -0.7049
13636TIP3   OH262398   6.341   2.421   1.041  0.5333  0.3005 -0.2534
13636TIP3    H162399   6.323   2.333   1.009 -2.1931  0.8833 -0.5569
13636TIP3    H262400   6.436   2.429   1.037  0.7050 -1.5633 -3.1531
13637TIP3   OH262401   2.362   1.550  12.210  0.4894  0.2822 -0.0411
13637TIP3    H162402   2.322   1.545  12.124  1.4108  0.2157 -0.4820
13637TIP3    H262403   2.396   1.640  12.216 -0.8402  0.7582  0.8543
13638TIP3   OH262404   2.672   0.074  13.160 -0.1496 -0.2181 -0.5164
13638TIP3    H162405   2.713   0.160  13.152  0.9507 -0.3987  2.0006
13638TIP3    H262406   2.623   0.079  13.242  0.8847 -2.3007  0.3071
13639TIP3   OH262407   4.263   5.122  13.581 -0.1407  0.5800  0.6118
13639TIP3    H162408   4.168   5.118  13.585 -0.2777  0.0013 -1.6285
13639TIP3    H262409   4.291   5.034  13.608 -0.4318 -0.1297 -1.2631
13640TIP3   OH262410   6.678   5.697   5.994 -0.3999  0.2389 -0.0867
13640TIP3    H162411   6.730   5.737   5.924 -0.6262  0.1992 -0.2822
13640TIP3    H262412   6.602   5.661   5.948  0.5357 -1.7713 -0.1452
13641TIP3   OH262413   3.108   6.466   1.357 -0.3701 -0.4380 -0.6341
13641TIP3    H162414   3.064   6.518   1.290 -0.6830 -2.7771 -2.3668
13641TIP3    H262415   3.185   6.430   1.313  0.5906 -0.3914  0.9180
13642TIP3   OH262416   4.257   0.956   5.931  0.0958  0.0567 -0.4804
13642TIP3    H162417   4.339   0.953   5.882  1.3161 -0.4399  1.4988
13642TIP3    H262418   4.276   1.011   6.007 -1.1308 -0.8071  0.4947
13643TIP3   OH262419   2.314   6.570   2.015  0.4016 -0.0398  0.1123
13643TIP3    H162420   2.397   6.537   1.982  0.7048 -0.0955  0.9244
13643TIP3    H262421   2.338   6.638   2.078 -0.1670  0.0239  0.2671
13644TIP3   OH262422   4.545   2.123   6.117  0.0122 -0.7717 -0.0296
13644TIP3    H162423   4.628   2.128   6.166 -0.6858  2.5315  1.0652
13644TIP3    H262424   4.506   2.040   6.145  2.2867 -1.7577  0.4695
13645TIP3   OH262425   2.295   1.443   6.079 -0.2254 -0.0126 -0.2150
13645TIP3    H162426   2.297   1.484   6.165  0.7592  0.4996 -0.4743
13645TIP3    H262427   2.245   1.504   6.025 -0.9632 -0.4005  0.0149
13646TIP3   OH262428   3.724   5.564  15.094  0.1994 -0.3843 -0.1167
13646TIP3    H162429   3.723   5.585  15.000 -0.9100  0.1782  0.0090
13646TIP3    H262430   3.685   5.477  15.099 -0.6091 -0.0252 -0.0962
13647TIP3   OH262431   1.063   6.369  16.890 -0.0143 -0.1803 -0.3326
13647TIP3    H162432   1.031   6.279  16.882  1.1171 -1.0902  3.3094
13647TIP3    H262433   0.987   6.423  16.870 -1.4195 -2.0180 -0.2535
13648TIP3   OH262434   3.739   1.839   7.053  0.2076  0.1645 -0.0524
13648TIP3    H162435   3.674   1.797   7.109 -3.1762  1.5823 -2.4898
13648TIP3    H262436   3.780   1.767   7.005 -1.0229 -0.7214  0.1735
13649TIP3   OH262437   2.603   6.418  15.613  0.2708 -0.2212  0.1905
13649TIP3    H162438   2.651   6.493  15.649 -1.3168 -0.3109  2.7378
13649TIP3    H262439   2.669   6.349  15.606  1.2665  0.7123 -0.0275
13650TIP3   OH262440   1.816   4.293  17.068  0.0077  0.4818  0.3871
13650TIP3    H162441   1.897   4.243  17.054  0.5416  1.5271 -0.4491
13650TIP3    H262442   1.810   4.303  17.163  1.0887  0.7356  0.4446
13651TIP3   OH262443   2.070   5.055  14.673 -0.3044 -0.4558  0.2774
13651TIP3    H162444   2.120   5.092  14.746  0.4246  0.3309 -0.6100
13651TIP3    H262445   1.997   5.010  14.716 -0.9231  1.5203  1.4317
13652TIP3   OH262446   2.032   1.985   0.997  0.2538 -0.0811 -0.1475
13652TIP3    H162447   1.957   1.999   0.939 -0.4621 -1.0682  0.5037
13652TIP3    H262448   2.105   2.030   0.954 -0.8322  1.3848 -0.5141
13653TIP3   OH262449   1.102   3.132  12.133 -0.8278 -0.2269 -0.1278
13653TIP3    H162450   1.070   3.172  12.214 -2.0010 -1.2820 -0.0361
13653TIP3    H262451   1.029   3.078  12.102  0.6901 -2.3864 -0.1655
13654TIP3   OH262452   0.414   5.655  11.134  0.5368  0.3205 -0.3991
13654TIP3    H162453   0.434   5.708  11.212  2.1921  0.3423 -0.7894
13654TIP3    H262454   0.365   5.713  11.076  0.1543  0.6157  0.2137
13655TIP3   OH262455   5.588   6.121  16.130  0.0084  0.0229  0.4728
13655TIP3    H162456   5.660   6.183  16.143 -0.1463  0.3912 -0.3515
13655TIP3    H262457   5.612   6.074  16.050 -1.3629  1.1788 -0.6727
13656TIP3   OH262458   4.587   2.536  12.104 -0.4401 -0.3263  0.2684
13656TIP3    H162459   4.539   2.606  12.061  0.0184  0.4683  1.0159
13656TIP3    H262460   4.628   2.487  12.033  0.8108  1.3231 -0.2047
13657TIP3   OH262461   4.798   1.700  14.195  0.2319 -0.6117  0.4638
13657TIP3    H162462   4.718   1.729  14.151 -0.2904 -1.7329  0.6414
13657TIP3    H262463   4.816   1.770  14.259 -0.9496 -0.6261  0.8361
13658TIP3   OH262464   3.767   5.673   1.808 -0.8511  0.2692  0.2529
13658TIP3    H162465   3.765   5.619   1.728 -0.1155  0.6473 -0.0339
13658TIP3    H262466   3.803   5.615   1.875 -2.3692 -0.3517  0.5638
13659TIP3   OH262467   2.396   1.368  15.745 -0.6280  0.4149  0.3422
13659TIP3    H162468   2.490   1.363  15.759 -0.6092  0.3488  0.1870
13659TIP3    H262469   2.367   1.437  15.805 -0.3478  1.1251 -0.3186
13660TIP3   OH262470   5.848   6.477   3.556 -0.0192 -0.6353 -0.2174
13660TIP3    H162471   5.769   6.530   3.562 -0.2520 -0.9591 -0.3838
13660TIP3    H262472   5.917   6.538   3.531 -0.8636 -0.8817 -3.6416
13661TIP3   OH262473   6.533   3.912   5.323  0.3082 -0.5574  0.3128
13661TIP3    H162474   6.556   3.941   5.412 -0.4775 -1.8024  0.9474
13661TIP3    H262475   6.603   3.852   5.299  0.6856  0.0234 -0.0362
13662TIP3   OH262476   6.169   0.848   2.526  0.1623 -0.2336  0.4706
13662TIP3    H162477   6.130   0.763   2.548 -0.8650  0.4371  1.3779
13662TIP3    H262478   6.095   0.899   2.492  0.8677  0.1580 -0.5130
13663TIP3   OH262479   6.379   2.849  14.743  0.1420  0.0324 -0.0495
13663TIP3    H162480   6.420   2.933  14.761  1.2622 -0.3481 -0.7574
13663TIP3    H262481   6.421   2.818  14.663 -2.8500  0.5107 -2.0115
13664TIP3   OH262482   0.421   4.700  17.250  0.1429 -0.0550 -0.4095
13664TIP3    H162483   0.352   4.635  17.265 -1.4322  1.6917  0.4346
13664TIP3    H262484   0.414   4.759  17.325  2.6937  0.1391 -0.2347
13665TIP3   OH262485   2.110   3.319   0.906  0.2092 -0.0083 -0.6580
13665TIP3    H162486   2.128   3.372   0.983 -0.7575  0.4333 -0.7311
13665TIP3    H262487   2.191   3.270   0.892  2.3234  3.5539 -2.3446
13666TIP3   OH262488   5.185   2.365  12.980  0.0334  0.2106 -0.1001
13666TIP3    H162489   5.238   2.374  13.059  1.0774 -0.4615 -0.6968
13666TIP3    H262490   5.104   2.412  13.000  0.4484  0.4178  1.2025
13667TIP3   OH262491   2.440   3.111   6.229 -0.1471 -0.0427 -0.5107
13667TIP3    H162492   2.478   3.077   6.310 -0.6771 -0.5896 -0.4908
13667TIP3    H262493   2.446   3.038   6.168  0.0130  0.2889 -0.8923
13668TIP3   OH262494   5.079   6.654  17.118  0.1651  0.3662 -0.0480
13668TIP3    H162495   5.108   6.737  17.081  0.3069 -0.0191 -0.8321
13668TIP3    H262496   5.027   6.678  17.195 -2.0016  1.3054 -1.7014
13669TIP3   OH262497   5.795   2.829   4.365 -0.4241 -0.2217  0.5585
13669TIP3    H162498   5.734   2.871   4.426 -1.4221  0.8407 -1.0955
13669TIP3    H262499   5.877   2.875   4.378 -1.3140  1.8821 -0.7049
13670TIP3   OH262500   4.077   1.525   1.691  0.7538 -0.0711  0.8358
13670TIP3    H162501   4.140   1.465   1.732  0.1020 -0.3796  1.4034
13670TIP3    H262502   4.005   1.530   1.754  0.3741  0.5644  0.3559
13671TIP3   OH262503   1.932   3.791   3.134  0.5974 -0.0664 -0.0669
13671TIP3    H162504   1.886   3.855   3.189  0.2128 -0.2332 -0.1880
13671TIP3    H262505   1.903   3.810   3.045  1.8210  0.7099 -0.3227
13672TIP3   OH262506   0.840   0.911  12.456 -0.6194 -0.3306 -0.4996
13672TIP3    H162507   0.768   0.945  12.509 -0.0500  0.8785 -0.4610
13672TIP3    H262508   0.902   0.876  12.520 -0.7160 -0.4459 -0.4700
13673TIP3   OH262509   6.037   1.130   4.671 -0.1085 -0.4435  0.4107
13673TIP3    H162510   6.099   1.113   4.600  1.9438 -0.0354  1.9852
13673TIP3    H262511   6.004   1.044   4.696 -0.2286 -0.6648 -0.4709
13674TIP3   OH262512   5.554   0.536   0.786  0.7060 -0.4428 -0.5647
13674TIP3    H162513   5.469   0.524   0.828  2.0162 -0.1202  2.4176
13674TIP3    H262514   5.550   0.623   0.748 -0.7403 -0.9849 -1.7921
13675TIP3   OH262515   4.952   4.630  13.250  0.7396  0.4661  0.3360
13675TIP3    H162516   4.897   4.603  13.177  0.6302 -0.6140  0.8009
13675TIP3    H262517   4.918   4.716  13.275 -1.8739 -0.8495  1.6830
13676TIP3   OH262518   4.973   2.124   0.008  0.3346 -0.1327 -0.7974
13676TIP3    H162519   4.924   2.070  -0.054 -2.0957  2.0690 -0.9811
13676TIP3    H262520   4.987   2.068   0.084 -0.2573 -1.6188 -1.7444
13677TIP3   OH262521   5.038   0.484   3.215  0.1266  0.0275 -0.0616
13677TIP3    H162522   4.990   0.502   3.134  0.7531 -0.7484 -0.6222
13677TIP3    H262523   4.975   0.439   3.271 -0.7157  1.7363  0.4230
13678TIP3   OH262524   1.294   4.569   3.633  0.5585 -0.3431 -0.1474
13678TIP3    H162525   1.302   4.636   3.701 -0.4549 -0.6277  0.2629
13678TIP3    H262526   1.354   4.599   3.564 -0.2588  1.2860 -0.2135
13679TIP3   OH262527   0.240   3.505   0.210 -0.2477  0.2129 -0.5137
13679TIP3    H162528   0.316   3.541   0.256 -1.0196 -0.2644  1.2045
13679TIP3    H262529   0.195   3.582   0.176 -0.9156  0.8279  1.5885
13680TIP3   OH262530   6.104   1.755  10.217  1.0413 -0.2069 -0.3097
13680TIP3    H162531   6.049   1.783  10.290  0.1403 -2.0484 -0.2290
13680TIP3    H262532   6.163   1.828  10.202 -0.8108  1.4870  0.2153
13681TIP3   OH262533   4.366   3.774   2.626 -0.5535  0.0875  0.3832
13681TIP3    H162534   4.344   3.681   2.623 -2.1754  0.4587 -0.2494
13681TIP3    H262535   4.415   3.785   2.708 -0.4028 -1.2967  0.4958
13682TIP3   OH262536   1.774   1.083   2.032  0.1918 -0.2426 -0.3116
13682TIP3    H162537   1.845   1.146   2.020 -0.5640  0.4866 -1.0027
13682TIP3    H262538   1.818   0.998   2.032  1.5414  0.3268  3.1191
13683TIP3   OH262539   4.258   0.341   5.402 -0.0133  0.4556  0.1684
13683TIP3    H162540   4.314   0.273   5.364 -0.5705  0.1304 -0.0970
13683TIP3    H262541   4.169   0.309   5.386 -0.2787  0.2570  1.8277
13684TIP3   OH262542   2.302   6.817  10.376 -0.3188  0.2050 -0.5971
13684TIP3    H162543   2.210   6.829  10.351 -0.3913  1.0426  0.0097
13684TIP3    H262544   2.316   6.882  10.445  0.3807 -0.7814  0.2088
13685TIP3   OH262545   2.553   1.288  12.014  0.4324  0.0086 -0.3023
13685TIP3    H162546   2.632   1.333  11.986 -0.3813  1.4769 -0.3097
13685TIP3    H262547   2.568   1.268  12.107  0.6434  0.6766 -0.1881
13686TIP3   OH262548   5.526   3.447  11.047 -0.1328  0.4056  0.6409
13686TIP3    H162549   5.568   3.396  10.978  1.5492  0.3709  1.6337
13686TIP3    H262550   5.512   3.533  11.009  1.7000  0.6899  0.5200
13687TIP3   OH262551   2.079   1.157  13.034 -0.0436 -0.2004  0.0397
13687TIP3    H162552   2.057   1.199  13.117 -1.1384 -1.4630  0.4071
13687TIP3    H262553   2.149   1.095  13.055  2.6182  2.2965 -0.7551
13688TIP3   OH262554   1.483   0.423  15.164  0.1813 -0.3958 -0.6212
13688TIP3    H162555   1.418   0.492  15.180 -0.9062 -1.8352  1.6347
13688TIP3    H262556   1.554   0.443  15.224  0.7900 -0.1532 -1.4041
13689TIP3   OH262557   1.846   4.106  16.606 -0.6456  0.1721 -0.0816
13689TIP3    H162558   1.862   4.128  16.514 -0.6954  4.4661  0.7260
13689TIP3    H262559   1.751   4.089  16.610 -0.4935 -1.0386 -0.9021
13690TIP3   OH262560   1.790   0.428   0.137  0.4044  0.2311 -0.4221
13690TIP3    H162561   1.712   0.374   0.128 -0.3331  1.3655 -0.9849
13690TIP3    H262562   1.803   0.436   0.232  0.3000 -0.5888 -0.3297
13691TIP3   OH262563   5.388   6.142  13.386 -0.0762 -0.2531 -0.3402
13691TIP3    H162564   5.471   6.190  13.386 -0.9458  1.3805 -1.4489
13691TIP3    H262565   5.407   6.060  13.342  1.0142 -0.0417 -0.2923
13692TIP3   OH262566   1.124   2.891   3.834  0.1140 -0.5974  0.0755
13692TIP3    H162567   1.164   2.824   3.778  1.2586  0.7355 -0.7683
13692TIP3    H262568   1.169   2.972   3.810 -0.6281  0.3362  1.6799
13693TIP3   OH262569   1.016   5.385  15.185 -0.1243 -0.0452 -0.3336
13693TIP3    H162570   0.984   5.439  15.257  0.9642 -0.3744  0.4282
13693TIP3    H262571   0.952   5.313  15.179  1.2752 -1.6932  2.3581
13694TIP3   OH262572   6.797   2.080   3.787  0.2056 -0.3225 -0.0547
13694TIP3    H162573   6.886   2.047   3.776  0.2298 -0.6503  1.0787
13694TIP3    H262574   6.756   2.021   3.850  0.1831  1.6303  1.8901
13695TIP3   OH262575   1.278   0.751   4.929 -0.0129  0.1278  0.1980
13695TIP3    H162576   1.352   0.800   4.891 -0.7529  0.4626 -0.8713
13695TIP3    H262577   1.285   0.766   5.023  0.1002  1.8662 -0.0549
13696TIP3   OH262578   3.460   2.082   3.858 -0.0615 -0.3641  0.4948
13696TIP3    H162579   3.413   2.029   3.794 -1.8418  0.0126  1.4267
13696TIP3    H262580   3.497   2.019   3.920  1.1165 -0.6880 -0.4886
13697TIP3   OH262581   2.825   0.784   3.653  0.3840  0.0652 -0.4601
13697TIP3    H162582   2.802   0.693   3.636 -0.8175  0.3567 -0.4818
13697TIP3    H262583   2.830   0.791   3.748 -0.8457  0.2757 -0.4038
13698TIP3   OH262584   2.053   0.584   3.474 -0.2444 -0.5368  0.1166
13698TIP3    H162585   2.117   0.516   3.454  1.9594  0.6608  2.4457
13698TIP3    H262586   2.055   0.643   3.399  3.6463  0.9479  1.0963
13699TIP3   OH262587   6.154   2.930  15.857  0.3929 -0.4239  0.1554
13699TIP3    H162588   6.250   2.935  15.864  0.3689  1.9582 -0.3000
13699TIP3    H262589   6.122   2.980  15.932 -0.4967 -0.6767 -0.0406
13700TIP3   OH262590   4.029   4.668   5.362  0.6434  0.3530 -0.3878
13700TIP3    H162591   4.069   4.742   5.316  1.1114  1.8637  2.2902
13700TIP3    H262592   4.025   4.695   5.453 -1.7510 -1.8534  0.2828
13701TIP3   OH262593   1.866   2.827  13.091  0.4474 -0.6524  0.0077
13701TIP3    H162594   1.828   2.770  13.023  0.6891 -0.8882  0.0696
13701TIP3    H262595   1.790   2.873  13.128  0.3500 -0.2786 -0.6431
13702TIP3   OH262596   6.479   4.674  14.500  0.0408 -0.2249 -0.3248
13702TIP3    H162597   6.388   4.693  14.478 -0.1977  0.2390  0.9605
13702TIP3    H262598   6.525   4.757  14.483  0.3380 -0.5926 -1.4287
13703TIP3   OH262599   5.321   5.138  14.070  0.1600 -0.1618 -0.3777
13703TIP3    H162600   5.322   5.205  14.002 -0.7175  0.7102  0.4453
13703TIP3    H262601   5.389   5.076  14.044 -1.0367 -0.5624 -2.7458
13704TIP3   OH262602   6.603   5.672   2.165  0.3954 -0.1206 -0.4911
13704TIP3    H162603   6.648   5.712   2.240  0.9027 -0.1548 -0.7688
13704TIP3    H262604   6.626   5.728   2.091 -0.9431  0.5009 -0.4536
13705TIP3   OH262605   6.500   0.974  15.479  0.0910  0.1631 -0.0266
13705TIP3    H162606   6.419   0.936  15.514 -0.7013  1.7061 -0.0784
13705TIP3    H262607   6.471   1.026  15.404  1.2057  0.3521 -0.3360
13706TIP3   OH262608   6.690   0.205  15.917 -0.1834 -0.3978  0.3282
13706TIP3    H162609   6.744   0.155  15.979  1.1469 -0.4299 -0.7934
13706TIP3    H262610   6.666   0.141  15.849  0.3274  0.1261 -0.3695
13707TIP3   OH262611   2.981   6.458   0.933  0.0867 -0.5022 -0.4149
13707TIP3    H162612   3.071   6.475   0.905  0.1542  0.4095  0.2895
13707TIP3    H262613   2.972   6.363   0.930  1.6964 -0.7653  1.3041
13708TIP3   OH262614   3.217   6.345  16.834  0.4010  0.1974 -0.4152
13708TIP3    H162615   3.181   6.318  16.749 -1.9596  3.2271 -0.5811
13708TIP3    H262616   3.142   6.384  16.880  2.3002  1.5452  1.7444
13709TIP3   OH262617   2.806   5.002   2.864 -0.0655 -0.5103  0.6907
13709TIP3    H162618   2.874   4.941   2.891  0.3033 -0.0769  0.7450
13709TIP3    H262619   2.781   5.047   2.945  0.5867  0.3320  0.4347
13710TIP3   OH262620   5.559   5.099   6.021 -0.1877 -0.8221 -0.3892
13710TIP3    H162621   5.562   5.189   6.054  0.3745 -0.7342 -0.6717
13710TIP3    H262622   5.572   5.108   5.926 -0.4527 -1.1799 -0.4641
13711TIP3   OH262623   1.344   3.975  16.125  0.5975  0.2163 -0.4137
13711TIP3    H162624   1.274   4.002  16.066 -0.0049 -2.5900 -1.1092
13711TIP3    H262625   1.409   3.934  16.068  0.9636 -0.7169  0.6443
13712TIP3   OH262626   3.993   4.331   6.178 -0.1359 -0.5317 -0.4735
13712TIP3    H162627   4.026   4.313   6.090  0.5678 -2.1113  0.0674
13712TIP3    H262628   3.994   4.245   6.222 -1.1117  0.1019  0.8602
13713TIP3   OH262629   4.008   2.053  16.089  0.2415 -0.2823 -0.1846
13713TIP3    H162630   4.030   1.982  16.028 -1.0500  0.6224 -1.7865
13713TIP3    H262631   3.985   2.126  16.032  0.6133  1.1530  1.4277
13714TIP3   OH262632   4.331   4.131  16.975  0.0881  0.1561  0.1879
13714TIP3    H162633   4.322   4.227  16.974  0.4724  0.1884 -1.0308
13714TIP3    H262634   4.424   4.115  16.964  0.3189 -0.3595  2.3912
13715TIP3   OH262635   3.639   4.327   1.893  0.0846  0.2449 -0.1120
13715TIP3    H162636   3.652   4.264   1.964 -2.0160 -1.2573 -0.9589
13715TIP3    H262637   3.648   4.274   1.813 -0.4344  1.3006 -0.8928
13716TIP3   OH262638   6.802   1.209   0.367 -0.4154  0.0476 -0.6159
13716TIP3    H162639   6.869   1.196   0.300  2.1654  1.9885  1.3790
13716TIP3    H262640   6.757   1.290   0.341 -0.6305 -0.1476 -0.8682
13717TIP3   OH262641   4.608   0.258  13.474  0.0537 -0.1365 -0.5481
13717TIP3    H162642   4.600   0.166  13.450  0.4167 -0.5894  0.9620
13717TIP3    H262643   4.600   0.305  13.391  0.7574 -1.5616 -1.4645
13718TIP3   OH262644   3.329   4.668   4.309  0.2154  0.3583  0.1431
13718TIP3    H162645   3.375   4.636   4.387  1.3063 -0.3222 -0.7551
13718TIP3    H262646   3.398   4.683   4.245 -0.6314  1.2643 -0.5894
13719TIP3   OH262647   1.359   4.379   0.743 -0.0420  0.3145  0.0275
13719TIP3    H162648   1.290   4.445   0.745  0.3728  0.7596  0.0951
13719TIP3    H262649   1.325   4.309   0.688  0.7677  2.0056 -2.8010
13720TIP3   OH262650   3.002   0.507   1.367  0.1978 -0.0016  0.1563
13720TIP3    H162651   3.050   0.557   1.301 -1.1757  1.9134  0.5479
13720TIP3    H262652   3.014   0.415   1.340  2.4876  0.4960 -0.7702
13721TIP3   OH262653   5.244   3.379  17.172 -0.3404  0.5916  0.4988
13721TIP3    H162654   5.153   3.394  17.148 -0.2268 -0.3336 -0.6226
13721TIP3    H262655   5.255   3.284  17.167  0.2947  0.5504  2.1756
13722TIP3   OH262656   5.264   6.357  10.538 -0.0163 -0.5149  0.6293
13722TIP3    H162657   5.354   6.334  10.517 -0.2814 -0.4931 -0.6336
13722TIP3    H262658   5.265   6.453  10.546  0.2426 -0.5892  1.5247
13723TIP3   OH262659   5.158   5.818  12.375 -0.0212 -0.2360 -0.3551
13723TIP3    H162660   5.167   5.903  12.333 -1.6616 -0.2708 -0.8576
13723TIP3    H262661   5.167   5.754  12.304 -1.7122 -0.3319 -0.5372
13724TIP3   OH262662   3.400   1.958  16.950 -0.3507  0.8740  0.1470
13724TIP3    H162663   3.469   1.997  17.002  0.1911  0.1992 -0.0470
13724TIP3    H262664   3.446   1.914  16.879 -1.0149  0.8721 -0.2932
13725TIP3   OH262665   1.442   5.392   5.337  0.6602  0.4828 -0.7521
13725TIP3    H162666   1.421   5.435   5.420  0.5268  0.5123 -0.8008
13725TIP3    H262667   1.434   5.461   5.271 -1.8904 -0.0922 -1.1589
13726TIP3   OH262668   3.289   3.742   4.113 -0.2744  0.3587  0.5703
13726TIP3    H162669   3.296   3.649   4.092  0.9201  0.1692  1.6853
13726TIP3    H262670   3.270   3.784   4.028  1.6176 -0.6520 -0.4277
13727TIP3   OH262671   0.206   0.683  12.048  0.1151  0.2547  0.3193
13727TIP3    H162672   0.280   0.743  12.035  0.1266  0.3809  0.9521
13727TIP3    H262673   0.134   0.724  11.999  0.7274 -0.4198 -1.2144
13728TIP3   OH262674   4.463   5.767   5.413 -0.3055  0.5208  0.1707
13728TIP3    H162675   4.466   5.716   5.332  1.1002  0.2884  0.3515
13728TIP3    H262676   4.551   5.802   5.423 -0.0284 -0.6188  2.3245
13729TIP3   OH262677   4.926   6.543  12.384  0.1255  0.1122 -0.2458
13729TIP3    H162678   5.009   6.570  12.423  0.4118 -1.5063  0.3485
13729TIP3    H262679   4.860   6.567  12.449  0.1022  1.3630 -0.7024
13730TIP3   OH262680   6.421   5.800   2.927  0.6685 -0.2251 -0.0125
13730TIP3    H162681   6.379   5.722   2.890 -0.3882  0.3435 -0.0465
13730TIP3    H262682   6.505   5.805   2.882  0.0787 -0.4492 -1.1841
13731TIP3   OH262683   6.477   5.521   0.476 -0.2813 -0.2577 -0.1450
13731TIP3    H162684   6.421   5.533   0.553  0.1168  0.8319 -0.0157
13731TIP3    H262685   6.549   5.467   0.508 -0.5182 -0.4607  0.0521
13732TIP3   OH262686   6.811   0.799  16.728 -0.5379  0.3072  0.0761
13732TIP3    H162687   6.828   0.862  16.798 -0.8835 -0.5584  0.9688
13732TIP3    H262688   6.848   0.717  16.760 -0.8311 -0.1404 -0.6933
13733TIP3   OH262689   3.549   1.583  16.527 -0.6047  0.0915  0.2755
13733TIP3    H162690   3.532   1.490  16.513 -0.1756  0.0641 -0.0806
13733TIP3    H262691   3.535   1.624  16.442 -2.6024  0.6482  0.8187
13734TIP3   OH262692   5.338   6.015   1.450 -0.1158  0.0621 -0.2141
13734TIP3    H162693   5.421   5.986   1.488 -0.2378  1.0404  0.8806
13734TIP3    H262694   5.334   6.109   1.471  0.1511  0.8694 -3.3795
13735TIP3   OH262695   5.353   4.512   0.554 -0.2516  0.0076  0.2262
13735TIP3    H162696   5.406   4.516   0.475 -0.8930  0.0938 -0.2054
13735TIP3    H262697   5.376   4.591   0.603  0.8999 -0.5542  0.6213
13736TIP3   OH262698   3.601   3.517  17.086 -0.2134  0.0168 -0.1228
13736TIP3    H162699   3.548   3.479  17.156 -0.3925  1.2390  0.4312
13736TIP3    H262700   3.552   3.497  17.006 -1.0380  0.3303  0.2947
13737TIP3   OH262701   1.290   3.588  11.389 -0.3630 -0.3386 -0.6489
13737TIP3    H162702   1.296   3.514  11.449  0.5169 -1.0429 -1.5716
13737TIP3    H262703   1.268   3.663  11.445 -1.1260 -1.2562  0.3169
13738TIP3   OH262704   4.197   1.640  16.054  0.0667 -0.1416 -0.7097
13738TIP3    H162705   4.182   1.547  16.065 -1.0271  0.1036  0.0311
13738TIP3    H262706   4.282   1.656  16.096  1.0000 -1.0263 -2.1816
13739TIP3   OH262707   3.887   4.082  12.791 -0.1742  0.4690  0.3513
13739TIP3    H162708   3.793   4.078  12.774  0.1235  0.1078 -1.4499
13739TIP3    H262709   3.927   4.065  12.706  1.5296  1.4069  0.9214
13740TIP3   OH262710   5.094   5.429  12.587 -0.3999  0.0040  0.3475
13740TIP3    H162711   5.167   5.485  12.561  0.2965 -0.8545  0.4474
13740TIP3    H262712   5.100   5.353  12.529 -0.1351 -0.9076  1.5381
13741TIP3   OH262713   6.040   6.126   0.033 -0.2773 -0.3604 -0.7747
13741TIP3    H162714   6.080   6.158   0.113 -0.5564  1.3455 -1.2754
13741TIP3    H262715   6.059   6.032   0.032  1.0485 -0.1377  0.5047
13742TIP3   OH262716   3.610   2.906  14.743 -0.0650  0.1461 -0.1347
13742TIP3    H162717   3.620   2.894  14.838 -1.0737 -0.6032 -0.1003
13742TIP3    H262718   3.612   3.000  14.730 -0.0677  0.2638  0.6609
13743TIP3   OH262719   3.546   5.691  14.360  0.0259  0.0060  0.4863
13743TIP3    H162720   3.638   5.706  14.342 -0.5170  0.0536 -2.8002
13743TIP3    H262721   3.508   5.779  14.365 -0.2688  0.0022 -1.1376
13744TIP3   OH262722   2.685   5.226   3.863 -0.2843 -0.2642 -0.0822
13744TIP3    H162723   2.683   5.131   3.871 -0.2915 -0.2226  0.4640
13744TIP3    H262724   2.690   5.257   3.953 -1.2123  0.2716 -0.2046
13745TIP3   OH262725   6.779   0.010   0.697  0.6401  0.7815 -0.4175
13745TIP3    H162726   6.704   0.068   0.680  1.9134  2.5112 -0.4963
13745TIP3    H262727   6.750  -0.049   0.766 -0.6822  1.6455 -0.2088
13746TIP3   OH262728   6.536   0.224   3.854  0.4241  0.1519  0.1460
13746TIP3    H162729   6.526   0.209   3.948  1.1969 -1.5108  0.0124
13746TIP3    H262730   6.479   0.159   3.814 -0.2142  1.1232 -0.5520
13747TIP3   OH262731   1.933   2.266   0.287  0.3809 -0.4876  0.0562
13747TIP3    H162732   1.878   2.212   0.344  0.0581  0.5027  0.7151
13747TIP3    H262733   1.872   2.303   0.223  0.3078  0.3772  0.6081
13748TIP3   OH262734   4.840   6.806  17.031  0.0785 -0.0219 -0.0776
13748TIP3    H162735   4.868   6.726  16.986  0.7771  0.5527 -0.6679
13748TIP3    H262736   4.795   6.774  17.109 -3.1178 -1.1619 -2.1620
13749TIP3   OH262737   5.563   4.677  16.415  0.1828 -0.0184  0.0919
13749TIP3    H162738   5.528   4.686  16.504 -0.7739 -0.5177 -0.2136
13749TIP3    H262739   5.557   4.764  16.377  2.1713  0.5772  1.0532
13750TIP3   OH262740   6.271   2.433  13.039 -0.3924 -0.1685  0.3687
13750TIP3    H162741   6.181   2.400  13.039 -0.3594 -0.5598 -2.7856
13750TIP3    H262742   6.262   2.528  13.029 -0.4327 -0.1021  0.9856
13751TIP3   OH262743   1.985   5.909  10.493  0.3521  0.4143 -0.1018
13751TIP3    H162744   1.923   5.981  10.482 -3.1285 -1.9436  2.2432
13751TIP3    H262745   1.958   5.844  10.429  1.4663 -0.1073 -0.0756
13752TIP3   OH262746   4.877   5.452  15.381 -0.4420 -0.4892  0.0405
13752TIP3    H162747   4.970   5.468  15.398 -0.6048  0.1710  0.3163
13752TIP3    H262748   4.863   5.483  15.292 -0.0433 -2.0917 -0.6137
13753TIP3   OH262749   1.536   3.796   5.021 -0.2461  0.3787 -0.1869
13753TIP3    H162750   1.573   3.709   5.031 -0.3792  0.4460  1.1522
13753TIP3    H262751   1.610   3.856   5.032 -0.1458  0.4544 -1.1508
13754TIP3   OH262752   4.256   6.454  15.100 -0.6708  0.0404  0.4831
13754TIP3    H162753   4.232   6.384  15.160  0.4703 -0.8573 -0.0704
13754TIP3    H262754   4.255   6.533  15.153  0.7064 -0.7776  1.7880
13755TIP3   OH262755   4.181   0.732  14.056 -0.2588 -0.0458 -0.2425
13755TIP3    H162756   4.207   0.655  14.006  0.9934  1.0096 -1.3207
13755TIP3    H262757   4.085   0.731  14.054 -0.2488 -1.0150 -1.1103
13756TIP3   OH262758   5.964   4.392  12.648 -0.6485  0.0651 -0.4789
13756TIP3    H162759   5.910   4.469  12.631  1.0722  1.4632  0.0256
13756TIP3    H262760   5.978   4.394  12.743  0.3023 -0.2357 -0.6048
13757TIP3   OH262761   1.126   2.772   4.954 -0.1239  0.2141 -1.0848
13757TIP3    H162762   1.161   2.845   4.903 -2.2262  1.8801 -0.3037
13757TIP3    H262763   1.169   2.780   5.039  1.8134 -1.2967 -1.8529
13758TIP3   OH262764   4.838   0.901   0.744  0.2590 -0.2859 -0.0958
13758TIP3    H162765   4.870   0.812   0.758 -0.2598 -0.3813  0.5603
13758TIP3    H262766   4.758   0.890   0.692 -0.4733 -0.3185  0.9926
13759TIP3   OH262767   0.911   5.545  16.058 -0.1300 -0.2422  0.5463
13759TIP3    H162768   0.941   5.473  16.114 -0.1587 -0.2393  0.5662
13759TIP3    H262769   0.897   5.617  16.119  1.1473  0.1788  0.3838
13760TIP3   OH262770   4.940   0.464   6.009 -0.1295 -0.2297  0.4017
13760TIP3    H162771   5.019   0.416   6.036  1.4208  2.0973  0.3175
13760TIP3    H262772   4.932   0.534   6.074 -0.5395  1.1633 -1.1061
13761TIP3   OH262773   3.975   0.979   5.927 -0.0941 -0.0938  0.8183
13761TIP3    H162774   4.067   0.971   5.902 -1.2068  0.5453 -4.8052
13761TIP3    H262775   3.953   1.070   5.908 -2.6430 -1.1750 -2.2669
13762TIP3   OH262776   5.726   4.140  16.014  0.1934 -0.2030 -0.2073
13762TIP3    H162777   5.681   4.144  16.099  0.3959  0.2223 -0.1142
13762TIP3    H262778   5.729   4.231  15.984 -0.5591 -0.4455 -1.0442
13763TIP3   OH262779   0.095   0.312  11.305 -0.1952 -0.3420 -0.2964
13763TIP3    H162780   0.176   0.284  11.263 -0.0582  0.9274 -0.9376
13763TIP3    H262781   0.118   0.325  11.397  0.5586  0.7754 -0.6184
13764TIP3   OH262782   2.905   1.906   5.577 -0.1898 -0.0852 -0.2947
13764TIP3    H162783   2.892   1.990   5.620 -0.6061 -1.1210  1.7318
13764TIP3    H262784   2.823   1.859   5.591  0.3504 -1.1591 -0.6366
13765TIP3   OH262785   4.666   0.229  15.965 -0.5091 -0.1993  0.5020
13765TIP3    H162786   4.672   0.324  15.978  0.4996 -0.3513  1.2648
13765TIP3    H262787   4.680   0.217  15.871  1.6457  0.2812  0.7033
13766TIP3   OH262788   4.769   5.762  13.515  0.5186 -0.1855 -0.1807
13766TIP3    H162789   4.831   5.834  13.524 -0.0344  0.4928 -1.4700
13766TIP3    H262790   4.792   5.721  13.431 -1.4952  0.8728 -1.3412
13767TIP3   OH262791   1.941   6.285  15.340  1.0470 -0.2755 -0.2885
13767TIP3    H162792   1.907   6.276  15.251  1.2413 -0.2384 -0.3680
13767TIP3    H262793   1.902   6.212  15.388  2.1389 -1.2149 -0.7859
13768TIP3   OH262794   1.675   6.697   1.112 -0.0422  0.6109 -0.5011
13768TIP3    H162795   1.579   6.692   1.116  0.0489 -0.3214  2.2738
13768TIP3    H262796   1.692   6.751   1.034 -2.7352 -0.5087 -2.0167
13769TIP3   OH262797   2.853   2.880   0.475  0.9295 -0.0079  0.1460
13769TIP3    H162798   2.854   2.826   0.397 -0.5941 -1.6632  1.1894
13769TIP3    H262799   2.901   2.960   0.450 -0.7409  0.1943 -2.9250
13770TIP3   OH262800   5.354   4.816   0.573  0.3622 -0.2228 -0.0643
13770TIP3    H162801   5.333   4.875   0.645  1.6535  2.3414 -1.6046
13770TIP3    H262802   5.449   4.811   0.573  0.3788 -0.4244 -1.3446
13771TIP3   OH262803   4.708   1.851  15.819 -0.0297 -0.1895 -0.0507
13771TIP3    H162804   4.622   1.819  15.793 -0.3170  0.8697 -0.4213
13771TIP3    H262805   4.748   1.776  15.864 -1.0156 -0.7881 -0.1383
13772TIP3   OH262806   1.623   5.700  14.609  0.2718  0.5657 -0.0082
13772TIP3    H162807   1.675   5.626  14.579  0.2580  0.4859  0.1630
13772TIP3    H262808   1.561   5.662  14.672  0.2022  0.7069  0.0095
13773TIP3   OH262809   1.016   5.624   3.992  0.2675  0.1533  0.2932
13773TIP3    H162810   1.032   5.658   3.904  0.6896  1.2873  0.7942
13773TIP3    H262811   1.101   5.593   4.022  0.1304 -0.2006  0.3160
13774TIP3   OH262812   2.735   3.422   3.037 -0.2754 -0.1687  0.0254
13774TIP3    H162813   2.670   3.453   3.100  0.1017 -2.4152  1.6626
13774TIP3    H262814   2.804   3.489   3.039 -0.9356  0.5120  0.8934
13775TIP3   OH262815   4.547   3.175   0.287 -0.2403  0.3372  0.0636
13775TIP3    H162816   4.464   3.219   0.271  1.4037  3.3969 -0.8618
13775TIP3    H262817   4.554   3.110   0.216 -1.4734  0.5837 -0.3016
13776TIP3   OH262818   4.672   3.469  15.448  0.2014  0.0589 -0.2492
13776TIP3    H162819   4.665   3.376  15.472 -0.6854  0.1033 -0.3230
13776TIP3    H262820   4.761   3.493  15.475  0.3182 -0.7136  0.1017
13777TIP3   OH262821   1.978   1.682   5.860 -0.0154  0.0882  0.2337
13777TIP3    H162822   2.022   1.726   5.933  0.1228  0.1828  0.0931
13777TIP3    H262823   1.939   1.752   5.809 -0.3242  0.0045  0.3524
13778TIP3   OH262824   6.743   4.061   4.167  0.4264  0.0497  0.2447
13778TIP3    H162825   6.825   4.013   4.182  1.1133  1.0203 -0.3256
13778TIP3    H262826   6.757   4.146   4.210 -0.2050  0.3002 -0.0383
13779TIP3   OH262827   3.350   0.528  11.100  1.0723 -0.6675 -0.5297
13779TIP3    H162828   3.360   0.433  11.096 -1.2254 -1.0779  1.0347
13779TIP3    H262829   3.267   0.545  11.055  2.2069  0.8242 -2.1718
13780TIP3   OH262830   4.731   2.482   6.297  0.5257 -0.0124  0.9218
13780TIP3    H162831   4.803   2.429   6.331  0.5196  0.8692  2.4039
13780TIP3    H262832   4.704   2.438   6.217  1.9729 -0.9873  0.9354
13781TIP3   OH262833   4.017   0.313  15.941 -0.1238 -0.5669 -0.2561
13781TIP3    H162834   4.056   0.266  16.015 -0.7665 -0.7398 -0.0152
13781TIP3    H262835   3.931   0.272  15.930 -0.1477 -0.3408 -0.9114
13782TIP3   OH262836   3.483   2.406  15.886 -0.4967 -0.2645 -0.1983
13782TIP3    H162837   3.461   2.485  15.935  2.2939  0.2283  0.4175
13782TIP3    H262838   3.548   2.360  15.940  0.7621 -1.0293 -2.2071
13783TIP3   OH262839   6.358   3.409  16.175  0.0961  0.6297 -0.2176
13783TIP3    H162840   6.423   3.345  16.147 -0.5838  0.3874 -1.2902
13783TIP3    H262841   6.401   3.458  16.246 -0.4491 -3.0986  3.0355
13784TIP3   OH262842   4.508   4.391  16.303  0.2775  0.2165 -0.7574
13784TIP3    H162843   4.528   4.396  16.210  0.3584 -0.7261 -0.8024
13784TIP3    H262844   4.554   4.465  16.342  1.0952  0.0095 -1.3226
13785TIP3   OH262845   5.408   0.324  13.532 -0.1466  0.2423  0.1535
13785TIP3    H162846   5.380   0.381  13.604 -1.5069 -1.4339  1.0323
13785TIP3    H262847   5.348   0.345  13.460  0.9156  1.5877 -0.3851
13786TIP3   OH262848   3.315   1.981   4.947  0.0563  0.6525  0.1533
13786TIP3    H162849   3.251   1.943   5.007  0.5272 -3.2604 -1.5073
13786TIP3    H262850   3.393   1.995   5.000 -0.4728  0.1632  1.0858
13787TIP3   OH262851   3.916   5.772   2.429  0.5080 -0.2531  0.0264
13787TIP3    H162852   3.850   5.810   2.372 -1.1381 -1.9980  0.6522
13787TIP3    H262853   3.941   5.690   2.386 -0.2878 -1.2805  1.4507
13788TIP3   OH262854   0.913   6.476   4.688  0.4245  0.4152 -0.5757
13788TIP3    H162855   0.967   6.462   4.765  1.2603 -1.5951 -1.4471
13788TIP3    H262856   0.884   6.389   4.663  2.2371  0.5981 -3.9174
13789TIP3   OH262857   1.571   4.534  15.139 -0.0354  0.2967  0.1588
13789TIP3    H162858   1.506   4.470  15.110 -0.0271  0.4404 -0.1786
13789TIP3    H262859   1.629   4.545  15.063  1.7486 -1.5125  1.1406
13790TIP3   OH262860   0.040   2.150  12.324 -0.3775  0.0353  0.1936
13790TIP3    H162861  -0.041   2.187  12.358  0.3987  1.4708  0.5763
13790TIP3    H262862   0.077   2.219  12.269 -0.0543 -1.0843 -1.0391
13791TIP3   OH262863   2.566   1.457  17.158  0.2432 -0.5885 -0.1971
13791TIP3    H162864   2.472   1.468  17.172  0.2182 -2.6506  1.9975
13791TIP3    H262865   2.608   1.503  17.231  0.8767 -0.7482 -0.4470
13792TIP3   OH262866   0.499   5.861   4.820  0.3570  0.2287  0.2607
13792TIP3    H162867   0.511   5.911   4.740  1.4727  0.1384  0.3564
13792TIP3    H262868   0.529   5.773   4.798 -0.4179 -0.0974  0.4555
13793TIP3   OH262869   0.883   6.774  17.290 -0.3571 -0.4680 -0.0109
13793TIP3    H162870   0.854   6.699  17.239 -1.1579 -0.3946  0.3273
13793TIP3    H262871   0.839   6.764  17.374 -0.7786  0.5759 -0.0926
13794TIP3   OH262872   3.337   5.059   3.798 -0.0560  0.5423  0.6967
13794TIP3    H162873   3.339   4.996   3.870  0.1883 -0.1241  0.1131
13794TIP3    H262874   3.418   5.043   3.749  0.0062  1.3054  0.5361
13795TIP3   OH262875   6.366   1.447  13.058 -0.8803 -0.8043  0.1991
13795TIP3    H162876   6.452   1.483  13.077 -1.0438 -0.4553  0.2819
13795TIP3    H262877   6.318   1.519  13.018 -1.7069 -0.4600  1.7587
13796TIP3   OH262878   2.613   5.480   1.726 -0.1124  0.2802  0.6554
13796TIP3    H162879   2.608   5.387   1.708 -0.5579 -0.0944  2.4977
13796TIP3    H262880   2.565   5.522   1.654  1.5774 -0.7392 -1.1413
13797TIP3   OH262881   5.132   3.145   3.365  0.4671  0.3415  0.3485
13797TIP3    H162882   5.062   3.123   3.303  0.5768  1.2267 -0.0941
13797TIP3    H262883   5.211   3.112   3.323  0.5967  1.3183 -0.1902
13798TIP3   OH262884   0.980   6.551  14.479 -0.8113  0.2274  0.3114
13798TIP3    H162885   0.914   6.512  14.422  1.3298 -2.3486 -0.6035
13798TIP3    H262886   1.023   6.616  14.424 -2.1773  1.5863  0.7691
13799TIP3   OH262887   6.453   2.490   2.164  0.0521  0.3597 -0.0904
13799TIP3    H162888   6.377   2.446   2.127  0.2110  0.0523 -0.0566
13799TIP3    H262889   6.418   2.548   2.232 -0.2155  0.7497 -0.5632
13800TIP3   OH262890   6.284   5.514   5.502 -0.4284 -0.2243 -0.2902
13800TIP3    H162891   6.239   5.561   5.572 -0.1597  0.4622 -0.5654
13800TIP3    H262892   6.217   5.499   5.436 -0.1779  1.2345 -0.9198
13801TIP3   OH262893   6.486   5.353   3.672  0.0789 -0.1371 -0.5587
13801TIP3    H162894   6.536   5.385   3.596 -0.1116 -0.5647 -0.8642
13801TIP3    H262895   6.546   5.364   3.746  0.3039  0.1866 -0.7868
13802TIP3   OH262896   6.651   1.547   0.059  0.4227 -0.5989 -0.0332
13802TIP3    H162897   6.720   1.567  -0.004 -0.7728  1.9693 -0.6561
13802TIP3    H262898   6.586   1.616   0.046 -0.9326 -1.2860  2.4856
13803TIP3   OH262899   3.102   6.246   0.425  0.6589  0.2067  0.2218
13803TIP3    H162900   3.171   6.203   0.474  0.5901  0.2677  0.3737
13803TIP3    H262901   3.141   6.328   0.394  0.3888  0.6742  1.0735
13804TIP3   OH262902   0.278   6.176  16.779  0.3531  0.0830  0.0587
13804TIP3    H162903   0.290   6.084  16.803  0.4337  0.1449  0.2597
13804TIP3    H262904   0.235   6.173  16.693 -1.2379 -0.1415  0.8326
13805TIP3   OH262905   4.910   5.832   2.873 -0.8760  0.0714  0.6289
13805TIP3    H162906   4.836   5.772   2.862 -1.0057  0.5576 -1.5223
13805TIP3    H262907   4.985   5.775   2.890 -1.5021 -0.4932  1.6029
13806TIP3   OH262908   4.823   0.218  12.280 -0.3127  0.3881 -0.4467
13806TIP3    H162909   4.887   0.287  12.265  0.9149 -0.6903 -0.3881
13806TIP3    H262910   4.854   0.174  12.359 -0.6354 -0.6763 -0.8974
13807TIP3   OH262911   6.069   5.316   2.022 -0.1180 -0.0770 -0.3067
13807TIP3    H162912   6.061   5.372   1.944  0.9956  1.2717  0.4939
13807TIP3    H262913   6.035   5.370   2.093  1.1358 -0.3326  0.5162
13808TIP3   OH262914   2.978   6.381   6.608  0.5099  0.1477  0.2494
13808TIP3    H162915   2.952   6.470   6.631 -0.0914 -0.3024  1.3919
13808TIP3    H262916   3.041   6.392   6.537  1.6830  1.5879  1.4321
13809TIP3   OH262917   4.578   1.028  14.315 -0.6722 -0.4412 -0.3041
13809TIP3    H162918   4.588   0.975  14.395 -1.2833 -0.6484 -0.3615
13809TIP3    H262919   4.532   0.971  14.254 -2.5367  0.5813  0.0730
13810TIP3   OH262920   2.149   3.021  14.187 -0.0024 -0.3850 -0.4266
13810TIP3    H162921   2.132   2.936  14.227  0.5857  0.0715  0.8644
13810TIP3    H262922   2.068   3.044  14.143 -1.2132 -0.2839  1.7251
13811TIP3   OH262923   5.534   0.812  17.034  0.1764  0.5744 -0.4596
13811TIP3    H162924   5.569   0.808  16.944  2.2612  0.3554  0.3023
13811TIP3    H262925   5.579   0.886  17.074  0.4253 -0.2503  0.8499
13812TIP3   OH262926   6.016   0.668   5.413 -0.0386  0.4221 -0.3953
13812TIP3    H162927   6.067   0.712   5.481 -1.0921  1.6647 -0.3714
13812TIP3    H262928   5.942   0.727   5.397 -1.7082 -1.5095 -0.1269
13813TIP3   OH262929   6.698   2.988  15.823 -0.7085  0.1963  0.6736
13813TIP3    H162930   6.774   2.932  15.808 -0.7211  0.3670 -0.0374
13813TIP3    H262931   6.651   2.945  15.894 -0.2445 -0.2069  0.7442
13814TIP3   OH262932   4.899   1.258  13.884 -0.7811 -0.6370 -0.4324
13814TIP3    H162933   4.818   1.308  13.890  0.1079  1.0109 -1.3305
13814TIP3    H262934   4.901   1.225  13.794 -0.9454 -1.5928 -0.0989
13815TIP3   OH262935   5.153   5.585  12.213  0.0463  0.2978 -0.4329
13815TIP3    H162936   5.152   5.530  12.135  2.2717 -1.2586  0.5227
13815TIP3    H262937   5.067   5.574  12.253 -0.3459 -0.6269 -1.5091
13816TIP3   OH262938   6.293   5.056   0.185  0.2197  0.1295  0.0840
13816TIP3    H162939   6.317   4.981   0.239  0.3417  0.3378  0.3189
13816TIP3    H262940   6.348   5.127   0.217 -0.4149  0.5066  0.3503
13817TIP3   OH262941   0.993   1.973  17.203 -0.1559  0.5587  0.2710
13817TIP3    H162942   1.086   1.978  17.229 -0.1153  0.1714  0.2002
13817TIP3    H262943   0.995   1.949  17.111 -0.3364  0.0997  0.3883
13818TIP3   OH262944   0.796   2.196   3.776  0.0048  0.2432 -0.5699
13818TIP3    H162945   0.774   2.286   3.798  4.2030  0.9546  1.8411
13818TIP3    H262946   0.842   2.203   3.692  0.0910  0.3482 -0.5149
13819TIP3   OH262947   4.876   2.272   2.157  0.2237 -0.0334  0.3270
13819TIP3    H162948   4.861   2.187   2.115  3.1385 -1.1825  1.3421
13819TIP3    H262949   4.938   2.253   2.227  2.2347  3.1828 -0.3763
13820TIP3   OH262950   0.240   0.511  14.002 -0.0814 -0.0924 -0.3379
13820TIP3    H162951   0.288   0.428  14.001  1.1433  0.5305  1.4353
13820TIP3    H262952   0.191   0.509  14.084  0.1495  1.0253 -0.1618
13821TIP3   OH262953   3.242   6.588   4.716 -0.2740  0.4375 -0.4115
13821TIP3    H162954   3.211   6.498   4.705  2.3703 -0.3771 -2.1599
13821TIP3    H262955   3.318   6.581   4.773 -1.2055  1.9063  1.0984
13822TIP3   OH262956   4.550   2.000  12.196  0.4837 -0.4554 -0.0050
13822TIP3    H162957   4.503   2.079  12.170  0.4915 -0.0987  1.0578
13822TIP3    H262958   4.494   1.928  12.167 -0.5047 -0.0389  0.8260
13823TIP3   OH262959   6.128   1.826  14.706  0.0329  0.7973  0.8488
13823TIP3    H162960   6.202   1.817  14.645  1.7526 -0.6816  2.9635
13823TIP3    H262961   6.158   1.891  14.770 -1.2463  1.4498  0.8206
13824TIP3   OH262962   4.965   3.749   4.819  0.6774  0.1373 -0.6643
13824TIP3    H162963   4.986   3.665   4.860  0.5280  1.0256  1.3383
13824TIP3    H262964   4.900   3.789   4.877  0.2983  1.3814 -1.8921
13825TIP3   OH262965   2.828   4.943  11.799  0.0592  0.7833 -0.0154
13825TIP3    H162966   2.758   4.949  11.734 -0.3418  1.3147  0.4610
13825TIP3    H262967   2.880   4.868  11.770 -1.1964 -0.1796  0.0952
13826TIP3   OH262968   5.155   2.595   1.700 -0.0320  0.6465  0.4151
13826TIP3    H162969   5.097   2.601   1.624 -0.7990  0.1744  0.9553
13826TIP3    H262970   5.236   2.636   1.670  0.1981 -0.8370 -1.1444
13827TIP3   OH262971   0.841   0.541   1.038  0.3293  0.2577 -0.2956
13827TIP3    H162972   0.818   0.634   1.032 -1.0661 -0.0131  0.4165
13827TIP3    H262973   0.862   0.516   0.948 -2.9620  0.4290 -1.2651
13828TIP3   OH262974   2.080   3.304  14.385  0.3192 -0.9052 -0.2363
13828TIP3    H162975   2.065   3.211  14.398  1.3751 -0.9771  0.5318
13828TIP3    H262976   2.175   3.313  14.374  0.1562 -0.0142 -1.1485
13829TIP3   OH262977   3.774   5.346  16.279  0.1348 -0.0854  0.1354
13829TIP3    H162978   3.867   5.323  16.283  0.8512  2.5321  1.5550
13829TIP3    H262979   3.748   5.357  16.370 -1.4056 -0.1744 -0.2638
13830TIP3   OH262980   3.528   5.479  11.544 -0.5077  0.3551  0.0943
13830TIP3    H162981   3.472   5.432  11.483  0.0623  0.8314 -0.8182
13830TIP3    H262982   3.560   5.412  11.605 -2.0042  0.0683  0.6062
13831TIP3   OH262983   5.061   5.091   0.657  0.2570 -0.1590  0.1961
13831TIP3    H162984   5.022   5.166   0.701  0.9100  0.0348  0.4661
13831TIP3    H262985   5.138   5.127   0.613  0.2163 -0.5543 -0.1978
13832TIP3   OH262986   3.006   4.802   0.638 -0.0376  0.0447 -0.0859
13832TIP3    H162987   2.920   4.797   0.680 -0.2882  0.6784 -0.5169
13832TIP3    H262988   2.987   4.822   0.546  0.4383 -2.3434 -0.7764
13833TIP3   OH262989   0.382   1.882   2.292  0.7470 -0.6130 -0.3736
13833TIP3    H162990   0.332   1.811   2.332  1.4969 -0.9003  0.0704
13833TIP3    H262991   0.320   1.923   2.231 -0.2171 -0.5750  0.5909
13834TIP3   OH262992   2.342   3.096  13.180 -0.1355  0.0541  0.3436
13834TIP3    H162993   2.371   3.090  13.089  0.4800  1.3012  0.4405
13834TIP3    H262994   2.309   3.008  13.200 -0.6767 -0.1234 -1.2023
13835TIP3   OH262995   5.389   4.163   3.067 -0.3750  0.0887  0.0960
13835TIP3    H162996   5.453   4.137   3.001 -0.0697  0.7016  0.1410
13835TIP3    H262997   5.405   4.103   3.140 -0.7780 -0.6522 -0.4153
13836TIP3   OH262998   2.689   2.321   2.185  0.2300 -0.3788 -0.1762
13836TIP3    H162999   2.600   2.297   2.213  0.4351  0.1545  0.9758
13836TIP3    H263000   2.713   2.253   2.122 -1.4252  0.0945 -1.3915
13837TIP3   OH263001   6.300   1.982   2.284  0.4002  0.4801  0.0793
13837TIP3    H163002   6.257   1.990   2.199 -1.9162 -0.6485  1.0610
13837TIP3    H263003   6.303   2.071   2.318 -0.8987  0.6353 -0.1691
13838TIP3   OH263004   3.828   4.598  12.807  0.3940  0.0424  0.9836
13838TIP3    H163005   3.838   4.537  12.880  0.9952 -0.6980  0.3046
13838TIP3    H263006   3.738   4.587  12.778  0.4070 -0.2933  1.0644
13839TIP3   OH263007   1.427   3.129  11.562  0.1792 -0.2144 -0.3489
13839TIP3    H163008   1.449   3.193  11.494 -2.3372  1.7152  0.4720
13839TIP3    H263009   1.338   3.101  11.540 -1.1003  1.1999  2.5299
13840TIP3   OH263010   4.250   6.605   1.842 -0.4004  0.5936 -0.4448
13840TIP3    H163011   4.195   6.624   1.918 -1.2400 -0.7340 -0.6845
13840TIP3    H263012   4.338   6.630   1.870 -0.4347 -1.2141  1.5558
13841TIP3   OH263013   4.975   4.345  14.264  0.0140 -0.2572 -0.2622
13841TIP3    H163014   4.986   4.440  14.274  0.5396 -0.2364 -0.9105
13841TIP3    H263015   5.036   4.308  14.328 -2.0293 -0.2036  1.8335
13842TIP3   OH263016   1.607   6.082  13.678 -0.5176 -0.0099 -0.2321
13842TIP3    H163017   1.544   6.097  13.749  1.0814 -2.5438  1.9294
13842TIP3    H263018   1.604   5.988  13.664  0.8446  0.1772 -2.0201
13843TIP3   OH263019   0.751   1.458  15.504  0.7323  0.5777 -0.4399
13843TIP3    H163020   0.721   1.492  15.420 -2.3567 -0.1467  0.2383
13843TIP3    H263021   0.775   1.367  15.485  0.2283  0.4723 -0.5826
13844TIP3   OH263022   4.401   1.395  13.849  0.2268  0.4800  0.1447
13844TIP3    H163023   4.373   1.379  13.759  2.7203 -0.8606 -0.5150
13844TIP3    H263024   4.353   1.472  13.876 -1.3946  0.3032 -1.9638
13845TIP3   OH263025   2.457   1.653   3.081 -0.1283  0.9413 -0.6020
13845TIP3    H163026   2.417   1.642   3.167 -0.1891  0.0841 -0.7225
13845TIP3    H263027   2.450   1.746   3.062  0.5600  1.2572  0.6335
13846TIP3   OH263028   4.520   6.260   3.364  0.1085  0.0265  0.3803
13846TIP3    H163029   4.486   6.184   3.317  1.1064  0.5046 -1.2066
13846TIP3    H263030   4.608   6.273   3.328  1.0645  0.2596  2.6174
13847TIP3   OH263031   6.468   5.904   5.283  0.3525  0.3953 -0.3670
13847TIP3    H163032   6.402   5.966   5.250 -0.1459  0.8273  1.3266
13847TIP3    H263033   6.483   5.932   5.374 -0.7415 -2.5961  0.8620
13848TIP3   OH263034   5.967   1.235  10.465  0.0830 -0.3113  0.2598
13848TIP3    H163035   6.012   1.187  10.395  0.2403 -0.5735  0.5395
13848TIP3    H263036   5.959   1.324  10.431 -0.7967 -0.6731 -0.5417
13849TIP3   OH263037   4.962   2.928  10.607 -0.4911  0.3646  0.5446
13849TIP3    H163038   4.924   3.006  10.647 -0.1882  1.1102 -0.5737
13849TIP3    H263039   4.908   2.912  10.530  0.7946  0.8185 -0.4886
13850TIP3   OH263040   0.107   1.445   0.720  0.0612 -0.5230 -0.1907
13850TIP3    H163041   0.201   1.451   0.701 -0.0263  1.5511 -0.1500
13850TIP3    H263042   0.065   1.488   0.645 -0.8666 -1.2882 -0.1284
13851TIP3   OH263043   2.779   0.566  12.622 -0.7541 -0.2818 -0.3043
13851TIP3    H163044   2.777   0.509  12.699  1.2481  0.5066  0.3892
13851TIP3    H263045   2.848   0.529  12.567 -2.1689 -0.8384 -1.7885
13852TIP3   OH263046   4.212   1.687  11.897  0.2916  0.4024  0.0021
13852TIP3    H163047   4.148   1.738  11.947 -0.8167  0.1179 -1.0563
13852TIP3    H263048   4.297   1.723  11.922 -0.4086  2.3202 -0.2142
13853TIP3   OH263049   2.049   3.068  15.695 -0.4897 -0.2526 -0.1615
13853TIP3    H163050   2.034   3.157  15.729  0.2975  0.5717 -1.8420
13853TIP3    H263051   1.962   3.032  15.685 -0.8060  0.0866  1.0976
13854TIP3   OH263052   5.800   4.822  12.527  0.2076  0.5846 -0.1146
13854TIP3    H163053   5.888   4.837  12.493  1.1629 -1.7205  1.0903
13854TIP3    H263054   5.793   4.880  12.603  0.3621  1.3373 -0.6627
13855TIP3   OH263055   5.394   1.263   3.672 -0.0461 -0.0982 -0.3798
13855TIP3    H163056   5.362   1.172   3.677 -0.1952 -0.2456 -2.6738
13855TIP3    H263057   5.346   1.300   3.598 -2.9108  3.1443  2.7623
13856TIP3   OH263058   3.238   6.136   0.197 -0.1584  0.1805 -0.8145
13856TIP3    H163059   3.255   6.223   0.160  0.0692  0.6598  0.3669
13856TIP3    H263060   3.184   6.153   0.274 -0.1638 -0.7305 -0.6042
13857TIP3   OH263061   1.582   1.921   5.408  0.2780  0.2942 -0.4090
13857TIP3    H163062   1.605   2.014   5.398  1.1065  0.3478  1.6318
13857TIP3    H263063   1.505   1.921   5.464  0.6861 -0.2791  0.1568
13858TIP3   OH263064   1.494   1.865  13.102  0.1038 -0.0115  0.3218
13858TIP3    H163065   1.493   1.887  13.195 -0.8055 -0.7703  0.5062
13858TIP3    H263066   1.585   1.874  13.076  0.4403 -0.1991  1.3937
13859TIP3   OH263067   3.549   5.050  15.264 -0.0558 -0.3518  0.4736
13859TIP3    H163068   3.467   5.072  15.308  0.4926 -1.2612  2.0244
13859TIP3    H263069   3.615   5.051  15.333  0.8823 -1.6850 -0.3393
13860TIP3   OH263070   5.492   0.703   2.017 -0.1825 -0.1605 -0.4359
13860TIP3    H163071   5.534   0.622   2.048  0.8506 -0.0065 -1.3637
13860TIP3    H263072   5.399   0.691   2.036  0.1636 -0.8515  0.9693
13861TIP3   OH263073   6.341   1.753   2.979 -0.0097 -0.1851  0.3853
13861TIP3    H163074   6.394   1.779   2.904  0.8335  0.5341  1.2110
13861TIP3    H263075   6.251   1.767   2.950  0.3422  1.5589  0.0022
13862TIP3   OH263076   1.033   2.492   4.163  0.1206  0.4937 -0.1194
13862TIP3    H163077   1.027   2.535   4.077 -4.0426  0.0917 -0.2154
13862TIP3    H263078   1.000   2.557   4.224 -0.5907 -0.5333  0.6106
13863TIP3   OH263079   6.441   1.298  12.657  0.3303  0.3315  0.2073
13863TIP3    H163080   6.451   1.237  12.584 -1.7395  0.4955 -0.2622
13863TIP3    H263081   6.498   1.263  12.726  0.9298 -0.8311 -0.8527
13864TIP3   OH263082   0.283   2.667   1.490 -0.0099 -0.2240  0.6536
13864TIP3    H163083   0.320   2.584   1.520 -0.0079 -1.4588 -2.4182
13864TIP3    H263084   0.331   2.687   1.409 -3.1663  0.2452 -1.2660
13865TIP3   OH263085   5.540   5.359   5.176 -0.1245  0.4564  0.0268
13865TIP3    H163086   5.472   5.320   5.122 -0.2873 -1.1008  1.3166
13865TIP3    H263087   5.516   5.452   5.181 -2.0249 -0.0040  0.2499
13866TIP3   OH263088   4.623   5.858  15.645  0.6665  0.4659  0.6564
13866TIP3    H163089   4.631   5.925  15.713  0.4533  0.0672  1.0818
13866TIP3    H263090   4.555   5.799  15.678  1.1100 -0.1652  0.4650
13867TIP3   OH263091   2.143   0.618  14.523 -0.3659 -0.2811  0.0421
13867TIP3    H163092   2.113   0.632  14.433  0.3087  0.4266 -0.0856
13867TIP3    H263093   2.234   0.649  14.523 -0.2364 -0.6289  0.8780
13868TIP3   OH263094   5.825   1.323   3.587 -0.7401  0.0459 -0.6573
13868TIP3    H163095   5.872   1.406   3.574 -1.2111  0.5223  0.5501
13868TIP3    H263096   5.755   1.325   3.521 -1.5897  1.2691  0.2266
13869TIP3   OH263097   0.785   0.504  11.012 -0.2375 -0.1829  1.1570
13869TIP3    H163098   0.832   0.479  10.932 -1.8762 -1.3474  0.4879
13869TIP3    H263099   0.798   0.598  11.020  1.1639 -0.2853  0.3331
13870TIP3   OH263100   1.037   6.645   2.106 -0.1321  0.0715 -0.4363
13870TIP3    H163101   1.107   6.628   2.042  0.9173 -1.1410  0.9725
13870TIP3    H263102   1.042   6.571   2.167 -2.3139  0.2311  0.0189
13871TIP3   OH263103   5.068   0.414  13.181 -0.1352  0.1305  0.3031
13871TIP3    H163104   5.069   0.329  13.137 -2.4709  0.5237 -0.6140
13871TIP3    H263105   4.998   0.407  13.245  0.3633  1.0402  0.9664
13872TIP3   OH263106   3.751   0.001  12.419 -0.1390 -0.0449  0.3712
13872TIP3    H163107   3.814   0.064  12.384  0.1707 -1.1660 -1.2080
13872TIP3    H263108   3.770  -0.080  12.371 -0.9567 -1.1567  1.8688
13873TIP3   OH263109   4.079   0.872   0.799  0.6150 -0.1843  0.6875
13873TIP3    H163110   4.005   0.916   0.840  2.7059  0.2675  4.3961
13873TIP3    H263111   4.136   0.943   0.771  0.2969 -0.5484 -0.9957
13874TIP3   OH263112   3.335   2.800  13.563  0.0313 -0.1021  0.1413
13874TIP3    H163113   3.395   2.735  13.597  1.3109  1.1956  0.4609
13874TIP3    H263114   3.334   2.869  13.629 -0.5633  0.6305 -0.6044
13875TIP3   OH263115   5.733   4.063   1.460  0.6381 -0.0987 -0.2537
13875TIP3    H163116   5.808   4.017   1.497 -1.1758 -1.5578  1.8653
13875TIP3    H263117   5.679   3.994   1.422 -1.1052  0.4885  1.0472
13876TIP3   OH263118   6.092   0.761   2.250  0.0240 -0.1488  0.2029
13876TIP3    H163119   6.102   0.695   2.318  0.2283 -0.7328 -0.3802
13876TIP3    H263120   6.089   0.844   2.297 -2.5776 -0.6895  1.1783
13877TIP3   OH263121   3.024   1.290   1.921 -0.4338  0.0723 -0.5309
13877TIP3    H163122   2.978   1.243   1.851 -2.1513  2.2676 -1.0138
13877TIP3    H263123   2.953   1.328   1.974  0.7724  2.6325 -0.5987
13878TIP3   OH263124   5.323   1.227   2.576 -0.2036 -0.0634 -0.1050
13878TIP3    H163125   5.345   1.269   2.659  2.4885  1.8640 -1.6198
13878TIP3    H263126   5.372   1.145   2.578 -0.0393  0.0384  0.1668
13879TIP3   OH263127   3.985   1.434  12.424 -0.4439 -0.1377 -0.2519
13879TIP3    H163128   3.965   1.527  12.417 -1.8942 -0.4354 -0.4970
13879TIP3    H263129   4.026   1.424  12.509 -1.4230  0.5512  0.3205
13880TIP3   OH263130   5.960   6.408   2.936  0.8250 -0.2541 -0.3438
13880TIP3    H163131   5.964   6.383   2.844 -0.8426  0.6205 -0.7099
13880TIP3    H263132   5.979   6.328   2.984 -0.3782 -1.2457 -1.4602
13881TIP3   OH263133   5.311   3.521  13.896 -0.1707  0.0597  0.0731
13881TIP3    H163134   5.383   3.568  13.853 -1.0385  2.7713  1.3552
13881TIP3    H263135   5.352   3.474  13.968  0.4854  0.5033 -0.0047
13882TIP3   OH263136   1.610   5.618  14.218 -0.1348 -0.3095 -0.2455
13882TIP3    H163137   1.679   5.570  14.264  2.6593  2.0832 -1.6490
13882TIP3    H263138   1.568   5.670  14.287  1.4967  0.4409  0.2247
13883TIP3   OH263139   6.650   3.430  11.368 -0.8107 -0.7991 -0.1586
13883TIP3    H163140   6.737   3.417  11.408 -1.4254  0.5996  1.8200
13883TIP3    H263141   6.659   3.396  11.279  2.6935  1.9860 -1.1094
13884TIP3   OH263142   0.863   2.382  17.254  0.3561 -0.1792  0.2024
13884TIP3    H163143   0.957   2.376  17.240  0.7675  3.5843  0.4445
13884TIP3    H263144   0.838   2.294  17.283  3.7158 -1.3569  0.0194
13885TIP3   OH263145   3.415   0.085  15.244 -0.4329  0.3561  0.2674
13885TIP3    H163146   3.457   0.156  15.196 -1.8238  0.3409 -1.0146
13885TIP3    H263147   3.332   0.121  15.273 -1.1715 -0.7337 -0.4266
13886TIP3   OH263148   5.487   3.910   4.782 -0.0979 -0.1012  0.3078
13886TIP3    H163149   5.460   3.930   4.871 -0.2806 -1.0900  0.4855
13886TIP3    H263150   5.424   3.844   4.752  1.3650 -1.5452  0.2982
13887TIP3   OH263151   0.745   5.650  16.688  0.2721 -0.1261  0.0568
13887TIP3    H163152   0.702   5.618  16.609  0.9046 -0.3307 -0.2110
13887TIP3    H263153   0.681   5.708  16.729 -0.1218 -0.1575 -0.5135
13888TIP3   OH263154   0.502   4.290  15.088  0.5494  0.0305 -0.3537
13888TIP3    H163155   0.555   4.233  15.032  2.2402  1.7512 -0.5961
13888TIP3    H263156   0.412   4.262  15.072  1.3129 -3.0196  0.0876
13889TIP3   OH263157   3.101   2.230   4.243  0.1472 -0.2638  0.0861
13889TIP3    H163158   3.175   2.218   4.302  0.2883  1.0271  0.1968
13889TIP3    H263159   3.137   2.214   4.155  0.3586 -0.4273  0.2008
13890TIP3   OH263160   2.436   5.585   4.537  0.1605  0.1189 -0.2604
13890TIP3    H163161   2.368   5.631   4.488 -1.1680  1.6099  2.7109
13890TIP3    H263162   2.401   5.498   4.550 -0.2102  0.2230 -0.5358
13891TIP3   OH263163   5.126   2.860   3.519 -0.1142  0.3224 -0.3667
13891TIP3    H163164   5.211   2.884   3.483 -0.3372  0.9080 -0.5082
13891TIP3    H263165   5.063   2.914   3.472 -0.6326 -0.5409 -0.7028
13892TIP3   OH263166   3.522   6.404  14.765 -0.5601  0.0682 -0.4030
13892TIP3    H163167   3.450   6.461  14.792 -0.9450  0.1940 -1.6606
13892TIP3    H263168   3.585   6.463  14.724 -0.4771 -0.2693 -0.7609
13893TIP3   OH263169   0.113   5.453   2.471  0.0064 -0.3214 -0.0123
13893TIP3    H163170   0.202   5.419   2.482  1.4442  2.9589 -0.4046
13893TIP3    H263171   0.122   5.524   2.407 -2.6673  0.9612  0.8863
13894TIP3   OH263172   2.219   0.811   3.065  0.8813 -0.3773 -0.3241
13894TIP3    H163173   2.182   0.757   3.134  0.2416 -0.4197 -0.6963
13894TIP3    H263174   2.154   0.809   2.994  0.2476  1.8640  0.1121
13895TIP3   OH263175   4.493   3.356   5.735 -0.7898  0.9122 -0.6792
13895TIP3    H163176   4.534   3.329   5.653  0.1808  0.1774  0.0251
13895TIP3    H263177   4.461   3.275   5.775  1.5522  0.7738  1.1340
13896TIP3   OH263178   3.945   0.002   5.552 -0.1215 -0.1086 -0.4929
13896TIP3    H163179   3.926   0.078   5.607 -1.1810 -0.0048 -0.9972
13896TIP3    H263180   4.038  -0.015   5.568 -0.3699 -0.0278  1.2649
13897TIP3   OH263181   5.492   4.036  13.161 -0.3646 -0.1732  0.2973
13897TIP3    H163182   5.508   3.965  13.099 -0.4331 -1.0819  1.2906
13897TIP3    H263183   5.423   4.088  13.120  1.4729  0.8750 -1.6801
13898TIP3   OH263184   5.172   3.001   6.379  0.2206 -0.0233  0.1938
13898TIP3    H163185   5.220   3.072   6.336 -0.1592 -0.1266 -0.4099
13898TIP3    H263186   5.227   2.924   6.367  0.1424 -0.0394 -0.0521
13899TIP3   OH263187   0.509   3.477   0.516  0.4705 -0.2792  0.5704
13899TIP3    H163188   0.505   3.384   0.494  1.3807  0.0108 -0.9389
13899TIP3    H263189   0.423   3.496   0.554 -0.0083 -1.5630  0.1771
13900TIP3   OH263190   0.701   0.716  16.175 -0.8508  0.4156  0.2897
13900TIP3    H163191   0.764   0.771  16.221 -0.8581 -1.1054  2.2738
13900TIP3    H263192   0.642   0.778  16.132  2.1975  1.9048 -2.1411
13901TIP3   OH263193   1.485   3.307  14.569  0.3695 -0.0960  0.4755
13901TIP3    H163194   1.577   3.288  14.584  0.8244 -0.0650 -1.9151
13901TIP3    H263195   1.448   3.225  14.537 -0.6898 -0.3509  2.1883
13902TIP3   OH263196   3.584   5.505   3.191  0.3191 -0.9710 -0.7099
13902TIP3    H163197   3.623   5.418   3.179  2.3361  0.0291 -1.8617
13902TIP3    H263198   3.617   5.534   3.277  0.0053 -1.1530 -0.5257
13903TIP3   OH263199   1.441   0.772  11.625  0.0914  0.1737  0.0745
13903TIP3    H163200   1.469   0.863  11.637  1.2528 -0.2308  0.6276
13903TIP3    H263201   1.520   0.721  11.640 -0.4030 -0.9037 -0.8737
13904TIP3   OH263202   5.202   2.771  15.694 -0.1004 -0.2026 -0.7273
13904TIP3    H163203   5.143   2.809  15.760 -0.5206 -3.3639  0.9024
13904TIP3    H263204   5.268   2.840  15.679 -2.0726  2.0336  0.1651
13905TIP3   OH263205   6.530   4.390  12.994  0.5792 -0.7139 -0.1145
13905TIP3    H163206   6.624   4.383  13.013  0.8874  0.9110 -0.8717
13905TIP3    H263207   6.525   4.391  12.899 -0.3880 -2.4756 -0.1114
13906TIP3   OH263208   2.994   6.116  16.918  0.6179 -0.3609  0.0968
13906TIP3    H163209   2.923   6.162  16.874 -1.1201 -1.5070  1.5161
13906TIP3    H263210   3.041   6.184  16.966  1.1571  0.5632 -1.6597
13907TIP3   OH263211   2.079   6.133  16.832  0.0005  0.2595  0.1126
13907TIP3    H163212   2.171   6.146  16.810  0.2850  1.2729  1.7400
13907TIP3    H263213   2.033   6.140  16.749  1.5714 -2.9439 -1.2005
13908TIP3   OH263214   4.924   5.791  11.766  0.4415  0.1562 -0.2266
13908TIP3    H163215   4.978   5.866  11.791  2.2566 -0.7503 -1.1591
13908TIP3    H263216   4.854   5.827  11.712  0.7706  1.2730  0.0726
13909TIP3   OH263217   4.948   0.650  14.770  0.5496  0.1008  0.0146
13909TIP3    H163218   5.000   0.586  14.723  0.1656  0.8897 -1.5385
13909TIP3    H263219   4.990   0.734  14.752 -0.7839  0.6565 -0.6411
13910TIP3   OH263220   2.987   2.892   6.388 -0.0123 -0.4659 -0.1136
13910TIP3    H163221   2.922   2.958   6.414 -0.2226 -0.7695  0.1467
13910TIP3    H263222   3.016   2.853   6.470  1.4277  0.5090 -0.1201
13911TIP3   OH263223   2.433   2.980  14.151  0.1097  0.3806  0.1608
13911TIP3    H163224   2.340   2.960  14.143  0.1657 -0.1856  0.8109
13911TIP3    H263225   2.477   2.919  14.093  0.1260  0.0935  0.4704
13912TIP3   OH263226   2.280   1.411  17.180  0.0749 -0.3492 -0.1407
13912TIP3    H163227   2.189   1.387  17.193  0.3271 -1.2507  0.0010
13912TIP3    H263228   2.325   1.328  17.162  0.4907  0.2957 -2.5284
13913TIP3   OH263229   5.862   1.152   1.591  0.0939  0.1637 -0.2692
13913TIP3    H163230   5.809   1.115   1.520  0.6247 -1.1432 -0.0189
13913TIP3    H263231   5.847   1.246   1.586 -1.1194 -0.0495 -1.1083
13914TIP3   OH263232   5.797   1.358   4.789 -0.0864  0.0270 -0.2457
13914TIP3    H163233   5.750   1.358   4.706 -1.6894  0.8552  0.6161
13914TIP3    H263234   5.736   1.317   4.851  0.7208  0.2170  0.7012
13915TIP3   OH263235   3.098   3.286   4.640  0.0037  0.5498  0.1844
13915TIP3    H163236   3.115   3.250   4.553  1.8781  0.2142  0.6386
13915TIP3    H263237   3.184   3.315   4.671 -0.7006  1.0863  1.7394
13916TIP3   OH263238   3.081   5.982  12.621  0.0597 -0.0481  0.3955
13916TIP3    H163239   2.993   5.983  12.584  1.1890  1.8121 -2.5810
13916TIP3    H263240   3.089   6.065  12.669  0.4458  0.1856 -0.0638
13917TIP3   OH263241   1.067   2.746   4.272 -0.3468  0.0835 -0.5237
13917TIP3    H163242   1.147   2.770   4.318 -0.8607 -0.4433  0.6896
13917TIP3    H263243   1.000   2.741   4.341 -1.0084 -1.3592 -1.2225
13918TIP3   OH263244   0.318   0.465   0.758 -0.7845  0.0135 -0.6421
13918TIP3    H163245   0.368   0.504   0.829 -3.1144 -0.2485  1.2895
13918TIP3    H263246   0.381   0.411   0.710  0.9212  0.3757  1.0952
13919TIP3   OH263247   6.590   1.130  11.560  0.1754  0.5864 -0.5044
13919TIP3    H163248   6.551   1.184  11.492 -0.3042 -1.0369 -1.5669
13919TIP3    H263249   6.518   1.111  11.620 -0.3146 -1.0403 -1.5716
13920TIP3   OH263250   5.274   6.194   3.431  0.2732 -0.4990  0.0293
13920TIP3    H163251   5.236   6.114   3.398 -2.0350  0.5001  0.0866
13920TIP3    H263252   5.304   6.172   3.520  0.7441 -1.5609 -0.3838
13921TIP3   OH263253   0.870   6.249  11.341 -0.1273 -0.3351 -0.4835
13921TIP3    H163254   0.911   6.226  11.258  2.3055  0.1830  0.4867
13921TIP3    H263255   0.776   6.246  11.323  0.3130  0.3376 -3.3953
13922TIP3   OH263256   4.197   2.186  14.033 -0.5607 -0.2411 -0.1012
13922TIP3    H163257   4.168   2.219  13.948 -1.9182 -2.0825 -0.4067
13922TIP3    H263258   4.120   2.145  14.071  1.0101 -3.4843 -0.0305
13923TIP3   OH263259   1.350   6.580  12.714 -0.9216 -0.5848 -1.0165
13923TIP3    H163260   1.301   6.546  12.639 -0.4936 -1.3476 -0.9714
13923TIP3    H263261   1.421   6.516  12.726 -0.7736 -0.2727 -0.1894
13924TIP3   OH263262   5.003   0.121  11.090  0.2121 -0.4136  0.0407
13924TIP3    H163263   4.978   0.133  10.999  0.3242 -0.8840 -0.0533
13924TIP3    H263264   5.098   0.134  11.091  0.2446 -0.6499  0.0487
13925TIP3   OH263265   3.385   1.750  11.961  0.2214 -0.0059 -0.1976
13925TIP3    H163266   3.467   1.731  11.917 -1.3884 -1.1281 -2.9355
13925TIP3    H263267   3.372   1.844  11.947  0.7552  0.0695 -0.2218
13926TIP3   OH263268   6.214   2.161  16.443  0.3032  0.1491 -0.3214
13926TIP3    H163269   6.164   2.243  16.448  1.8408  1.1423 -0.6136
13926TIP3    H263270   6.292   2.177  16.495  0.2380 -1.4677  0.3359
13927TIP3   OH263271   5.704   3.669  17.011 -0.3481  0.3375  0.1568
13927TIP3    H163272   5.625   3.649  17.060 -0.9965 -0.7607 -1.2525
13927TIP3    H263273   5.681   3.745  16.957 -0.0333  0.7784  0.6329
13928TIP3   OH263274   5.861   3.772   2.801 -0.0918 -0.4628  0.0091
13928TIP3    H163275   5.819   3.686   2.793 -1.0154 -0.0411  0.1774
13928TIP3    H263276   5.946   3.753   2.841 -0.1988 -1.3183 -0.1413
13929TIP3   OH263277   6.640   3.034  11.700 -0.2088  0.3837 -0.3314
13929TIP3    H163278   6.602   2.974  11.764 -0.6072  0.9812 -0.0025
13929TIP3    H263279   6.631   2.988  11.617 -0.6035  0.0251 -0.0973
13930TIP3   OH263280   3.081   4.562  15.184 -0.0908 -0.3365 -0.2512
13930TIP3    H163281   3.103   4.495  15.119 -0.6118 -2.0970  1.2642
13930TIP3    H263282   3.157   4.620  15.185  0.1596 -0.5811 -1.9906
13931TIP3   OH263283   5.193   4.569  10.890  0.5319 -0.0386 -0.1254
13931TIP3    H163284   5.179   4.509  10.963  0.2481  0.7796  0.5137
13931TIP3    H263285   5.118   4.555  10.833  1.2465 -1.3779 -0.7777
13932TIP3   OH263286   5.214   5.150   6.124  0.2772 -0.5195 -0.4730
13932TIP3    H163287   5.261   5.114   6.049  1.8574  1.7750 -0.6926
13932TIP3    H263288   5.253   5.105   6.199  2.1295  0.5294 -0.7386
13933TIP3   OH263289   1.518   5.240  15.352  0.8502 -0.3149 -0.6054
13933TIP3    H163290   1.547   5.155  15.387  2.0933  0.2780 -0.1477
13933TIP3    H263291   1.440   5.219  15.301 -0.3428 -1.4038  1.5167
13934TIP3   OH263292   2.604   2.523  13.631  0.3719  0.5541 -0.3397
13934TIP3    H163293   2.645   2.609  13.620  1.4100  0.0321 -0.6920
13934TIP3    H263294   2.617   2.502  13.724  0.3566  0.6498 -0.3157
13935TIP3   OH263295   2.284   4.786  11.681 -0.6008  0.2903 -0.6003
13935TIP3    H163296   2.268   4.779  11.587  0.6593 -0.1243 -0.7983
13935TIP3    H263297   2.284   4.696  11.713 -2.1070  0.4756  0.0134
13936TIP3   OH263298   2.040   3.237  10.996 -0.7548  0.2893 -0.3815
13936TIP3    H163299   1.988   3.172  10.949  0.1562 -1.8076  1.3298
13936TIP3    H263300   1.994   3.250  11.079  0.2426  0.1050  0.2146
13937TIP3   OH263301   5.750   4.718  10.890 -0.2537 -0.2382  0.6883
13937TIP3    H163302   5.659   4.689  10.894 -1.0739  1.8907 -0.5529
13937TIP3    H263303   5.746   4.803  10.847  2.0871  1.0281  2.6795
13938TIP3   OH263304   4.715   1.527   3.757  0.3027 -0.3566 -0.1018
13938TIP3    H163305   4.678   1.605   3.798  1.9993  0.0359  0.7573
13938TIP3    H263306   4.721   1.463   3.828  1.8162 -0.1936 -0.0415
13939TIP3   OH263307   1.576   2.866   3.150 -0.4035  0.2255  0.4807
13939TIP3    H163308   1.614   2.944   3.110 -2.7476  1.5271  0.5637
13939TIP3    H263309   1.620   2.793   3.107  0.9623  1.5854 -0.5408
13940TIP3   OH263310   1.697   5.136   2.880 -0.3415 -0.5086 -0.2099
13940TIP3    H163311   1.690   5.099   2.792 -0.7580 -2.0098  0.4307
13940TIP3    H263312   1.761   5.207   2.871 -1.0798 -0.0127 -1.9079
13941TIP3   OH263313   4.742   0.965  14.973  0.1539 -0.0794 -0.0217
13941TIP3    H163314   4.816   0.993  15.027 -1.1579  1.0387  1.3224
13941TIP3    H263315   4.730   1.036  14.910  1.0418 -0.8973 -1.1330
13942TIP3   OH263316   3.797   5.679  14.260 -0.1245  0.2849 -0.8296
13942TIP3    H163317   3.883   5.649  14.232  0.2887 -0.6268  1.2906
13942TIP3    H263318   3.759   5.719  14.181  0.8657 -2.2766 -2.7436
13943TIP3   OH263319   6.339   3.990  12.936 -0.0720  0.0268  0.8404
13943TIP3    H163320   6.355   3.908  12.982  2.4515  0.2505  0.4714
13943TIP3    H263321   6.384   4.056  12.989  0.2125  0.7523 -0.2756
13944TIP3   OH263322   5.086   1.294   5.402  0.2167  0.6998  0.5708
13944TIP3    H163323   5.072   1.199   5.408 -1.8886  0.6843 -2.3729
13944TIP3    H263324   5.037   1.329   5.476 -1.3797 -0.4124  0.1009
13945TIP3   OH263325   2.281   5.494  11.942 -0.8209 -0.2868  0.2517
13945TIP3    H163326   2.280   5.523  11.851 -0.2960  0.7941  0.5721
13945TIP3    H263327   2.342   5.421  11.944 -1.4114 -0.8034 -0.3978
13946TIP3   OH263328   1.557   5.421  15.753  0.3323  0.2065  0.2828
13946TIP3    H163329   1.482   5.363  15.749  1.5043 -1.3842  0.3819
13946TIP3    H263330   1.568   5.452  15.663 -1.5344  1.9867  0.6087
13947TIP3   OH263331   5.264   5.619   0.869  0.6761 -0.3438 -0.3127
13947TIP3    H163332   5.288   5.673   0.793  1.0177 -0.7824 -0.5200
13947TIP3    H263333   5.279   5.529   0.840  2.8498 -0.4518  0.9416
13948TIP3   OH263334   1.663   5.995  13.025  0.4985 -0.5263  0.1244
13948TIP3    H163335   1.717   5.930  12.979  0.2540 -1.1453  0.6879
13948TIP3    H263336   1.701   6.079  13.000 -1.4157 -0.5600 -3.6510
13949TIP3   OH263337   2.684   5.317   0.346  0.1064  0.2182  0.4961
13949TIP3    H163338   2.721   5.393   0.391 -0.6435  0.5982  0.4968
13949TIP3    H263339   2.758   5.260   0.329  0.5079  0.4148  1.5443
13950TIP3   OH263340   2.960   1.637  11.526 -0.1024  0.3843  0.2362
13950TIP3    H163341   2.867   1.662  11.527 -0.7630 -1.8034 -0.3767
13950TIP3    H263342   3.002   1.700  11.584 -1.6328  2.5540 -0.8460
13951TIP3   OH263343   0.017   6.381   1.391 -0.3281  0.1867  0.6894
13951TIP3    H163344   0.068   6.461   1.387  1.3206 -0.8668 -0.8494
13951TIP3    H263345  -0.059   6.397   1.335  0.9407  0.0873 -1.1263
13952TIP3   OH263346   4.745   0.873   1.514  0.4623 -0.1805 -0.7869
13952TIP3    H163347   4.692   0.798   1.539  0.1450  0.0943 -0.6351
13952TIP3    H263348   4.716   0.894   1.425  1.7176 -1.2726 -1.4955
13953TIP3   OH263349   4.891   3.928   4.447 -0.4520 -0.1269 -0.1831
13953TIP3    H163350   4.902   3.924   4.352 -1.7352 -1.3320 -0.3207
13953TIP3    H263351   4.915   3.841   4.478 -1.8305 -0.3374  0.3602
13954TIP3   OH263352   3.553   6.520  17.152 -0.0893  1.0805 -0.4148
13954TIP3    H163353   3.548   6.427  17.172 -0.1837  0.7216 -1.9781
13954TIP3    H263354   3.643   6.544  17.172  0.2361  0.3885 -0.9788
13955TIP3   OH263355   5.793   5.890   0.859 -0.4144  0.6877 -0.1610
13955TIP3    H163356   5.863   5.846   0.908 -0.0452  0.9673 -0.4237
13955TIP3    H263357   5.764   5.960   0.918 -1.1823 -0.0567  0.3619
13956TIP3   OH263358   1.150   1.262   1.879 -0.4868  0.2828  0.6300
13956TIP3    H163359   1.135   1.307   1.796 -2.1499  0.5284  1.0253
13956TIP3    H263360   1.243   1.275   1.897 -0.2317  0.7467 -0.8808
13957TIP3   OH263361   3.574   3.495   2.155 -0.5528 -0.1498  0.5738
13957TIP3    H163362   3.586   3.489   2.060  1.5235  2.1325  0.5956
13957TIP3    H263363   3.564   3.404   2.183 -0.2562 -0.9771 -1.7113
13958TIP3   OH263364   4.759   4.802  16.275 -0.3561 -0.2584  0.0735
13958TIP3    H163365   4.847   4.832  16.300 -0.1722  0.5957 -1.4412
13958TIP3    H263366   4.700   4.853  16.330  0.0404  1.0690 -0.6926
13959TIP3   OH263367   4.077   3.481   5.190  0.4426  0.5051 -0.2652
13959TIP3    H163368   4.023   3.509   5.264  0.6601 -0.9965  0.4991
13959TIP3    H263369   4.142   3.550   5.181  0.4925  0.6574  1.0300
13960TIP3   OH263370   3.758   1.512  13.185  0.8604 -0.2832 -0.6589
13960TIP3    H163371   3.694   1.538  13.118  0.9869 -0.3434 -0.8031
13960TIP3    H263372   3.819   1.585  13.189 -0.4718  0.8015  1.0923
13961TIP3   OH263373   2.444   0.980  13.849  0.4475 -0.1710 -0.6135
13961TIP3    H163374   2.444   0.931  13.767 -0.8607 -0.3399 -0.5297
13961TIP3    H263375   2.506   1.051  13.834 -1.2934  1.0607 -2.5318
13962TIP3   OH263376   4.078   5.209   4.432 -0.2688  0.2658 -0.2143
13962TIP3    H163377   4.096   5.151   4.506  1.8496 -1.1468 -1.7280
13962TIP3    H263378   4.047   5.151   4.363  0.0094  1.1979 -1.1480
13963TIP3   OH263379   5.542   4.164  16.686  0.4361 -0.3645  0.1126
13963TIP3    H163380   5.518   4.077  16.653  1.7393 -0.3887 -0.8523
13963TIP3    H263381   5.635   4.173  16.666  0.3927  1.1527  0.4385
13964TIP3   OH263382   5.214   6.174   0.830 -0.0293 -0.0290  0.6592
13964TIP3    H163383   5.309   6.170   0.819 -0.0700 -1.5360  0.6673
13964TIP3    H263384   5.191   6.092   0.874 -1.3413  0.3148  0.6625
13965TIP3   OH263385   1.997   2.002  14.806 -0.0608  0.2835  0.4810
13965TIP3    H163386   1.992   2.096  14.790 -0.7382  0.0551 -0.7749
13965TIP3    H263387   1.984   1.993  14.901 -0.3623  1.4230  0.5594
13966TIP3   OH263388   6.489   2.446   5.156 -0.9621  0.5072 -0.0181
13966TIP3    H163389   6.498   2.540   5.143  0.8044  0.2964 -0.5731
13966TIP3    H263390   6.418   2.420   5.097 -0.8143  1.3412 -0.5767
13967TIP3   OH263391   3.987   2.180  13.472  0.3273  0.4331 -0.0838
13967TIP3    H163392   3.916   2.134  13.426 -0.8886  0.6152  1.5048
13967TIP3    H263393   4.063   2.122  13.462 -0.4766 -0.6114 -0.3849
13968TIP3   OH263394   0.444   3.876  13.296  0.2329  0.4104  0.5528
13968TIP3    H163395   0.520   3.931  13.279  0.3672  0.0102 -0.1355
13968TIP3    H263396   0.462   3.794  13.252 -0.0826 -0.1123  1.3649
13969TIP3   OH263397   3.658   5.003  12.168 -0.0238  0.4360 -0.3298
13969TIP3    H163398   3.682   5.055  12.245  0.2422  0.7496 -0.6212
13969TIP3    H263399   3.737   5.000  12.115  0.7105 -2.2849  0.7749
13970TIP3   OH263400   5.995   0.768   6.411  0.6707  0.1627  0.2193
13970TIP3    H163401   5.954   0.764   6.497 -1.1488  1.5678 -0.5352
13970TIP3    H263402   6.010   0.861   6.396  0.2328  0.0024 -1.3107
13971TIP3   OH263403   1.107   2.893  13.955  0.3638  0.4673  0.4181
13971TIP3    H163404   1.023   2.858  13.984 -0.0073 -0.4573 -1.6126
13971TIP3    H263405   1.104   2.986  13.979 -1.1697  0.4255  0.4947
13972TIP3   OH263406   3.345   4.264   0.576 -0.0946 -0.1519  0.4772
13972TIP3    H163407   3.366   4.274   0.483 -1.8123 -0.9510 -0.0361
13972TIP3    H263408   3.266   4.210   0.577 -1.3579  1.5974  2.3101
13973TIP3   OH263409   4.315   1.556   4.748  0.2733  0.3897  0.2910
13973TIP3    H163410   4.279   1.552   4.837  0.8743  0.6994  0.5535
13973TIP3    H263411   4.333   1.649   4.735 -1.0770  0.5488 -0.6756
13974TIP3   OH263412   1.224   4.286   3.516 -0.4881  0.4451  0.2390
13974TIP3    H163413   1.258   4.362   3.561 -0.4980  0.2761  0.5328
13974TIP3    H263414   1.276   4.279   3.436 -0.7026  0.9477  0.0538
13975TIP3   OH263415   1.800   4.136  12.762  0.0203  0.1348  0.0736
13975TIP3    H163416   1.813   4.102  12.674  1.4384  0.5146  0.0989
13975TIP3    H263417   1.742   4.074  12.805 -0.5815 -0.1126 -1.0931
13976TIP3   OH263418   3.379   6.537  12.217  0.3417  0.5695 -0.1251
13976TIP3    H163419   3.291   6.500  12.214  1.0835 -1.3484  0.4183
13976TIP3    H263420   3.404   6.530  12.309  1.5544 -0.1692 -0.4908
13977TIP3   OH263421   3.684   3.303   1.020 -0.1566  0.8750  0.7683
13977TIP3    H163422   3.734   3.245   1.078 -0.5905  1.4991  1.7930
13977TIP3    H263423   3.606   3.253   0.999  0.9702 -0.2282 -1.0822
13978TIP3   OH263424   1.310   6.422   1.202 -0.0043  0.1185 -0.3902
13978TIP3    H163425   1.373   6.369   1.152  0.3583 -0.9272  1.0897
13978TIP3    H263426   1.225   6.401   1.162  0.1484 -1.5087  0.0431
13979TIP3   OH263427   5.144   6.605   4.987 -0.2364  0.2848 -0.1182
13979TIP3    H163428   5.056   6.607   5.024 -0.2946 -0.3423 -0.2113
13979TIP3    H263429   5.183   6.688   5.014 -0.8032  0.5064  0.0441
13980TIP3   OH263430   5.693   2.541  12.206 -0.2842 -0.3768  0.3480
13980TIP3    H163431   5.721   2.449  12.211  1.1406 -0.0708 -1.2496
13980TIP3    H263432   5.648   2.556  12.289 -2.3851 -3.0786 -0.1390
13981TIP3   OH263433   0.136   4.159   6.649 -0.0840 -0.3200 -0.2274
13981TIP3    H163434   0.104   4.131   6.735  0.0669 -2.0053 -0.7034
13981TIP3    H263435   0.229   4.136   6.649 -0.0627 -0.2322 -0.8080
13982TIP3   OH263436   5.945   1.624  16.290 -0.4335 -0.1976 -0.0179
13982TIP3    H163437   5.914   1.534  16.279 -1.3921  0.0930  0.1741
13982TIP3    H263438   5.883   1.664  16.351  1.0671  0.0761  1.4033
13983TIP3   OH263439   6.687   3.492  16.169  0.2128  0.2628  0.1786
13983TIP3    H163440   6.682   3.452  16.083 -3.1938 -1.0940  0.8465
13983TIP3    H263441   6.762   3.449  16.211  0.3105 -0.9849 -1.2056
13984TIP3   OH263442   3.471   4.912  16.351  0.0677 -0.2975  0.2237
13984TIP3    H163443   3.502   4.989  16.304  0.9526 -0.4157  0.5922
13984TIP3    H263444   3.528   4.841  16.320 -2.0203 -1.2726 -1.6585
13985TIP3   OH263445   0.120   5.742   1.252  0.1054 -0.6788 -0.2677
13985TIP3    H163446   0.060   5.764   1.324  0.3326 -0.1274 -0.2401
13985TIP3    H263447   0.070   5.681   1.198  0.0203 -1.2886  0.4811
13986TIP3   OH263448   2.055   2.702   0.838 -0.1176 -0.4991 -0.2207
13986TIP3    H163449   2.078   2.643   0.909  0.4937 -0.5480 -0.4560
13986TIP3    H263450   1.959   2.700   0.835 -0.1059 -3.1382 -1.5869
13987TIP3   OH263451   5.128   3.268  14.675 -0.0433 -0.5523 -0.0015
13987TIP3    H163452   5.106   3.176  14.690 -0.7774 -0.1737  1.4309
13987TIP3    H263453   5.093   3.286  14.588  0.3053 -1.6781 -0.3993
13988TIP3   OH263454   6.693   5.847  13.335 -0.5204 -0.3721 -0.0350
13988TIP3    H163455   6.697   5.843  13.431  1.9017 -0.7030 -0.0878
13988TIP3    H263456   6.710   5.757  13.307  0.1618 -0.0293 -0.7620
13989TIP3   OH263457   5.241   2.858  10.971 -0.4230  0.3947  0.5538
13989TIP3    H163458   5.278   2.773  10.946 -0.0803  0.3610  1.1547
13989TIP3    H263459   5.217   2.899  10.888  2.8313  1.2919 -0.0869
13990TIP3   OH263460   1.537   1.941  11.133  0.1438 -0.0512 -0.2772
13990TIP3    H163461   1.515   1.875  11.067 -1.6619  0.8732 -0.6392
13990TIP3    H263462   1.557   2.020  11.083 -1.4255  0.7169  0.2332
13991TIP3   OH263463   5.838   0.777   5.915 -0.7980 -0.0311 -0.3510
13991TIP3    H163464   5.789   0.697   5.935 -0.8225  0.0808  0.0569
13991TIP3    H263465   5.830   0.787   5.821 -1.3029 -0.1822 -0.3298
13992TIP3   OH263466   3.488   6.799   2.484 -0.0284  0.4069  0.6070
13992TIP3    H163467   3.410   6.749   2.510  0.0171 -0.6707 -1.2238
13992TIP3    H263468   3.562   6.742   2.504  0.2188  0.8587  1.0173
13993TIP3   OH263469   6.699   5.913  12.200  1.0799  0.3709 -0.0963
13993TIP3    H163470   6.751   5.993  12.197  1.1450  0.3140 -0.9552
13993TIP3    H263471   6.750   5.850  12.149  0.1847  0.3160 -0.9488
13994TIP3   OH263472   3.479   0.291   2.616  0.3347 -0.2247  1.0057
13994TIP3    H163473   3.520   0.305   2.531 -0.2194 -0.8545  0.6268
13994TIP3    H263474   3.428   0.211   2.605  0.1669 -0.2500  1.8989
13995TIP3   OH263475   0.507   6.342  12.523  0.1486  0.2922 -0.0546
13995TIP3    H163476   0.420   6.302  12.522  0.6228 -0.9281  2.0464
13995TIP3    H263477   0.538   6.331  12.613  3.2044 -0.9292 -1.1073
13996TIP3   OH263478   4.952   2.020  13.775  0.1794  0.0224  0.2345
13996TIP3    H163479   4.974   1.944  13.721 -0.6693 -0.5751  0.6802
13996TIP3    H263480   4.896   1.983  13.845 -0.5702  1.1176  0.2370
13997TIP3   OH263481   1.984   5.477  13.553  0.3387 -0.1548  0.0491
13997TIP3    H163482   2.050   5.544  13.569  0.7990 -0.3468 -0.9515
13997TIP3    H263483   1.986   5.422  13.632  1.3966 -0.1719  0.0218
13998TIP3   OH263484   0.113   4.385   1.934 -0.4042 -0.4405  0.7964
13998TIP3    H163485   0.139   4.444   1.863  0.5677 -0.9420  0.7092
13998TIP3    H263486   0.193   4.373   1.985 -1.1151 -0.0311  2.0318
13999TIP3   OH263487   0.028   6.467   2.538  0.1633 -0.0004  0.2774
13999TIP3    H163488  -0.057   6.511   2.543 -0.3551 -0.6879 -1.6858
13999TIP3    H263489   0.033   6.415   2.618 -1.0359  0.4323  0.6528
14000TIP3   OH263490   1.675   5.424   3.430 -0.2685  0.0943  0.4642
14000TIP3    H163491   1.605   5.489   3.423 -0.8283 -0.5967 -0.5648
14000TIP3    H263492   1.642   5.348   3.383  0.7625 -0.6107  0.8474
14001TIP3   OH263493   5.298   0.468   0.855 -0.0348  0.2258  0.3602
14001TIP3    H163494   5.274   0.433   0.769 -2.6740 -0.6879  1.3870
14001TIP3    H263495   5.291   0.394   0.915  1.4265  0.9266  1.4679
14002TIP3   OH263496   1.400   0.172  15.151 -0.0389  0.2970  0.3263
14002TIP3    H163497   1.384   0.169  15.245  0.9573  1.8833  0.5805
14002TIP3    H263498   1.436   0.259  15.135 -1.1628  0.4576 -1.7037
14003TIP3   OH263499   5.302   4.298   1.136 -0.5294  0.0538 -0.2671
14003TIP3    H163500   5.211   4.313   1.159  0.0629  2.3738  0.9066
14003TIP3    H263501   5.300   4.226   1.073 -3.0903 -0.2656  0.0772
14004TIP3   OH263502   2.973   5.694   0.314  0.3751  0.4597  0.4619
14004TIP3    H163503   3.010   5.620   0.266  1.0508  0.4206  1.0226
14004TIP3    H263504   2.984   5.769   0.254 -0.7470  0.0340 -0.2966
14005TIP3   OH263505   1.033   4.872   0.789  0.0507  0.8619 -0.0450
14005TIP3    H163506   1.048   4.790   0.837  0.2938  1.2222  0.5038
14005TIP3    H263507   0.938   4.880   0.785  0.0128  1.2868  1.1938
14006TIP3   OH263508   0.235   2.016  13.033 -0.6890 -0.0300 -0.0653
14006TIP3    H163509   0.307   2.077  13.050 -2.1466  1.7400  0.0509
14006TIP3    H263510   0.213   2.029  12.941 -0.4766 -1.0185 -0.2686
14007TIP3   OH263511   0.006   6.519   0.033 -0.2014  0.0322 -0.1769
14007TIP3    H163512   0.057   6.486   0.107 -0.6187 -2.4618 -0.9072
14007TIP3    H263513   0.072   6.555  -0.027  0.5115 -1.1484 -0.1385
14008TIP3   OH263514   4.303   2.808  13.449  0.7974  0.3661  0.3709
14008TIP3    H163515   4.322   2.769  13.364  0.8364  1.4464 -0.1207
14008TIP3    H263516   4.368   2.769  13.508  0.6188 -0.5683 -0.0219
14009TIP3   OH263517   0.717   1.603  13.408  0.2321  0.4041 -0.0804
14009TIP3    H163518   0.686   1.579  13.321  1.4204 -0.6205 -0.2513
14009TIP3    H263519   0.799   1.554  13.419 -0.8943 -1.1272  2.4297
14010TIP3   OH263520   1.718   0.751   4.951  0.2914 -0.4186 -0.9880
14010TIP3    H163521   1.800   0.782   4.913  1.3668  2.5250  3.1126
14010TIP3    H263522   1.654   0.818   4.927  0.7029  0.7983  1.0846
14011TIP3   OH263523   4.449   3.952   1.624 -0.3897 -0.6260 -0.0657
14011TIP3    H163524   4.481   3.966   1.535 -1.0741  0.7082 -0.1225
14011TIP3    H263525   4.477   3.863   1.645 -0.1372 -0.9405 -1.5752
14012TIP3   OH263526   1.568   3.243  14.871  0.0421  0.0547 -0.1144
14012TIP3    H163527   1.587   3.158  14.832  0.1350 -0.3266  0.7369
14012TIP3    H263528   1.472   3.245  14.878  0.1084 -1.0626  2.1237
14013TIP3   OH263529   3.279   4.826  11.112 -0.2691 -0.2305 -0.4605
14013TIP3    H163530   3.203   4.868  11.072 -0.4722 -0.2471 -0.0964
14013TIP3    H263531   3.242   4.759  11.170 -0.0283  0.5961  0.6753
14014TIP3   OH263532   1.771   2.829   4.784  0.5303 -0.6318 -0.3215
14014TIP3    H163533   1.830   2.844   4.858  0.1545  0.8121 -0.2879
14014TIP3    H263534   1.830   2.824   4.708  0.8694 -1.5986 -0.0152
14015TIP3   OH263535   5.596   6.598   2.520 -0.0841  0.0590 -0.0402
14015TIP3    H163536   5.686   6.613   2.491 -0.1915  1.4708  0.2647
14015TIP3    H263537   5.601   6.599   2.615 -0.2980 -0.8074 -0.0082
14016TIP3   OH263538   1.617   0.893   5.735 -0.3758 -0.2830  0.2079
14016TIP3    H163539   1.684   0.944   5.780 -2.3968  1.1652  1.7523
14016TIP3    H263540   1.597   0.822   5.796 -1.7422  0.5502  0.7609
14017TIP3   OH263541   1.571   2.079   3.346  0.7288 -1.0954  0.4298
14017TIP3    H163542   1.654   2.120   3.319 -0.1312  0.2809 -0.2611
14017TIP3    H263543   1.538   2.037   3.267  0.2010 -0.6097  0.3860
14018TIP3   OH263544   6.046   3.336  15.278 -0.0063 -0.2472 -0.3359
14018TIP3    H163545   6.125   3.365  15.324 -0.4953  0.1072  0.2883
14018TIP3    H263546   6.011   3.416  15.238 -1.6991  0.2355  1.8955
14019TIP3   OH263547   1.648   1.341   1.099 -0.5764 -0.7215  1.2369
14019TIP3    H163548   1.649   1.246   1.091 -0.1722 -0.5786 -3.0701
14019TIP3    H263549   1.557   1.366   1.079 -0.7314 -0.1437  2.5299
14020TIP3   OH263550   3.921   0.386   0.966  0.4998  0.2507 -0.0091
14020TIP3    H163551   3.867   0.440   0.907 -2.0456  0.4704  2.3265
14020TIP3    H263552   4.004   0.433   0.972 -1.0813  3.1889  0.7168
14021TIP3   OH263553   5.129   0.803   5.609 -0.2019 -0.2610  0.3905
14021TIP3    H163554   5.095   0.729   5.660 -1.3468  1.4082  2.2215
14021TIP3    H263555   5.052   0.841   5.568  0.0798  0.9145  0.9030
14022TIP3   OH263556   0.825   3.005   5.244  0.8814  0.0578  0.0534
14022TIP3    H163557   0.760   3.057   5.196 -0.0897 -0.7781  0.4274
14022TIP3    H263558   0.852   3.061   5.317  2.8626  1.6248 -1.7224
14023TIP3   OH263559   0.725   2.627   6.231  0.0146 -0.2182 -0.3783
14023TIP3    H163560   0.673   2.682   6.290  0.3304  1.1815 -1.3355
14023TIP3    H263561   0.810   2.621   6.274 -0.0174  0.0652 -0.2690
14024TIP3   OH263562   2.569   5.536  12.624 -0.4767 -0.1438 -0.1814
14024TIP3    H163563   2.603   5.522  12.536 -1.8219  1.4977 -1.0376
14024TIP3    H263564   2.535   5.626  12.622 -0.3838  0.0075  2.0774
14025TIP3   OH263565   3.782   0.952   6.743 -0.0525  0.2192 -0.0476
14025TIP3    H163566   3.721   0.973   6.814  1.5517  1.3779  1.0687
14025TIP3    H263567   3.768   0.859   6.727 -1.6680  0.3116  0.5779
14026TIP3   OH263568   1.962   6.437  10.740 -0.2098 -0.0547 -0.0104
14026TIP3    H163569   1.883   6.387  10.761 -1.2771  1.6188  0.1397
14026TIP3    H263570   2.022   6.373  10.702 -0.8651 -1.7833  1.6794
14027TIP3   OH263571   6.379   2.980   4.410 -0.0492  0.3013 -0.4433
14027TIP3    H163572   6.470   2.951   4.404 -0.0873  0.3230 -1.2293
14027TIP3    H263573   6.382   3.058   4.466  0.5685  0.9220 -1.3137
14028TIP3   OH263574   0.167   3.643  14.830 -0.3435 -0.0851  0.2222
14028TIP3    H163575   0.084   3.639  14.782 -0.2566 -1.6317  0.1297
14028TIP3    H263576   0.158   3.718  14.889 -1.0794  0.8755 -1.0756
14029TIP3   OH263577   2.523   5.180   6.146  0.3214 -0.1312 -0.3074
14029TIP3    H163578   2.463   5.225   6.086  0.4986 -2.4014 -2.3693
14029TIP3    H263579   2.474   5.104   6.176  1.3539 -0.7498 -0.1404
14030TIP3   OH263580   2.786   0.862  17.311 -0.4052 -0.5850 -0.2821
14030TIP3    H163581   2.821   0.926  17.249 -2.1088  1.1933  0.4825
14030TIP3    H263582   2.728   0.807  17.258 -1.5014  0.6376 -0.4153
14031TIP3   OH263583   3.136   6.311   5.838 -0.2111  0.1451 -0.5791
14031TIP3    H163584   3.048   6.275   5.824 -0.6872  1.6490 -1.5767
14031TIP3    H263585   3.144   6.314   5.934 -1.7084  1.0370 -0.4403
14032TIP3   OH263586   1.647   3.647  17.213  0.4206  0.1305 -0.1792
14032TIP3    H163587   1.628   3.570  17.267 -0.7323 -0.3151 -1.1640
14032TIP3    H263588   1.723   3.622  17.160  0.9092  0.1891  0.4901
14033TIP3   OH263589   3.198   2.529  14.297 -0.0429 -0.4588  0.3556
14033TIP3    H163590   3.164   2.468  14.363 -1.5967 -1.2520 -1.0867
14033TIP3    H263591   3.120   2.577  14.266  0.8877  1.0205  0.2098
14034TIP3   OH263592   0.185   0.405  16.155 -0.3468  0.6156  0.2022
14034TIP3    H163593   0.197   0.386  16.062  1.7712 -1.4646  0.7914
14034TIP3    H263594   0.273   0.426  16.187 -0.5279 -1.2746  2.1736
14035TIP3   OH263595   6.403   5.668   5.855  0.1229  0.4067 -0.7260
14035TIP3    H163596   6.323   5.679   5.803  0.0579  1.0242 -0.5043
14035TIP3    H263597   6.411   5.750   5.903  1.1305  0.5137 -1.0691
14036TIP3   OH263598   5.448   0.935  15.457  0.4031  0.5472  1.0276
14036TIP3    H163599   5.379   0.962  15.517  0.4776  0.3704  1.1936
14036TIP3    H263600   5.431   0.985  15.377 -2.0042 -1.9640 -0.2042
14037TIP3   OH263601   1.309   3.935  13.104  0.4577 -0.2211  0.2385
14037TIP3    H163602   1.345   3.973  13.024  1.8885  0.6772  1.2650
14037TIP3    H263603   1.377   3.874  13.134  0.1943 -0.1247  1.0569
14038TIP3   OH263604   2.737   0.417  14.852 -0.0038 -0.1572  0.0387
14038TIP3    H163605   2.657   0.380  14.889 -1.1948 -1.1884 -3.2472
14038TIP3    H263606   2.797   0.343  14.846  0.6362  0.2640  0.9211
14039TIP3   OH263607   0.505   5.589   3.964  0.8597  0.8916 -0.3266
14039TIP3    H163608   0.473   5.507   3.926  1.2988 -0.3695  1.8378
14039TIP3    H263609   0.599   5.588   3.947  1.3849 -0.5646  2.0824
14040TIP3   OH263610   1.113   1.824  16.040  0.2414  0.5003  0.2110
14040TIP3    H163611   1.121   1.783  16.126  1.7914 -0.1112 -0.1872
14040TIP3    H263612   1.019   1.820  16.020  0.2056 -2.0226  0.6089
14041TIP3   OH263613   6.287   3.551  15.769  0.0637 -0.3610  0.2990
14041TIP3    H163614   6.201   3.514  15.750 -0.7136  1.1988  0.5625
14041TIP3    H263615   6.347   3.476  15.769 -1.3749 -1.5546  0.6272
14042TIP3   OH263616   3.084   3.840   1.271  0.0288  0.0711 -0.2452
14042TIP3    H163617   3.002   3.855   1.225  0.7236  1.1292 -1.1882
14042TIP3    H263618   3.070   3.878   1.358  0.2261  2.3062 -1.1199
14043TIP3   OH263619   3.741   5.817  14.012 -0.2970  0.0082  0.2616
14043TIP3    H163620   3.752   5.910  14.030 -1.4377  0.0242  0.9532
14043TIP3    H263621   3.660   5.812  13.961  0.2558 -0.5333 -0.5951
14044TIP3   OH263622   5.775   4.269  16.356 -0.0667  0.3959  0.0183
14044TIP3    H163623   5.721   4.191  16.342  0.8527 -0.2555  0.0126
14044TIP3    H263624   5.850   4.258  16.297  0.7715  0.5939  1.0071
14045TIP3   OH263625   0.954   2.642  12.812  0.1194  0.4798  0.0091
14045TIP3    H163626   0.937   2.727  12.852  2.9245  2.1561 -1.9084
14045TIP3    H263627   1.003   2.593  12.878  0.7992  1.4499  0.2501
14046TIP3   OH263628   4.004   0.445  16.439  0.0188  0.1643 -0.9410
14046TIP3    H163629   3.969   0.494  16.514  1.3954 -0.0191 -0.1375
14046TIP3    H263630   4.005   0.508  16.367 -2.7260 -0.0545 -1.2807
14047TIP3   OH263631   2.246   2.083  11.901  0.2167 -0.1867  0.5491
14047TIP3    H163632   2.323   2.031  11.879  0.8427 -0.4371  3.0406
14047TIP3    H263633   2.174   2.042  11.854  0.9935 -2.2680  1.1007
14048TIP3   OH263634   1.280   0.836   1.927 -0.6052  0.3780  1.0525
14048TIP3    H163635   1.361   0.885   1.932 -1.2008  1.2961  2.1529
14048TIP3    H263636   1.272   0.793   2.012 -2.1437  1.7893  1.6825
14049TIP3   OH263637   1.126   2.336   5.026  0.4623 -0.2512 -0.5330
14049TIP3    H163638   1.168   2.271   4.970  0.5005 -1.3657  0.7484
14049TIP3    H263639   1.052   2.290   5.065  1.5154 -0.1412  1.7806
14050TIP3   OH263640   2.192   4.208   2.280 -0.4842  0.1139  0.7375
14050TIP3    H163641   2.266   4.174   2.231 -1.1015 -1.1185  0.6109
14050TIP3    H263642   2.116   4.192   2.222 -0.8995  1.0008  1.0178
14051TIP3   OH263643   0.804   0.283  12.170 -0.5434  0.3382 -0.3951
14051TIP3    H163644   0.810   0.239  12.255  1.2565  0.8434 -0.2296
14051TIP3    H263645   0.713   0.268  12.143 -1.5133  1.0632  2.0852
14052TIP3   OH263646   2.536   5.108  11.206  0.1626  0.2643  0.0514
14052TIP3    H163647   2.570   5.027  11.169  0.1643  0.4757 -0.4124
14052TIP3    H263648   2.527   5.167  11.131  0.1723  0.6957  0.3866
14053TIP3   OH263649   2.421   2.657  11.905 -0.2117  0.5023  0.8813
14053TIP3    H163650   2.392   2.574  11.869 -0.2523  0.8773  0.0180
14053TIP3    H263651   2.452   2.636  11.994 -0.9845 -0.2799  0.9784
14054TIP3   OH263652   5.631   2.637   3.608 -0.2389  0.2163 -0.5632
14054TIP3    H163653   5.608   2.680   3.525 -0.4427 -0.1332 -0.6882
14054TIP3    H263654   5.727   2.632   3.607 -0.2338  0.3507 -0.7095
14055TIP3   OH263655   2.088   6.351   3.758  0.1731 -0.6586  0.0003
14055TIP3    H163656   2.097   6.322   3.848  0.8539  1.9988  0.8813
14055TIP3    H263657   2.003   6.394   3.755  0.9232  0.8857 -0.0787
14056TIP3   OH263658   1.921   1.392  12.011  0.2900 -0.2420  0.3676
14056TIP3    H163659   1.881   1.479  12.017  0.7855 -0.1251  2.8698
14056TIP3    H263660   1.882   1.354  11.932 -1.4179  1.4945  0.2804
14057TIP3   OH263661   5.324   0.687   1.490 -0.0775 -0.3691 -0.1649
14057TIP3    H163662   5.317   0.776   1.455  0.7316 -0.3000 -0.1627
14057TIP3    H263663   5.354   0.635   1.416 -1.5291 -0.8445 -0.4449
14058TIP3   OH263664   6.500   1.572   1.390  0.3964 -0.0180  0.4134
14058TIP3    H163665   6.541   1.624   1.321  0.7395  0.0351  0.6545
14058TIP3    H263666   6.564   1.571   1.461  0.3402 -0.6590  0.4612
14059TIP3   OH263667   3.485   5.663  16.823 -0.0037  0.0643 -0.3466
14059TIP3    H163668   3.433   5.742  16.808  0.2640  0.4321  0.6187
14059TIP3    H263669   3.523   5.644  16.737 -3.0524 -1.2310 -1.5425
14060TIP3   OH263670   3.841   5.497   2.978  0.2047 -0.3425  0.1564
14060TIP3    H163671   3.764   5.451   2.946  1.2866 -2.3919  0.3147
14060TIP3    H263672   3.893   5.515   2.900  0.2287 -0.2680  0.1895
14061TIP3   OH263673   4.479   2.381   5.537  0.0097  0.2554  0.0630
14061TIP3    H163674   4.496   2.459   5.590  0.7045  0.2575 -0.1528
14061TIP3    H263675   4.561   2.332   5.539  0.6001  0.9973 -2.2105
14062TIP3   OH263676   4.229   3.103  11.428 -0.5181 -0.9170  0.1717
14062TIP3    H163677   4.234   3.161  11.503 -0.3639  1.2961 -1.4534
14062TIP3    H263678   4.310   3.051  11.432  0.3366  0.4101  0.5812
14063TIP3   OH263679   3.119   6.767  12.051 -0.1155  0.2083 -0.4766
14063TIP3    H163680   3.117   6.671  12.049  0.1960  0.2006 -0.4175
14063TIP3    H263681   3.205   6.789  12.087 -1.0381  0.4782  1.7741
14064TIP3   OH263682   3.730   6.081   4.985 -0.1012 -0.6573 -0.5409
14064TIP3    H163683   3.738   6.174   4.963 -0.5588 -0.6748 -0.7965
14064TIP3    H263684   3.660   6.049   4.929 -0.8873 -0.8496  0.5262
14065TIP3   OH263685   4.773   1.682   2.641  0.0324  0.3439 -0.0593
14065TIP3    H163686   4.743   1.624   2.571 -0.5663  0.6323 -0.0506
14065TIP3    H263687   4.848   1.728   2.603  0.7853 -0.7339  0.0808
14066TIP3   OH263688   5.982   4.865   0.597  0.3535 -0.1971 -0.2915
14066TIP3    H163689   5.959   4.790   0.651  1.7509 -1.9968 -2.0220
14066TIP3    H263690   6.072   4.886   0.622  1.4090 -1.7345 -2.5057
14067TIP3   OH263691   6.544   1.835  12.790 -0.3857 -0.5104  0.0022
14067TIP3    H163692   6.473   1.771  12.801 -0.4499 -0.2704  1.0882
14067TIP3    H263693   6.596   1.827  12.870 -0.3399  0.7282  0.1142
14068TIP3   OH263694   5.215   4.457  16.563 -0.4026 -0.4087  0.6821
14068TIP3    H163695   5.164   4.453  16.644 -0.6214 -1.6474  0.5029
14068TIP3    H263696   5.186   4.381  16.513  1.3842 -0.9708  0.4273
14069TIP3   OH263697   5.899   0.532  16.242  0.1877 -0.7412 -0.6703
14069TIP3    H163698   5.924   0.470  16.310 -1.8313  0.6968  1.5226
14069TIP3    H263699   5.929   0.617  16.274  0.1143 -0.1480 -2.0820
14070TIP3   OH263700   3.603   5.138   1.783 -0.4673  0.4462 -0.2567
14070TIP3    H163701   3.601   5.219   1.833 -0.8827  0.6578 -0.6083
14070TIP3    H263702   3.595   5.068   1.848 -0.8424  0.7114 -0.0187
14071TIP3   OH263703   0.380   0.402   4.905  0.0197 -0.4803 -0.4258
14071TIP3    H163704   0.457   0.451   4.932  0.4554 -1.3907  0.0404
14071TIP3    H263705   0.310   0.432   4.963  0.8992 -2.3020  1.7333
14072TIP3   OH263706   1.692   1.501   0.290 -0.3291  0.3872 -0.1198
14072TIP3    H163707   1.720   1.453   0.368  1.6522  2.7477  0.7838
14072TIP3    H263708   1.769   1.553   0.266 -0.7535 -0.4408 -3.8823
14073TIP3   OH263709   5.689   1.085  12.158 -0.2019 -0.0920 -0.1898
14073TIP3    H163710   5.705   0.992  12.139 -0.2592 -0.0130 -0.6391
14073TIP3    H263711   5.659   1.086  12.249  3.1339 -0.1547  1.0379
14074TIP3   OH263712   1.101   2.806  14.343 -0.2273  0.2857  0.0642
14074TIP3    H163713   1.101   2.721  14.298  2.8308  0.5085 -0.5591
14074TIP3    H263714   1.047   2.862  14.288  1.6734 -0.0271 -2.3082
14075TIP3   OH263715   3.566   2.834  12.865 -0.6573  0.2439  0.1820
14075TIP3    H163716   3.493   2.896  12.863 -1.3506 -0.5662 -0.3309
14075TIP3    H263717   3.623   2.861  12.793 -1.0436  0.1834 -0.1449
14076TIP3   OH263718   4.943   4.703  14.740 -0.0242 -0.3490 -0.0150
14076TIP3    H163719   4.895   4.742  14.667  0.6933 -0.6401 -0.6635
14076TIP3    H263720   4.877   4.656  14.791 -0.3888 -1.0188 -1.0683
14077TIP3   OH263721   2.791   2.925   3.125 -0.1836  0.1483  0.1016
14077TIP3    H163722   2.729   2.915   3.053  0.5249 -0.0582 -0.4953
14077TIP3    H263723   2.790   3.019   3.144 -0.2558  0.2289 -0.2899
14078TIP3   OH263724   4.543   2.816   1.701  0.6091 -0.0845 -0.2161
14078TIP3    H163725   4.546   2.857   1.615 -1.3896  1.3874  0.3287
14078TIP3    H263726   4.454   2.780   1.707  0.3446  0.7754  1.5989
14079TIP3   OH263727   6.165   3.448  13.369 -0.5844  0.4165 -0.3726
14079TIP3    H163728   6.151   3.388  13.442  1.0579 -3.2573 -2.7963
14079TIP3    H263729   6.243   3.498  13.394 -0.1442 -0.6551  0.4638
14080TIP3   OH263730   3.304   3.208   2.862 -0.3603  0.2100  0.0400
14080TIP3    H163731   3.212   3.212   2.887  0.1180 -0.8968  2.1648
14080TIP3    H263732   3.306   3.157   2.781 -1.7074  1.5702 -0.9150
14081TIP3   OH263733   0.976   5.443   1.403 -0.3392 -0.4773  0.6350
14081TIP3    H163734   0.921   5.466   1.478 -0.7829  0.4196  0.0477
14081TIP3    H263735   1.040   5.382   1.439 -0.0896  0.4912  1.9205
14082TIP3   OH263736   0.858   5.729   3.420 -0.2993  0.0908  0.2392
14082TIP3    H163737   0.888   5.773   3.340  0.0089  2.5918  1.6405
14082TIP3    H263738   0.788   5.786   3.454  1.2963  0.5119  3.0614
14083TIP3   OH263739   0.036   2.827  13.341 -0.1849  0.3645  0.2151
14083TIP3    H163740   0.109   2.889  13.338 -1.5257  2.1398  1.8385
14083TIP3    H263741  -0.041   2.882  13.354 -1.5786 -1.6100  0.6906
14084TIP3   OH263742   2.468   3.637   5.317 -0.4416 -0.1971 -0.5310
14084TIP3    H163743   2.465   3.715   5.372  1.0866 -0.8212  0.5202
14084TIP3    H263744   2.383   3.635   5.272 -1.6981  0.4549  1.6775
14085TIP3   OH263745   1.011   0.812   6.269  0.5019  0.1519 -0.6211
14085TIP3    H163746   1.104   0.789   6.259 -0.1074 -1.8886 -2.3777
14085TIP3    H263747   0.965   0.730   6.253 -1.6781  1.4585 -1.3570
14086TIP3   OH263748   5.953   2.891   3.838 -0.0545  0.4207 -0.2972
14086TIP3    H163749   5.955   2.982   3.867 -0.7402  1.0085 -1.9579
14086TIP3    H263750   6.033   2.853   3.874  0.2091  1.6599  0.4860
14087TIP3   OH263751   0.961   1.585   5.719  0.5087 -0.0064  0.4655
14087TIP3    H163752   0.943   1.584   5.624  0.2397  0.8886  0.5050
14087TIP3    H263753   1.029   1.519   5.730  1.7892  1.0703 -0.6124
14088TIP3   OH263754   1.676   4.195  16.193  0.4229 -0.2719 -0.0252
14088TIP3    H163755   1.586   4.227  16.200  1.8858  4.5489  0.4505
14088TIP3    H263756   1.703   4.217  16.104  1.5088 -0.3657  0.2617
14089TIP3   OH263757   5.519   0.110   3.487  0.2180  0.2641  0.5166
14089TIP3    H163758   5.428   0.132   3.466  0.1272 -0.4241  0.1624
14089TIP3    H263759   5.561   0.100   3.401 -0.2239 -2.8780  0.5556
14090TIP3   OH263760   6.004   2.788  16.326 -0.4491  0.0681  0.3813
14090TIP3    H163761   5.970   2.702  16.300 -0.1438  0.2701 -0.7326
14090TIP3    H263762   5.983   2.845  16.252  0.3863  0.6944  0.6162
14091TIP3   OH263763   5.797   4.352   1.378  0.2520 -0.1938 -0.0503
14091TIP3    H163764   5.740   4.376   1.306  2.0718 -1.3029 -1.9797
14091TIP3    H263765   5.768   4.264   1.404  0.5117 -0.3870 -0.4151
14092TIP3   OH263766   6.153   0.908   0.340 -0.0275 -0.1292  0.0079
14092TIP3    H163767   6.219   0.900   0.271  1.0845 -2.9597  1.2500
14092TIP3    H263768   6.072   0.928   0.293  1.2862  1.5313 -1.7384
14093TIP3   OH263769   3.513   6.629  14.411  0.2207  0.5012 -0.4986
14093TIP3    H163770   3.544   6.564  14.348  0.9469 -1.1493  1.4680
14093TIP3    H263771   3.545   6.713  14.377  0.6468 -0.3399 -2.2592
14094TIP3   OH263772   3.638   5.526   5.511  0.5155 -0.1517  0.7446
14094TIP3    H163773   3.649   5.522   5.606  1.9710 -1.2337  0.5609
14094TIP3    H263774   3.649   5.618   5.489  1.4484 -0.0784  1.4879
14095TIP3   OH263775   0.814   4.421  14.210  0.2459 -0.1128  0.2353
14095TIP3    H163776   0.811   4.456  14.299  1.4992  1.1996 -0.1923
14095TIP3    H263777   0.739   4.463  14.166 -0.7702 -1.2695  0.8077
14096TIP3   OH263778   2.427   2.359   2.303 -0.3092  0.4914  0.2099
14096TIP3    H163779   2.432   2.452   2.325  1.6392  0.4432  0.1030
14096TIP3    H263780   2.340   2.332   2.333 -1.2344  2.5056 -0.4830
14097TIP3   OH263781   4.715   4.877   4.177  0.1018 -0.7360 -0.9030
14097TIP3    H163782   4.665   4.884   4.096 -0.9022 -1.0919 -0.3286
14097TIP3    H263783   4.800   4.843   4.150  0.4998  1.0346 -2.0546
14098TIP3   OH263784   4.537   1.189  14.658  0.0468  0.1819  0.3814
14098TIP3    H163785   4.510   1.229  14.741  0.8876  0.7759  0.3827
14098TIP3    H263786   4.505   1.099  14.663 -1.9198  0.8428  0.3604
14099TIP3   OH263787   5.634   0.759   4.276  0.3939  0.1990 -0.1422
14099TIP3    H163788   5.603   0.832   4.331  0.0110 -0.9532  1.2194
14099TIP3    H263789   5.687   0.802   4.208  0.3341  1.7327  0.7235
14100TIP3   OH263790   2.893   0.517  14.520  0.1515 -0.3227 -0.2292
14100TIP3    H163791   2.955   0.555  14.459 -0.6763  2.4489  0.5274
14100TIP3    H263792   2.941   0.512  14.603 -0.4144  1.3132  0.2250
14101TIP3   OH263793   4.147   4.444   3.417  0.1343 -1.1475  0.1586
14101TIP3    H163794   4.082   4.395   3.466  1.2763 -3.0133 -0.1110
14101TIP3    H263795   4.098   4.486   3.346 -0.7264 -2.8947 -0.3206
14102TIP3   OH263796   1.905   4.534   3.767  0.3782  0.2755 -0.0910
14102TIP3    H163797   1.883   4.526   3.859  0.4776 -0.7143 -0.1436
14102TIP3    H263798   2.000   4.531   3.764  0.3502 -1.3423 -0.3391
14103TIP3   OH263799   1.811   2.923  14.814 -0.1678 -0.1556 -0.1554
14103TIP3    H163800   1.882   2.963  14.863  0.1851 -0.3991 -0.4655
14103TIP3    H263801   1.841   2.833  14.797 -0.1408  0.0238 -1.1091
14104TIP3   OH263802   3.528   3.043   4.369  0.3159 -0.5084  0.0967
14104TIP3    H163803   3.520   2.953   4.401  1.2554 -0.7051 -0.2082
14104TIP3    H263804   3.470   3.093   4.426 -0.5344 -1.3603  0.0188
14105TIP3   OH263805   6.592   2.942  12.565  0.0318 -0.2900  0.3952
14105TIP3    H163806   6.550   2.958  12.480 -0.8868  0.1765  0.9178
14105TIP3    H263807   6.656   3.012  12.574  1.5635 -1.4645 -0.7711
14106TIP3   OH263808   4.901   5.841  16.766  0.1442 -0.3605  0.6424
14106TIP3    H163809   4.922   5.785  16.841 -0.6599 -1.0002  0.4114
14106TIP3    H263810   4.979   5.836  16.710  0.3876 -0.6272  0.9993
14107TIP3   OH263811   0.681   0.721   3.428  0.1029 -0.1311 -0.1036
14107TIP3    H163812   0.754   0.660   3.414  1.6268  1.9224 -1.8283
14107TIP3    H263813   0.620   0.702   3.357  0.6035  0.3528 -0.6745
14108TIP3   OH263814   6.372   3.658   3.721 -0.3093 -0.3891 -0.1890
14108TIP3    H163815   6.341   3.662   3.631  2.5569 -0.0188 -1.2631
14108TIP3    H263816   6.463   3.629   3.714  0.6685  1.5954  2.3814
14109TIP3   OH263817   6.461   2.460  10.843  0.3913 -0.3446  0.0592
14109TIP3    H163818   6.481   2.367  10.855  0.3692 -0.4012 -0.3196
14109TIP3    H263819   6.382   2.474  10.895 -0.3369 -0.8388 -0.8784
14110TIP3   OH263820   0.874   6.770   0.269 -0.0973 -0.6921 -0.2184
14110TIP3    H163821   0.799   6.784   0.327 -0.3230  2.8043 -1.1624
14110TIP3    H263822   0.940   6.730   0.324 -1.9289 -1.9923  1.1528
14111TIP3   OH263823   1.934   2.176   1.332 -0.2536  0.3798 -0.4140
14111TIP3    H163824   1.914   2.251   1.276 -3.0415  0.2826  0.3237
14111TIP3    H263825   1.852   2.127   1.338  0.7042 -1.1332  1.5048
14112TIP3   OH263826   0.104   5.575  14.425 -0.0600  0.1431 -0.0949
14112TIP3    H163827   0.161   5.499  14.438 -0.7340 -0.6095 -1.3528
14112TIP3    H263828   0.161   5.640  14.384  0.2156 -0.1444 -0.1776
14113TIP3   OH263829   4.391   0.520   2.647 -0.5227  0.0288 -0.0815
14113TIP3    H163830   4.421   0.574   2.574  1.7973 -1.0559 -0.0047
14113TIP3    H263831   4.384   0.581   2.720 -0.4967  0.6930 -0.6228
14114TIP3   OH263832   6.629   3.117   1.068  0.1907  0.0498 -0.0829
14114TIP3    H163833   6.591   3.034   1.040  0.9545  0.1468 -1.5345
14114TIP3    H263834   6.602   3.127   1.159  1.3958 -2.5616  0.6604
14115TIP3   OH263835   0.622   1.744   2.197  0.0624  0.1840  0.5696
14115TIP3    H163836   0.559   1.809   2.227  0.2053  0.2711  0.6786
14115TIP3    H263837   0.706   1.788   2.201  0.0193  0.3829 -0.4919
14116TIP3   OH263838   1.988   2.791  15.501 -0.6271  0.8565 -0.7392
14116TIP3    H163839   2.081   2.793  15.478 -0.7027 -0.8622 -1.3443
14116TIP3    H263840   1.945   2.840  15.431 -0.3783 -0.3221 -1.7588
14117TIP3   OH263841   3.546   5.031   1.084  0.2451  0.5018  0.0407
14117TIP3    H163842   3.457   5.062   1.100  0.1844  0.5429 -0.3625
14117TIP3    H263843   3.585   5.097   1.027  1.6595  2.2627  2.8058
14118TIP3   OH263844   1.108   6.372  13.739 -0.8206  0.4001  0.0203
14118TIP3    H163845   1.190   6.421  13.731 -0.5024  0.1185  1.2759
14118TIP3    H263846   1.042   6.438  13.756 -0.1297  0.4163  3.4986
14119TIP3   OH263847   1.161   3.214   4.626 -0.0906 -0.0908 -0.9417
14119TIP3    H163848   1.197   3.247   4.543  0.7032 -0.7612 -0.8789
14119TIP3    H263849   1.174   3.285   4.688  0.4561 -0.0534 -1.0971
14120TIP3   OH263850   6.595   0.223   0.696 -0.5805  0.5339 -0.1466
14120TIP3    H163851   6.514   0.273   0.685 -1.0388  0.1181  1.1469
14120TIP3    H263852   6.619   0.237   0.788  0.5127  0.1887 -0.3661
14121TIP3   OH263853   1.107   1.122   0.613  0.1876  0.0760  0.0397
14121TIP3    H163854   1.083   1.038   0.652  0.7078  0.4202  1.1220
14121TIP3    H263855   1.194   1.141   0.649  1.0894 -0.0021 -1.9505
14122TIP3   OH263856   3.150   6.327  17.143  0.9612  0.1893 -0.3129
14122TIP3    H163857   3.187   6.394  17.200  0.2701  0.1333  0.2112
14122TIP3    H263858   3.208   6.252  17.153  0.3828 -0.1155  0.9922
14123TIP3   OH263859   0.915   0.261   3.501  0.0522  0.7871 -0.2493
14123TIP3    H163860   0.906   0.353   3.529 -0.3200  0.7175 -0.1285
14123TIP3    H263861   0.861   0.212   3.564  0.3527  0.4720 -0.2357
14124TIP3   OH263862   4.444   4.175   4.781  0.1705  0.5099  0.3623
14124TIP3    H163863   4.487   4.090   4.790 -2.0929 -0.5042  2.8312
14124TIP3    H263864   4.411   4.195   4.869  0.1980  3.7423 -0.2442
14125TIP3   OH263865   5.768   3.657   1.682 -0.0616 -0.1534 -0.7546
14125TIP3    H163866   5.769   3.591   1.751 -1.1971  1.2387  0.6819
14125TIP3    H263867   5.675   3.671   1.663  0.0909  1.4674 -0.5088
14126TIP3   OH263868   4.047   2.752   2.151 -0.1933  0.2021  0.6025
14126TIP3    H163869   4.128   2.712   2.118 -0.8425 -0.8494  0.2453
14126TIP3    H263870   4.001   2.781   2.072 -0.0991  0.9675  0.8165
14127TIP3   OH263871   3.636   2.233  12.831 -0.4285  0.0473  0.5184
14127TIP3    H163872   3.641   2.319  12.790 -1.3722 -0.8018 -1.5353
14127TIP3    H263873   3.572   2.185  12.778  0.8356 -2.2428  0.9277
14128TIP3   OH263874   6.302   6.284  13.423 -0.1117  0.0465 -0.1508
14128TIP3    H163875   6.354   6.228  13.366  1.0901 -0.3830  1.2869
14128TIP3    H263876   6.305   6.240  13.508  0.5596  2.0873  0.9417
14129TIP3   OH263877   5.766   2.470   1.940  0.2893  0.4481  0.0378
14129TIP3    H163878   5.750   2.459   2.034 -0.7322  0.2154 -0.1523
14129TIP3    H263879   5.860   2.489   1.934  0.4534  0.0424  1.0658
14130TIP3   OH263880   5.583   2.520  13.308  0.4545  0.6441 -0.3854
14130TIP3    H163881   5.644   2.503  13.379  1.5069 -0.0392 -1.4139
14130TIP3    H263882   5.497   2.527  13.350  1.2097  1.5020  1.0753
14131TIP3   OH263883   3.158   2.672   0.051  0.2577  0.6045  0.2208
14131TIP3    H163884   3.145   2.650   0.143 -1.1658 -3.8822 -0.7966
14131TIP3    H263885   3.230   2.615   0.023  3.0242  4.2963 -0.8742
14132TIP3   OH263886   6.491   1.134   1.972 -0.4864  0.2787 -0.0957
14132TIP3    H163887   6.399   1.157   1.961 -1.0410 -1.0870  1.3284
14132TIP3    H263888   6.525   1.201   2.032  0.2616  2.4603 -2.7383
14133TIP3   OH263889   2.166   0.807  16.761  0.3452  0.0957 -0.0946
14133TIP3    H163890   2.119   0.837  16.683 -1.0260 -0.6573  0.4292
14133TIP3    H263891   2.242   0.865  16.766 -0.0372  0.7558 -1.4651
14134TIP3   OH263892   1.154   3.287  10.849  0.3069 -0.4896 -0.0021
14134TIP3    H163893   1.069   3.294  10.807  1.0611  0.2803 -1.4502
14134TIP3    H263894   1.213   3.257  10.781  0.8451 -3.1533  1.4896
14135TIP3   OH263895   5.170   6.665   1.667 -0.3350  0.1851 -0.1480
14135TIP3    H163896   5.224   6.732   1.708 -0.4291  0.4837 -0.5077
14135TIP3    H263897   5.160   6.598   1.734 -1.2976  1.1062  0.6713
14136TIP3   OH263898   1.305   5.843   4.006 -0.4214 -0.2129 -0.2071
14136TIP3    H163899   1.340   5.874   3.923 -0.6379  0.2687 -0.1190
14136TIP3    H263900   1.349   5.759   4.020  2.5926  1.4054  1.0647
14137TIP3   OH263901   2.627   0.679  12.382  0.5535 -0.2466  0.1022
14137TIP3    H163902   2.593   0.606  12.330  1.1656 -0.1168 -0.5014
14137TIP3    H263903   2.651   0.640  12.466  0.5330 -0.6698 -0.0879
14138TIP3   OH263904   2.115   4.646  15.881 -0.2202  0.3399  0.3258
14138TIP3    H163905   2.210   4.649  15.879 -0.2170  1.3160  1.2265
14138TIP3    H263906   2.090   4.714  15.944 -1.6185  1.7937 -1.6921
14139TIP3   OH263907   5.094   1.245  14.726  0.3852 -0.4685 -0.7003
14139TIP3    H163908   5.011   1.241  14.678  0.5837  1.5340 -1.2893
14139TIP3    H263909   5.070   1.230  14.817 -1.0855  2.5897 -0.4658
14140TIP3   OH263910   5.870   0.079  16.277  0.2904  0.0097  0.1954
14140TIP3    H163911   5.948   0.083  16.221  0.7883  0.2536  0.9033
14140TIP3    H263912   5.866  -0.011  16.307 -1.6177 -0.9703 -2.4946
14141TIP3   OH263913   2.437   3.740  15.278 -0.4935  0.5533  0.3952
14141TIP3    H163914   2.455   3.735  15.372  1.0958 -1.8070  0.0546
14141TIP3    H263915   2.396   3.657  15.257 -3.2440  2.0552 -0.6357
14142TIP3   OH263916   4.091   3.391   1.475 -0.4212  0.5872 -0.2743
14142TIP3    H163917   4.135   3.406   1.391  1.0909  0.8257  0.5243
14142TIP3    H263918   4.102   3.298   1.491  1.3534  0.9042  0.6991
14143TIP3   OH263919   4.192   2.483   1.821 -0.0603  0.4869  0.2922
14143TIP3    H163920   4.280   2.460   1.793  0.7231  2.5162  0.8827
14143TIP3    H263921   4.205   2.540   1.898 -1.9143  0.1156  0.9439
14144TIP3   OH263922   2.451   4.980  14.792  0.6626 -0.4213  0.2503
14144TIP3    H163923   2.367   4.957  14.832  0.6661 -0.8712  0.0102
14144TIP3    H263924   2.504   4.900  14.799  2.5536  0.9159  3.9862
14145TIP3   OH263925   4.281   3.843  12.033 -0.3508  0.2610 -0.1957
14145TIP3    H163926   4.289   3.808  12.122 -0.3370  0.1054 -0.2592
14145TIP3    H263927   4.356   3.806  11.986 -0.1499  0.6365 -0.1741
14146TIP3   OH263928   3.950   5.553   2.272  0.6634  0.7222 -0.2079
14146TIP3    H163929   3.901   5.489   2.325  0.9880  0.7275  0.1016
14146TIP3    H263930   3.904   5.554   2.188 -0.6723  1.6932  0.4933
14147TIP3   OH263931   4.571   2.925   4.448 -0.0728 -0.5970  0.7458
14147TIP3    H163932   4.595   2.941   4.539  0.1561 -2.6348  1.0922
14147TIP3    H263933   4.522   2.843   4.450 -1.8656  0.3496 -0.7378
14148TIP3   OH263934   1.742   5.306   5.245  0.3739  0.0047 -0.2403
14148TIP3    H163935   1.654   5.321   5.211  0.3951  2.4183  0.6324
14148TIP3    H263936   1.799   5.352   5.183  0.9396 -0.6136 -0.1899
14149TIP3   OH263937   5.852   6.068  11.816  0.4653 -0.2526 -0.2119
14149TIP3    H163938   5.831   5.975  11.812 -0.2072 -0.0855 -0.8298
14149TIP3    H263939   5.786   6.105  11.874 -0.5476  0.1535 -1.5716
14150TIP3   OH263940   6.455   1.953  12.577 -0.6086  0.2426 -0.2056
14150TIP3    H163941   6.517   1.982  12.511 -0.1488 -0.3265 -0.0325
14150TIP3    H263942   6.509   1.913  12.646 -1.1737 -0.4549 -0.1540
14151TIP3   OH263943   0.660   6.002  11.415  0.2114  0.1653  0.2530
14151TIP3    H163944   0.730   5.938  11.433  0.1832  0.5575  1.9142
14151TIP3    H263945   0.625   5.975  11.330  1.1630 -1.1500  0.2368
14152TIP3   OH263946   1.010   2.451   4.506 -0.3767 -0.1586 -0.4984
14152TIP3    H163947   0.999   2.478   4.597 -0.4296 -2.5035  0.2739
14152TIP3    H263948   0.953   2.510   4.456 -0.1397  1.3489  0.9306
14153TIP3   OH263949   5.550   5.149   6.629  0.3788  0.4718  0.2093
14153TIP3    H163950   5.508   5.100   6.700  0.8184 -2.1301 -1.1886
14153TIP3    H263951   5.568   5.235   6.666 -0.1566 -0.5055  2.9622
14154TIP3   OH263952   2.114   0.768  14.948 -0.3612 -0.3983 -0.2884
14154TIP3    H163953   2.198   0.765  14.993 -0.5025  3.8950  0.7042
14154TIP3    H263954   2.052   0.734  15.013  0.3120 -1.3268 -0.1170
14155TIP3   OH263955   1.848   6.697  10.715  0.3714 -0.3498  0.1676
14155TIP3    H163956   1.860   6.602  10.718 -0.8741 -0.5107  2.0701
14155TIP3    H263957   1.761   6.709  10.676  0.5042  0.0229 -0.0218
14156TIP3   OH263958   0.595   5.564  11.896  0.5131 -0.1545  0.3069
14156TIP3    H163959   0.517   5.587  11.847  0.0634 -1.8478  0.1425
14156TIP3    H263960   0.619   5.643  11.944  0.0821  1.0994 -1.4462
14157TIP3   OH263961   5.829   0.382  14.153  0.7419  0.0857  0.2532
14157TIP3    H163962   5.792   0.449  14.096  1.6606  0.8356  0.5156
14157TIP3    H263963   5.864   0.316  14.093 -1.7227 -1.0954 -0.0082
14158TIP3   OH263964   3.719   3.215   4.547  0.1661  0.3690  0.5322
14158TIP3    H163965   3.734   3.176   4.461 -0.3849  1.7489 -0.2107
14158TIP3    H263966   3.707   3.140   4.605  0.3550 -0.5843 -0.6249
14159TIP3   OH263967   0.516   4.653   4.743  0.0300 -0.0503 -0.5976
14159TIP3    H163968   0.533   4.736   4.699 -0.3279 -0.0512 -0.7420
14159TIP3    H263969   0.581   4.649   4.813  0.7575 -0.1566 -1.2663
14160TIP3   OH263970   4.808   3.893  13.652 -0.4824  0.4437  0.4407
14160TIP3    H163971   4.810   3.987  13.631  1.0360  0.4606  0.5348
14160TIP3    H263972   4.853   3.886  13.736 -0.9874 -0.3297  0.6579
14161TIP3   OH263973   0.553   4.927  11.668  0.9137 -0.1094  0.5564
14161TIP3    H163974   0.618   4.902  11.602  1.5959  0.0473  1.1527
14161TIP3    H263975   0.477   4.872  11.649  0.7916  0.5223 -0.8721
14162TIP3   OH263976   2.769   2.653  15.442 -0.4764  0.2649  0.3312
14162TIP3    H163977   2.824   2.626  15.515  1.4947  2.1593 -0.3151
14162TIP3    H263978   2.794   2.595  15.370 -1.2792 -0.5898  0.7327
14163TIP3   OH263979   2.444   4.134   1.430  0.1714  0.1095 -0.2136
14163TIP3    H163980   2.401   4.096   1.353  0.8987  0.2194 -0.6812
14163TIP3    H263981   2.506   4.197   1.395  0.5882  0.0907  0.4572
14164TIP3   OH263982   0.623   2.039   3.435 -0.2754 -0.3958 -0.4762
14164TIP3    H163983   0.668   2.110   3.480  0.3818  0.3973 -2.3016
14164TIP3    H263984   0.576   2.082   3.363 -0.5000 -1.7067 -1.1497
14165TIP3   OH263985   4.992   5.675  11.521 -0.0922 -0.7148 -0.0774
14165TIP3    H163986   4.961   5.586  11.539  1.0659 -1.3190 -0.8751
14165TIP3    H263987   4.996   5.717  11.607 -0.8147 -1.3690  0.2922
14166TIP3   OH263988   0.317   0.489   3.452 -0.0968  0.0879 -0.2733
14166TIP3    H163989   0.299   0.403   3.412  4.3727 -0.7999 -0.9743
14166TIP3    H263990   0.327   0.548   3.377  1.7531 -0.0490 -0.1885
14167TIP3   OH263991   3.612   6.016   3.128  0.8328 -1.0105 -0.1320
14167TIP3    H163992   3.520   6.039   3.119  0.8156 -1.4679 -1.2083
14167TIP3    H263993   3.619   5.928   3.091  1.5970 -1.2166  0.4706
14168TIP3   OH263994   0.846   6.302   5.753 -0.1579  0.5182 -0.9410
14168TIP3    H163995   0.815   6.281   5.842 -1.2886 -0.7295 -1.5894
14168TIP3    H263996   0.941   6.295   5.758 -0.2085  0.4450  0.1779
14169TIP3   OH263997   5.583   6.617  17.314  0.0452  0.6534  0.1720
14169TIP3    H163998   5.623   6.630  17.229  0.5833  0.4595  0.3917
14169TIP3    H263999   5.655   6.625  17.377  0.2137 -1.9366  0.4243
14170TIP3   OH264000   2.372   2.139  16.794 -0.3254 -0.4945  0.2191
14170TIP3    H164001   2.371   2.205  16.724  0.6442 -1.0575 -0.3570
14170TIP3    H264002   2.458   2.148  16.835 -0.4766 -0.8848  0.6350
14171TIP3   OH264003   4.104   1.168   5.705  0.0443 -0.0755  0.3860
14171TIP3    H164004   4.040   1.213   5.650 -0.2235 -1.3038 -0.3282
14171TIP3    H264005   4.124   1.231   5.774 -1.4922  0.5527  0.2917
14172TIP3   OH264006   0.809   1.801  15.627  0.6731  0.1895  0.2712
14172TIP3    H164007   0.750   1.749  15.573  1.2851 -1.3001  0.9587
14172TIP3    H264008   0.817   1.884  15.582  0.5396 -0.7220 -1.5190
14173TIP3   OH264009   0.172   4.009  16.348 -0.1455 -0.2881 -0.2315
14173TIP3    H164010   0.228   3.952  16.401 -1.0518  0.0315  1.1380
14173TIP3    H264011   0.083   3.983  16.371 -0.5707  0.8319 -0.5272
14174TIP3   OH264012   2.686   2.455   4.495  0.0224  0.3303 -0.4048
14174TIP3    H164013   2.690   2.483   4.403  1.5423 -2.3752 -1.2941
14174TIP3    H264014   2.777   2.455   4.523 -0.4223  1.0157  1.1047
14175TIP3   OH264015   4.888   2.339  11.846 -0.0019 -0.2400 -0.3976
14175TIP3    H164016   4.795   2.327  11.826 -0.0406 -1.8903  0.5704
14175TIP3    H264017   4.913   2.259  11.892  1.8181  0.3360 -0.3019
14176TIP3   OH264018   4.592   3.045  13.942  0.0779  0.0069 -0.0149
14176TIP3    H164019   4.557   3.135  13.938 -1.4517 -0.2682  3.5305
14176TIP3    H264020   4.679   3.055  13.982 -0.0740 -0.0535  0.3381
14177TIP3   OH264021   4.333   1.751  14.564 -0.2977  0.1289 -0.1158
14177TIP3    H164022   4.245   1.715  14.551  0.3610 -0.8180 -2.4333
14177TIP3    H264023   4.348   1.805  14.487  0.8913  0.9025  0.6324
14178TIP3   OH264024   6.223   4.105   2.240  0.5546 -0.2761 -0.4512
14178TIP3    H164025   6.138   4.136   2.272  0.5859 -0.8577  0.2207
14178TIP3    H264026   6.236   4.150   2.156  0.5021  1.3828  0.3854
14179TIP3   OH264027   3.916   6.632  11.875 -0.4198  0.0119 -0.0962
14179TIP3    H164028   3.921   6.717  11.832  1.2907 -0.0850 -0.1647
14179TIP3    H264029   3.846   6.586  11.830  0.2448  0.5141 -1.7158
14180TIP3   OH264030   3.520   5.712  13.180  0.1926 -0.8319 -0.1447
14180TIP3    H164031   3.537   5.797  13.220  0.4320 -1.3019  0.7885
14180TIP3    H264032   3.465   5.666  13.244  0.1573 -1.4226 -0.5857
14181TIP3   OH264033   6.351   6.101   3.606  0.3851 -0.4018 -0.3095
14181TIP3    H164034   6.360   6.082   3.513 -0.8667  0.6984 -0.6831
14181TIP3    H264035   6.294   6.178   3.610 -0.9057 -1.3633  1.4210
14182TIP3   OH264036   4.575   4.365  15.054 -0.4727 -0.3679  0.4406
14182TIP3    H164037   4.597   4.457  15.042 -0.2557 -0.1877  2.0544
14182TIP3    H264038   4.539   4.359  15.142 -0.5830 -1.8142  0.3322
14183TIP3   OH264039   6.247   3.494  17.201  0.0492 -0.7881 -0.7981
14183TIP3    H164040   6.175   3.465  17.258 -1.1284 -0.7799 -2.2106
14183TIP3    H264041   6.284   3.413  17.166 -1.1783 -0.7849 -2.2675
14184TIP3   OH264042   0.723   6.401  16.116  0.6461 -0.0308 -0.0332
14184TIP3    H164043   0.742   6.369  16.205  1.2677  0.1293 -0.1029
14184TIP3    H264044   0.724   6.497  16.125 -1.0814  0.0060  0.1485
14185TIP3   OH264045   3.194   0.867   1.263 -0.0410  0.3326 -0.1993
14185TIP3    H164046   3.171   0.922   1.188 -0.6271  1.0265  0.4617
14185TIP3    H264047   3.130   0.796   1.263  0.4522 -0.1210 -0.8068
14186TIP3   OH264048   4.179   5.847   0.800  0.8260  0.1464 -0.1270
14186TIP3    H164049   4.238   5.863   0.874  0.4131  0.1513  0.2043
14186TIP3    H264050   4.137   5.931   0.784 -0.9445 -0.4269  1.2657
14187TIP3   OH264051   3.397   6.502   3.831  0.3759 -0.1230 -0.0277
14187TIP3    H164052   3.438   6.571   3.778  1.1422  1.1769  2.1587
14187TIP3    H264053   3.461   6.430   3.831 -0.3613 -0.8636 -2.1919
14188TIP3   OH264054   4.991   4.423   3.569  0.3405 -0.3546 -0.2921
14188TIP3    H164055   4.944   4.504   3.588  0.9020  0.3961 -1.9288
14188TIP3    H264056   5.076   4.433   3.613  0.6160  0.2022 -0.9340
14189TIP3   OH264057   4.208   4.042   4.545 -0.2521 -0.3573  1.0145
14189TIP3    H164058   4.207   4.138   4.547 -0.4435 -0.3461  0.4044
14189TIP3    H264059   4.126   4.018   4.501 -1.4868 -0.8725  3.4040
14190TIP3   OH264060   4.339   3.287  15.923 -0.4863  0.1275  0.1266
14190TIP3    H164061   4.259   3.241  15.895  1.0199 -2.2887 -0.4822
14190TIP3    H264062   4.307   3.357  15.980 -3.0178 -1.1820  0.4857
14191TIP3   OH264063   2.555   1.941  10.884 -0.6998 -0.2121 -0.5101
14191TIP3    H164064   2.459   1.940  10.889 -0.7286  1.0622 -0.5248
14191TIP3    H264065   2.575   2.001  10.813  0.1275  0.4515  0.2624
14192TIP3   OH264066   5.897   0.670  11.837  0.4927  0.4995  0.0987
14192TIP3    H164067   5.877   0.590  11.886  0.9701  1.3871  1.8225
14192TIP3    H264068   5.939   0.727  11.900  0.8684  1.8445 -1.2988
14193TIP3   OH264069   1.089   5.584   5.369  0.4013 -0.3673  0.3783
14193TIP3    H164070   1.073   5.625   5.453  1.5739 -0.0904  0.4875
14193TIP3    H264071   1.093   5.490   5.388 -0.5220 -0.4037  0.4212
14194TIP3   OH264072   0.267   0.804  13.420 -0.3278  0.2453  0.1175
14194TIP3    H164073   0.353   0.841  13.436 -0.6525  1.3412 -0.5419
14194TIP3    H264074   0.213   0.879  13.393 -1.4257 -0.4517  0.2986
14195TIP3   OH264075   1.892   0.961   3.385 -0.6509 -0.3599 -0.3967
14195TIP3    H164076   1.838   0.972   3.463  2.0010  2.7386  1.2353
14195TIP3    H264077   1.981   0.951   3.419  0.6455  1.3060 -2.9772
14196TIP3   OH264078   6.271   2.973   4.780 -0.6559  0.5450  0.3205
14196TIP3    H164079   6.348   3.005   4.732 -1.4650  0.9633 -0.7284
14196TIP3    H264080   6.254   2.887   4.742  0.5707 -0.5067  2.0536
14197TIP3   OH264081   2.251   2.537   0.085 -0.1487  0.0097  0.0594
14197TIP3    H164082   2.163   2.531   0.048  0.5094  1.1284 -1.8407
14197TIP3    H264083   2.298   2.463   0.045  0.2519  0.5231 -0.4398
14198TIP3   OH264084   2.554   4.944   1.797 -0.1055 -0.2223 -0.1119
14198TIP3    H164085   2.468   4.956   1.758  0.1492 -1.7535 -1.2576
14198TIP3    H264086   2.600   4.885   1.736  1.1732 -0.7605  1.3031
14199TIP3   OH264087   0.199   2.411   4.983  0.1470  0.0663 -0.2349
14199TIP3    H164088   0.109   2.399   5.014 -0.7717  1.1644 -2.2681
14199TIP3    H264089   0.214   2.337   4.924  0.8123 -0.4086  0.5022
14200TIP3   OH264090   1.441   3.636   1.123 -0.0603  0.4131 -0.5452
14200TIP3    H164091   1.489   3.686   1.188  2.0389 -1.2435 -0.6867
14200TIP3    H264092   1.471   3.670   1.038 -2.8738  2.6499 -0.7840
14201TIP3   OH264093   5.139   2.328   4.009  0.2889 -0.3502 -0.4183
14201TIP3    H164094   5.071   2.366   3.954 -0.1843 -1.1154 -0.3743
14201TIP3    H264095   5.166   2.249   3.963  0.9221 -0.2316 -0.2676
14202TIP3   OH264096   5.204   3.204   1.937 -0.4412 -0.2581  0.3031
14202TIP3    H164097   5.150   3.144   1.988  0.4110 -1.3888 -0.0944
14202TIP3    H264098   5.285   3.157   1.922 -0.3614  0.3479 -1.4150
14203TIP3   OH264099   5.410   6.020   5.567 -0.6179 -0.2566  0.0755
14203TIP3    H164100   5.405   6.115   5.552 -1.9082 -0.5606 -1.5708
14203TIP3    H264101   5.339   6.002   5.629 -0.8568 -0.2652 -0.2030
14204TIP3   OH264102   2.992   3.920   3.755  0.0154  0.0366  0.3324
14204TIP3    H164103   2.929   3.928   3.826  0.0396  0.0844  0.3486
14204TIP3    H264104   2.938   3.920   3.676 -0.2618 -2.7663  0.4240
14205TIP3   OH264105   2.524   2.297  11.307  0.7037 -0.4258  0.4564
14205TIP3    H164106   2.433   2.279  11.328  0.8783 -0.0833  1.6005
14205TIP3    H264107   2.531   2.282  11.213 -0.4385 -0.8151  0.4208
14206TIP3   OH264108   5.044   1.918  11.713 -0.5527 -0.1424 -0.2862
14206TIP3    H164109   5.096   1.959  11.644  2.4352  1.1572  2.4583
14206TIP3    H264110   5.041   1.826  11.689  1.6138  0.0288 -1.5196
14207TIP3   OH264111   3.538   4.679   6.360  0.9282  0.0619 -0.3533
14207TIP3    H164112   3.515   4.670   6.268  1.7446 -0.9432 -0.4818
14207TIP3    H264113   3.509   4.597   6.400 -0.6090  0.9980  0.5775
14208TIP3   OH264114   4.232   0.369  12.482  0.0226  0.5034  0.1759
14208TIP3    H164115   4.161   0.423  12.518  1.2084  1.1031  1.6905
14208TIP3    H264116   4.276   0.427  12.419 -0.4635  0.3196 -0.3420
14209TIP3   OH264117   0.982   0.616  15.675  0.2025 -0.4347 -0.8154
14209TIP3    H164118   1.043   0.690  15.680  0.8686 -1.0677  1.2829
14209TIP3    H264119   0.907   0.650  15.625  1.6347  0.7805 -2.2589
14210TIP3   OH264120   3.998   1.245   0.423 -0.1700 -0.3615  0.2649
14210TIP3    H164121   4.042   1.262   0.340  0.5469  0.0986  0.7266
14210TIP3    H264122   3.982   1.150   0.424  1.9253 -0.7553  0.6035
14211TIP3   OH264123   0.817   2.078   4.032 -0.1308  0.3649 -0.0888
14211TIP3    H164124   0.798   2.100   3.941  2.2624  0.4477 -0.6308
14211TIP3    H264125   0.780   2.151   4.083  1.2368  1.9633 -1.2751
14212TIP3   OH264126   4.655   1.237   2.957  0.3371 -0.3721 -1.1410
14212TIP3    H164127   4.703   1.246   2.875 -1.3248 -1.5776 -2.3077
14212TIP3    H264128   4.594   1.310   2.958 -0.0698 -0.7033 -1.3034
14213TIP3   OH264129   1.409   5.122  13.971  0.3711 -0.2941 -0.4455
14213TIP3    H164130   1.390   5.186  13.903 -0.7486  1.0840  1.1010
14213TIP3    H264131   1.425   5.173  14.050 -1.7766 -1.8694  1.1484
14214TIP3   OH264132   2.025   3.510  16.472  0.2783  0.0907  0.5644
14214TIP3    H164133   1.960   3.515  16.402  0.2582  0.6609  0.6201
14214TIP3    H264134   2.109   3.507  16.428  0.1950 -1.8020  0.4469
14215TIP3   OH264135   4.825   4.546   0.748  0.1548  0.5315 -0.1169
14215TIP3    H164136   4.871   4.607   0.805  1.4719 -1.5864  1.2073
14215TIP3    H264137   4.743   4.527   0.795  0.1467  0.6341 -0.0905
14216TIP3   OH264138   3.932   2.238   5.010 -0.9425  0.1518 -0.0052
14216TIP3    H164139   3.898   2.313   5.059 -0.0517 -0.4795  1.6740
14216TIP3    H264140   3.918   2.163   5.068 -1.9896 -1.0354 -1.7365
14217TIP3   OH264141   2.917   6.444  11.815  0.1062 -0.1845 -0.0139
14217TIP3    H164142   2.874   6.407  11.738  0.6156 -3.1479  0.9881
14217TIP3    H264143   2.846   6.456  11.878  0.0349 -0.1180 -0.1053
14218TIP3   OH264144   4.035   0.661  16.243  0.0230  0.3592 -0.2392
14218TIP3    H164145   3.966   0.726  16.247 -0.2189  0.1939 -1.4001
14218TIP3    H264146   4.115   0.709  16.264 -0.1327  1.0624 -1.2120
14219TIP3   OH264147   0.833   6.312  15.636 -0.4294  0.5141 -0.6327
14219TIP3    H164148   0.872   6.335  15.721 -0.9838 -1.5152  0.2225
14219TIP3    H264149   0.767   6.380  15.622 -0.3916  0.8490  0.6099
14220TIP3   OH264150   3.470   0.867  12.815  0.6097  0.4541 -0.2596
14220TIP3    H164151   3.462   0.809  12.891 -0.5626  1.5340  0.4675
14220TIP3    H264152   3.474   0.807  12.740 -1.0250 -0.5802  0.4290
14221TIP3   OH264153   5.469   3.453   5.167  0.1011 -0.2313 -0.0337
14221TIP3    H164154   5.387   3.444   5.216  0.4775 -0.7572  0.5209
14221TIP3    H264155   5.532   3.487   5.231  0.5075 -0.5794 -0.2377
14222TIP3   OH264156   5.329   4.974  17.137 -0.7012  0.5075 -0.1098
14222TIP3    H164157   5.308   4.984  17.044 -0.3630  1.8675 -0.0578
14222TIP3    H264158   5.424   4.973  17.141 -0.7099  1.0891  0.2832
14223TIP3   OH264159   5.110   3.891  12.226 -0.8806 -0.0135 -0.3778
14223TIP3    H164160   5.027   3.933  12.205 -1.4019 -1.9099 -2.5384
14223TIP3    H264161   5.122   3.907  12.320 -1.4909  3.9112 -0.8066
14224TIP3   OH264162   2.579   5.541  12.908 -0.5614 -1.1784 -0.6684
14224TIP3    H164163   2.556   5.551  12.815  1.1060 -0.2742 -1.0058
14224TIP3    H264164   2.674   5.537  12.909 -0.4202  0.8181  1.1662
14225TIP3   OH264165   1.460   4.169  13.823 -0.1800  1.0288 -0.4638
14225TIP3    H164166   1.416   4.136  13.901 -0.1791  0.8521 -0.5382
14225TIP3    H264167   1.404   4.143  13.751  1.4665 -1.8389 -0.8622
14226TIP3   OH264168   5.836   6.324   4.937  0.3721  0.6917 -0.5390
14226TIP3    H164169   5.884   6.402   4.965  0.0757  1.4333 -1.9846
14226TIP3    H264170   5.754   6.326   4.986  2.0829 -1.1258  2.7312
14227TIP3   OH264171   2.165   4.629   4.219 -0.8292  0.3691  0.3942
14227TIP3    H164172   2.160   4.536   4.199 -1.5099  0.4096  0.3581
14227TIP3    H264173   2.076   4.661   4.207 -0.1883  1.4851 -1.8836
14228TIP3   OH264174   4.336   6.633   2.522 -0.9346 -0.6552  0.5227
14228TIP3    H164175   4.346   6.728   2.518  0.0072 -0.7745 -0.3770
14228TIP3    H264176   4.309   6.615   2.612 -0.7250  0.4245  0.8099
14229TIP3   OH264177   0.732   3.532   3.987  0.0711 -0.1593  0.1992
14229TIP3    H164178   0.761   3.606   3.934 -0.0351 -0.3396 -0.1134
14229TIP3    H264179   0.689   3.572   4.063  2.5051  0.1696  1.5167
14230TIP3   OH264180   5.606   5.610   2.641  0.3026 -0.0601 -0.0148
14230TIP3    H164181   5.657   5.689   2.623 -0.8078  0.8013  0.5175
14230TIP3    H264182   5.574   5.622   2.731 -1.6557 -0.1064 -0.6623
14231TIP3   OH264183   3.706   4.922   0.631 -0.3819 -0.4828  0.3533
14231TIP3    H164184   3.791   4.916   0.674  0.0548 -1.0647 -0.5673
14231TIP3    H264185   3.642   4.907   0.701  0.2840 -0.5542  0.9492
14232TIP3   OH264186   2.434   0.484   5.285 -0.4780 -0.0973  0.0369
14232TIP3    H164187   2.484   0.565   5.297 -0.3423 -0.3344  1.2335
14232TIP3    H264188   2.346   0.506   5.317 -1.2291  0.3339 -2.1019
14233TIP3   OH264189   6.074   4.572   0.626  0.3493  0.1810  0.5607
14233TIP3    H164190   6.037   4.525   0.701 -2.0896 -1.1700 -1.3523
14233TIP3    H264191   6.080   4.507   0.557 -0.5279  2.0168 -1.3702
14234TIP3   OH264192   6.813   4.458  13.739  0.8064 -0.1321 -0.2227
14234TIP3    H164193   6.858   4.536  13.706 -0.5156  0.4866 -0.6241
14234TIP3    H264194   6.756   4.491  13.808 -0.8429 -0.4804 -1.3543
14235TIP3   OH264195   5.816   0.068  13.450  0.0598  0.3404 -0.0266
14235TIP3    H164196   5.766   0.144  13.481 -1.9263 -0.6990 -0.4715
14235TIP3    H264197   5.840   0.021  13.529  0.5372  0.9619  0.2056
14236TIP3   OH264198   0.818   4.394   5.368  0.3150 -0.1820 -0.7516
14236TIP3    H164199   0.889   4.417   5.428 -0.4109 -0.9467  0.4545
14236TIP3    H264200   0.749   4.359   5.425 -1.4726  1.5388 -1.7472
14237TIP3   OH264201   6.216   3.278  16.922 -0.2063 -0.3704 -0.3791
14237TIP3    H164202   6.250   3.204  16.972 -0.1018  0.3579  0.6671
14237TIP3    H264203   6.201   3.243  16.835 -1.6094 -2.0394  0.4535
14238TIP3   OH264204   1.229   5.865  15.123 -0.0104  0.2346 -0.3946
14238TIP3    H164205   1.198   5.776  15.140  0.0383  0.2878 -0.0135
14238TIP3    H264206   1.168   5.921  15.170  0.8094  0.3286  0.5934
14239TIP3   OH264207   4.526   2.823   5.488 -0.1621  0.3580  0.5491
14239TIP3    H164208   4.539   2.741   5.537  0.3947  1.4368  2.2998
14239TIP3    H264209   4.578   2.887   5.536 -0.6961  1.7775 -0.7177
14240TIP3   OH264210   1.229   6.362  14.088  0.1728 -0.3683 -0.6854
14240TIP3    H164211   1.157   6.362  14.151 -0.1907 -2.2173 -1.0309
14240TIP3    H264212   1.242   6.454  14.066 -0.1872  0.2588  1.4958
14241TIP3   OH264213   5.469   3.623   2.383 -0.7163  0.2063 -0.4265
14241TIP3    H164214   5.541   3.603   2.443 -0.4308 -0.1269 -0.8748
14241TIP3    H264215   5.509   3.621   2.296 -1.2033  0.3285 -0.6566
14242TIP3   OH264216   3.342   4.448   4.103  0.0996 -0.0867  0.0308
14242TIP3    H164217   3.313   4.488   4.185  0.7480 -0.4644  0.4572
14242TIP3    H264218   3.339   4.354   4.119  0.4025 -0.1581 -0.3145
14243TIP3   OH264219   4.130   0.101  14.877  0.4047  0.6524  0.0439
14243TIP3    H164220   4.046   0.146  14.871 -0.1273 -0.4198 -1.1201
14243TIP3    H264221   4.158   0.091  14.786 -0.1319 -2.4242  0.1093
14244TIP3   OH264222   5.408   0.278  16.999 -0.1405  0.5193  0.4827
14244TIP3    H164223   5.344   0.306  17.064 -0.5509  2.5260 -0.6942
14244TIP3    H264224   5.481   0.340  17.008  0.9442 -0.7445  0.7114
14245TIP3   OH264225   0.772   0.198   4.333  1.3008  0.1157  0.3146
14245TIP3    H164226   0.775   0.238   4.247 -0.8676  1.5591  0.8169
14245TIP3    H264227   0.682   0.165   4.341  1.0276  1.1759  2.4498
14246TIP3   OH264228   2.024   2.463   0.453  0.2285  0.1492  0.2588
14246TIP3    H164229   1.943   2.513   0.448 -0.1440 -0.5595 -1.0077
14246TIP3    H264230   2.003   2.378   0.415  1.6787  0.1251 -0.5768
14247TIP3   OH264231   3.321   1.773   7.077  0.6385 -0.4022 -0.0921
14247TIP3    H164232   3.324   1.730   6.992  1.4257  0.5488 -0.5695
14247TIP3    H264233   3.403   1.748   7.120  0.5392 -0.3616  0.1216
14248TIP3   OH264234   0.296   2.669   5.966  0.1277 -0.2309  0.3418
14248TIP3    H164235   0.319   2.719   6.044  1.2680 -0.6297  0.2718
14248TIP3    H264236   0.366   2.687   5.904 -0.5921 -0.1852 -0.4826
14249TIP3   OH264237   5.396   0.444  13.057  0.4159  0.8818 -0.4202
14249TIP3    H164238   5.333   0.423  13.125  1.5777 -0.5868  0.2669
14249TIP3    H264239   5.364   0.526  13.019 -2.5650 -0.4087 -0.9744
14250TIP3   OH264240   2.133   2.977   0.666 -0.4340 -0.3383 -0.5859
14250TIP3    H164241   2.180   3.026   0.734  0.4454 -2.1172  0.1531
14250TIP3    H264242   2.043   2.973   0.697  0.0767 -1.6595  0.8527
14251TIP3   OH264243   3.246   4.327   5.613 -0.1025  0.1241  0.3488
14251TIP3    H164244   3.259   4.395   5.546  1.3228 -0.8840 -0.4412
14251TIP3    H264245   3.204   4.255   5.566  1.1496 -0.6955  0.4434
14252TIP3   OH264246   5.112   1.504   0.271  0.4088  0.1113 -0.1182
14252TIP3    H164247   5.092   1.416   0.238 -1.3540  0.1425  0.7752
14252TIP3    H264248   5.207   1.502   0.288  0.4360 -1.5336 -0.3154
14253TIP3   OH264249   6.103   3.624   5.870  0.0356 -0.1997  0.2367
14253TIP3    H164250   6.054   3.624   5.787  0.1136 -1.4587  0.1604
14253TIP3    H264251   6.194   3.608   5.844  0.3314  1.0225  0.4608
14254TIP3   OH264252   1.130   0.296   4.915  0.3096 -0.7404  0.2895
14254TIP3    H164253   1.169   0.360   4.975 -0.1807 -0.8135  0.6888
14254TIP3    H264254   1.202   0.236   4.894  0.7804 -0.0580 -0.1055
14255TIP3   OH264255   0.511   6.011   5.661  0.1394 -0.3792 -0.5858
14255TIP3    H164256   0.422   5.978   5.674 -0.0511 -0.3758 -1.7856
14255TIP3    H264257   0.552   6.001   5.747 -1.8963  2.4620  0.9099
14256TIP3   OH264258   4.980   1.972  16.895  0.6471 -0.4691 -0.4956
14256TIP3    H164259   4.927   1.938  16.967  1.1415  1.3991  0.8550
14256TIP3    H264260   5.067   1.933  16.909  1.2441  1.2325  1.1145
14257TIP3   OH264261   0.426   3.358   3.523  0.5459 -0.4815  0.6200
14257TIP3    H164262   0.481   3.378   3.598  0.9461  0.7814  0.0182
14257TIP3    H264263   0.338   3.350   3.559  0.8969 -1.0207  1.3745
14258TIP3   OH264264   3.820   3.773  14.787 -1.4553  0.1393 -0.7041
14258TIP3    H164265   3.795   3.738  14.872  0.8369 -0.6548 -0.2824
14258TIP3    H264266   3.847   3.697  14.736  0.6862  0.9181 -0.8435
14259TIP3   OH264267   3.611   3.222  14.221 -0.5018 -0.3085  0.3427
14259TIP3    H164268   3.637   3.155  14.284 -1.7414 -2.7470 -1.5730
14259TIP3    H264269   3.691   3.241  14.172 -0.3094 -1.0589  0.3532
14260TIP3   OH264270   2.596   5.516   5.933  0.1220  0.0007 -0.1585
14260TIP3    H164271   2.620   5.453   6.001 -0.3848 -0.5430 -0.4681
14260TIP3    H264272   2.674   5.570   5.921 -0.4289  1.5238  2.3653
14261TIP3   OH264273   0.095   2.352  10.880 -0.7566  0.0844  0.2154
14261TIP3    H164274   0.058   2.440  10.883 -1.6118 -0.2898  1.6456
14261TIP3    H264275   0.023   2.296  10.854 -0.2188 -0.2121 -0.6801
14262TIP3   OH264276   2.436   1.069  14.433 -0.3070  0.0148 -0.1549
14262TIP3    H164277   2.513   1.038  14.385 -1.1091  1.4971 -2.5651
14262TIP3    H264278   2.377   0.994  14.434  0.1570 -0.3685 -0.5620
14263TIP3   OH264279   6.391   2.894   1.540 -0.4067 -0.3400 -0.1140
14263TIP3    H164280   6.304   2.861   1.565 -1.8485  2.4979 -0.9463
14263TIP3    H264281   6.447   2.871   1.614 -2.2180 -0.9771  1.1382
14264TIP3   OH264282   0.437   0.623   0.040 -0.3749  0.1250  0.3004
14264TIP3    H164283   0.515   0.612   0.095  2.3998 -1.0555 -3.4872
14264TIP3    H264284   0.417   0.716   0.046  3.4534  1.2200 -1.0079
14265TIP3   OH264285   2.439   3.539   4.017  0.1770  0.2057  0.0383
14265TIP3    H164286   2.377   3.473   4.045  0.3857 -0.1437 -0.3147
14265TIP3    H264287   2.496   3.494   3.955 -0.5908  1.0774 -1.3488
14266TIP3   OH264288   6.523   6.531   6.253 -0.0351 -0.6009 -0.3409
14266TIP3    H164289   6.538   6.503   6.343 -0.8742 -1.2030 -0.3772
14266TIP3    H264290   6.432   6.560   6.252  0.1132 -0.1443 -0.8801
14267TIP3   OH264291   2.702   1.152  16.733 -0.1408  0.1857  0.4397
14267TIP3    H164292   2.640   1.211  16.775  0.1130  0.3774  0.5496
14267TIP3    H264293   2.711   1.185  16.644  0.1727  0.4515  0.5668
14268TIP3   OH264294   5.643   0.395  11.590  0.4382  0.3080  0.2533
14268TIP3    H164295   5.674   0.412  11.501  1.5150 -1.1515  0.3280
14268TIP3    H264296   5.548   0.385  11.581  0.4683  0.7101 -0.6218
14269TIP3   OH264297   2.858   6.287  14.809 -0.6508  0.0295 -0.2050
14269TIP3    H164298   2.951   6.297  14.788 -0.0966  0.4313  2.1373
14269TIP3    H264299   2.854   6.211  14.866 -1.5128  0.8767  0.9178
14270TIP3   OH264300   4.823   0.258   5.037  0.3017 -0.4410 -0.5671
14270TIP3    H164301   4.760   0.300   5.096 -1.1682 -0.7676 -1.8399
14270TIP3    H264302   4.818   0.309   4.956 -0.2523 -1.9900 -1.5504
14271TIP3   OH264303   4.463   1.730   2.846 -0.1455  0.4997  0.5939
14271TIP3    H164304   4.396   1.699   2.907  0.9904 -0.5598  1.3485
14271TIP3    H264305   4.418   1.737   2.762 -1.0768 -0.7294  0.9614
14272TIP3   OH264306   6.442   5.196  15.829  1.0537 -0.3795  0.7482
14272TIP3    H164307   6.382   5.166  15.897  1.3204 -1.0380  0.6976
14272TIP3    H264308   6.458   5.288  15.851 -0.6104  0.0521  0.2895
14273TIP3   OH264309   6.305   2.292   4.992  0.4711 -0.2356  0.2251
14273TIP3    H164310   6.277   2.209   5.031  0.6142  0.0376  0.9266
14273TIP3    H264311   6.232   2.316   4.934 -1.3138  0.9860  2.7889
14274TIP3   OH264312   1.042   2.610  13.540 -0.1558  0.3921  0.1704
14274TIP3    H164313   0.971   2.593  13.602  0.8625 -1.4872  0.8942
14274TIP3    H264314   1.120   2.621  13.595  0.0847  3.0447 -0.5691
14275TIP3   OH264315   5.630   1.336  14.318 -0.5829 -0.9475 -0.5311
14275TIP3    H164316   5.587   1.390  14.251  0.5276  0.9139  0.1746
14275TIP3    H264317   5.706   1.300  14.274  0.1443  0.2729 -0.3232
14276TIP3   OH264318   2.358   0.077   3.046 -0.1867  0.2724  0.0086
14276TIP3    H164319   2.453   0.085   3.043 -0.3178  2.4230 -3.2119
14276TIP3    H264320   2.327   0.162   3.076 -1.1649 -0.6961  1.9578
14277TIP3   OH264321   0.521   1.716  13.621  0.1105  0.4492 -0.6657
14277TIP3    H164322   0.582   1.648  13.593 -0.2432  0.1094 -0.6114
14277TIP3    H264323   0.439   1.696  13.575 -0.9623 -0.9987  1.6812
14278TIP3   OH264324   0.862   6.431  13.365  0.2414 -0.1483  0.0277
14278TIP3    H164325   0.804   6.398  13.296 -1.0290  0.1359  0.9275
14278TIP3    H264326   0.950   6.408  13.335 -0.1116  1.4743 -2.5142
14279TIP3   OH264327   1.113   6.167  13.906 -0.2091 -0.2376  0.0546
14279TIP3    H164328   1.086   6.183  13.997 -1.2022 -2.3575  0.1936
14279TIP3    H264329   1.109   6.253  13.865 -1.3377  0.5217  1.6255
14280TIP3   OH264330   5.190   0.704  14.996 -0.2159 -0.3620  0.0860
14280TIP3    H164331   5.102   0.669  14.987 -2.3948  4.6368 -1.1038
14280TIP3    H264332   5.198   0.727  15.088 -1.1587  1.2541 -0.2075
14281TIP3   OH264333   1.652   0.663  16.314 -0.4299  0.0518 -0.0544
14281TIP3    H164334   1.714   0.700  16.251  1.7342 -0.1380  1.8169
14281TIP3    H264335   1.655   0.569  16.299  1.3095 -0.1561  1.2565
14282TIP3   OH264336   2.459   6.643  15.255 -0.5079 -0.0686  0.2759
14282TIP3    H164337   2.476   6.577  15.188 -0.2635  1.4204 -1.2038
14282TIP3    H264338   2.436   6.593  15.333  1.0106 -1.9201 -0.3944
14283TIP3   OH264339   6.672   1.501  10.611 -0.2015 -0.2929  0.1654
14283TIP3    H164340   6.745   1.513  10.550 -0.8877 -0.0948 -0.6247
14283TIP3    H264341   6.658   1.407  10.615 -0.5979 -0.2673 -0.5199
14284TIP3   OH264342   5.834   1.809   3.540 -0.1288  0.0477 -0.0585
14284TIP3    H164343   5.815   1.759   3.619  3.9748  0.2443  1.2753
14284TIP3    H264344   5.752   1.805   3.489 -1.7357 -3.3749  2.3713
14285TIP3   OH264345   0.015   1.082  14.035  0.0778  0.4505 -0.2034
14285TIP3    H164346  -0.031   1.089  13.951 -2.9297 -1.1894  1.1397
14285TIP3    H264347  -0.029   1.010  14.080  2.9103 -0.0574  2.0281
14286TIP3   OH264348   1.472   0.073  16.268 -0.3394 -0.0899  0.3824
14286TIP3    H164349   1.398   0.012  16.266 -0.1386 -0.3675  1.1617
14286TIP3    H264350   1.498   0.081  16.176 -0.1462 -1.4543  0.2917
14287TIP3   OH264351   4.049   4.134  13.639 -0.0912  0.4206 -0.2068
14287TIP3    H164352   4.086   4.142  13.552 -1.7078 -0.9762 -1.0922
14287TIP3    H264353   3.999   4.053  13.637 -1.2380  0.9964  1.6098
14288TIP3   OH264354   4.123   5.582  12.712  0.2031 -0.0957  0.2026
14288TIP3    H164355   4.093   5.493  12.732  0.4118 -0.6373 -1.6609
14288TIP3    H264356   4.048   5.638  12.734 -0.6516 -0.9566 -0.4029
14289TIP3   OH264357   3.762   2.361  16.892  0.3710 -0.3063  0.0708
14289TIP3    H164358   3.735   2.284  16.843  1.3481  0.7260 -2.2285
14289TIP3    H264359   3.825   2.328  16.955 -0.8715 -1.6690  0.6660
14290TIP3   OH264360   5.634   3.606  11.953  0.3476  0.3484  0.3256
14290TIP3    H164361   5.575   3.601  11.877  0.6999  1.6572 -0.0683
14290TIP3    H264362   5.716   3.567  11.922  0.2625  0.2146  0.2666
14291TIP3   OH264363   1.086   3.618  13.367 -0.1565  0.1264  0.3285
14291TIP3    H164364   1.054   3.531  13.343 -0.0754  0.4366 -0.9833
14291TIP3    H264365   1.009   3.662  13.404 -0.5548 -0.0577 -0.2658
14292TIP3   OH264366   4.731   1.038  16.775  1.0331  0.2139 -0.3751
14292TIP3    H164367   4.743   1.000  16.688  3.2195 -0.3442  0.1047
14292TIP3    H264368   4.794   0.992  16.830  0.6354  1.4750  1.2253
14293TIP3   OH264369   1.799   5.327   0.923  0.3628 -0.3036  0.5187
14293TIP3    H164370   1.739   5.252   0.924 -0.2066  0.1519  1.1289
14293TIP3    H264371   1.826   5.337   1.014 -1.9582  2.0981  1.0535
14294TIP3   OH264372   1.549   6.243  16.419 -0.0145 -0.2973  0.1078
14294TIP3    H164373   1.473   6.270  16.368 -0.4765  1.1777  1.5036
14294TIP3    H264374   1.521   6.250  16.510  1.2889 -1.3179  0.6340
14295TIP3   OH264375   0.731   1.439   2.261  0.4981  0.5465 -0.3905
14295TIP3    H164376   0.697   1.519   2.221  1.1883  0.5981 -0.8936
14295TIP3    H264377   0.655   1.381   2.269 -0.0185  1.2669  0.0352
14296TIP3   OH264378   4.940   0.728  15.893  0.8164  0.1718  0.8015
14296TIP3    H164379   4.920   0.805  15.947  1.3307  0.4823  0.5562
14296TIP3    H264380   5.024   0.748  15.853  0.9098 -0.4806  0.6540
14297TIP3   OH264381   4.028   1.516  11.273 -0.0652  0.4299 -0.0061
14297TIP3    H164382   3.954   1.573  11.256 -2.5777 -3.0230 -1.9544
14297TIP3    H264383   4.016   1.486  11.363 -1.5133 -0.6197 -0.5238
14298TIP3   OH264384   1.627   6.722   0.178 -0.3616  0.3499 -0.0088
14298TIP3    H164385   1.597   6.632   0.167 -1.2364  0.7591 -1.1311
14298TIP3    H264386   1.665   6.724   0.266 -3.9440 -0.1208  1.7145
14299TIP3   OH264387   6.295   5.125   2.512 -0.1336 -0.3776 -0.5594
14299TIP3    H164388   6.298   5.051   2.571 -0.4192 -0.4834 -0.6748
14299TIP3    H264389   6.300   5.087   2.424  0.4638 -0.2095 -0.5996
14300TIP3   OH264390   3.664   1.547   3.886  0.0919 -0.3167 -0.2916
14300TIP3    H164391   3.660   1.466   3.936  0.8333  0.3074  0.8078
14300TIP3    H264392   3.756   1.557   3.863  0.1039  0.5101  0.0878
14301TIP3   OH264393   5.653   5.957   5.912  0.0700  0.0327  0.0343
14301TIP3    H164394   5.568   5.931   5.947  0.5832 -0.4596  0.9317
14301TIP3    H264395   5.644   5.946   5.817 -0.7183 -0.4477  0.1549
14302TIP3   OH264396   0.681   2.954   4.130  0.2101  0.2151 -0.1930
14302TIP3    H164397   0.641   2.963   4.044 -1.5048 -1.5393  0.3303
14302TIP3    H264398   0.771   2.927   4.113 -0.7997 -2.7227 -1.5260
14303TIP3   OH264399   0.626   3.683   0.353  0.5004 -0.0428  0.4643
14303TIP3    H164400   0.572   3.622   0.403  0.0042 -0.2459 -0.3037
14303TIP3    H264401   0.564   3.732   0.299  1.1117 -0.5986 -0.7764
14304TIP3   OH264402   1.321   0.038   5.852 -0.4539  0.1110 -0.1521
14304TIP3    H164403   1.226   0.029   5.844 -0.4442 -1.0902  0.7766
14304TIP3    H264404   1.339   0.024   5.945  1.0081 -4.1541 -0.8360
14305TIP3   OH264405   6.296   1.218  13.578 -0.0366 -0.3857 -0.2081
14305TIP3    H164406   6.255   1.269  13.508  1.3899 -0.2796 -0.9936
14305TIP3    H264407   6.270   1.128  13.561 -0.5594 -0.2298 -0.2517
14306TIP3   OH264408   3.546   3.515  11.700  0.0496  0.3455  0.2994
14306TIP3    H164409   3.593   3.546  11.778  1.8251 -3.0104  0.7606
14306TIP3    H264410   3.606   3.531  11.628  0.7998 -1.3655  0.4836
14307TIP3   OH264411   3.805   4.494   2.410 -0.1764 -0.1792 -0.3514
14307TIP3    H164412   3.844   4.421   2.362  0.5880  0.1225 -0.2121
14307TIP3    H264413   3.878   4.555   2.423  0.1592 -1.0540  2.7627
14308TIP3   OH264414   2.152   5.217   3.823 -0.2440 -0.1488 -0.1909
14308TIP3    H164415   2.152   5.132   3.780  0.4210  0.3459 -1.1864
14308TIP3    H264416   2.230   5.217   3.878 -0.7437 -0.5272  0.5380
14309TIP3   OH264417   4.531   4.214   1.668  0.0510 -0.1012 -0.1109
14309TIP3    H164418   4.500   4.126   1.649 -0.4769 -0.4628  2.1411
14309TIP3    H264419   4.456   4.270   1.649 -0.2316 -0.3633  0.2154
14310TIP3   OH264420   6.803   2.963  15.049  0.0534  0.1545  0.4609
14310TIP3    H164421   6.852   2.942  14.970  0.2201  0.7081  0.4102
14310TIP3    H264422   6.782   3.056  15.040  0.6773  0.4029  1.3778
14311TIP3   OH264423   5.754   1.460  15.528  0.8532 -0.4250  0.4046
14311TIP3    H164424   5.836   1.446  15.481  0.2408 -1.2922 -0.4378
14311TIP3    H264425   5.752   1.554  15.544  1.6846 -0.2918 -0.1825
14312TIP3   OH264426   3.252   1.724   2.496  0.2894 -0.4155  0.2766
14312TIP3    H164427   3.215   1.644   2.460 -0.3430  0.9465 -2.3576
14312TIP3    H264428   3.194   1.793   2.465  1.0897  1.1499  2.0524
14313TIP3   OH264429   3.787   0.192   2.688 -0.4359  0.0724  0.4230
14313TIP3    H164430   3.816   0.122   2.746 -0.4315 -1.0823 -0.9150
14313TIP3    H264431   3.736   0.147   2.620 -0.5979  1.3967 -0.3631
14314TIP3   OH264432   1.630   5.875   4.967  0.0505  0.3723  0.0232
14314TIP3    H164433   1.701   5.940   4.965  0.0735  0.3277 -0.7290
14314TIP3    H264434   1.651   5.814   4.897 -0.4925  0.0969  0.0980
14315TIP3   OH264435   6.067   6.513  12.642  0.0234 -0.6747  0.2234
14315TIP3    H164436   6.034   6.426  12.661  0.9894 -1.1398 -0.1410
14315TIP3    H264437   6.097   6.547  12.726 -2.0326  0.0807  0.7163
14316TIP3   OH264438   3.460   1.515  12.764  0.4502  0.0761  0.0403
14316TIP3    H164439   3.395   1.585  12.772  0.6559  0.1323  1.4316
14316TIP3    H264440   3.409   1.435  12.752 -0.0000 -0.0547  2.2819
14317TIP3   OH264441   1.899   4.421  15.571 -0.0467  0.5641 -0.8685
14317TIP3    H164442   1.822   4.449  15.522 -0.3762  0.4119 -0.4395
14317TIP3    H264443   1.973   4.460  15.523 -0.4453  1.4806 -0.7557
14318TIP3   OH264444   4.438   2.461  13.029  0.2880  0.6525 -0.2278
14318TIP3    H164445   4.514   2.500  12.985  1.2907 -2.7199 -1.8751
14318TIP3    H264446   4.391   2.417  12.959 -0.9984 -0.6002  1.3613
14319TIP3   OH264447   2.331   4.094  16.345 -0.2196  0.5369  0.0657
14319TIP3    H164448   2.284   4.037  16.406 -1.3832  0.2352 -1.0659
14319TIP3    H264449   2.305   4.182  16.370  0.5537  0.5217  0.9894
14320TIP3   OH264450   3.040   5.786  12.815  0.6067 -0.3703 -0.5083
14320TIP3    H164451   3.065   5.849  12.749  1.6635 -0.4632 -0.2229
14320TIP3    H264452   3.042   5.835  12.898 -0.5761 -0.2847 -0.5103
14321TIP3   OH264453   2.455   4.007   3.283  0.5240  0.1590  0.0920
14321TIP3    H164454   2.403   3.972   3.211 -1.5778 -0.8574  1.9762
14321TIP3    H264455   2.398   4.070   3.326 -0.0024 -2.1629  3.2311
14322TIP3   OH264456   3.790   5.733  16.787  0.0213 -0.4620 -0.1708
14322TIP3    H164457   3.696   5.724  16.803 -0.8019  2.3242 -2.6643
14322TIP3    H264458   3.804   5.691  16.702  0.6829  0.6375 -0.6204
14323TIP3   OH264459   0.871   0.699   5.006 -0.4407  0.0073  0.1586
14323TIP3    H164460   0.842   0.783   5.041  0.9703  0.8224 -0.5035
14323TIP3    H264461   0.919   0.722   4.927  0.5700 -1.3686  0.3313
14324TIP3   OH264462   1.483   3.114  12.125 -0.7058 -0.4840 -0.4508
14324TIP3    H164463   1.562   3.061  12.117 -1.3748 -1.8666  1.3235
14324TIP3    H264464   1.423   3.077  12.061  0.2056  0.9117 -2.1792
14325TIP3   OH264465   0.577   3.831  13.915  0.0578  0.4499 -0.2730
14325TIP3    H164466   0.655   3.775  13.913  1.7319  2.5513  1.6301
14325TIP3    H264467   0.514   3.783  13.969 -0.1768 -1.3880 -2.0341
14326TIP3   OH264468   5.287   3.215  15.392  0.7093  0.6399  0.4713
14326TIP3    H164469   5.320   3.146  15.449 -0.4659  0.0643  0.4861
14326TIP3    H264470   5.305   3.297  15.440  1.0225  0.2650  1.0031
14327TIP3   OH264471   5.712   4.351  12.364  0.0533 -0.5831  0.3576
14327TIP3    H164472   5.761   4.295  12.424 -1.5163 -0.5415  1.7637
14327TIP3    H264473   5.642   4.295  12.331 -0.0627 -0.1345 -0.1767
14328TIP3   OH264474   3.169   1.479  17.167 -0.2439 -0.4292  0.1162
14328TIP3    H164475   3.131   1.512  17.086 -1.4118 -0.8431  0.4631
14328TIP3    H264476   3.149   1.386  17.167  1.8217 -0.9194 -0.2128
14329TIP3   OH264477   2.150   6.361  14.837 -0.1127 -0.7965  0.4529
14329TIP3    H164478   2.125   6.417  14.910 -0.3556  0.6440 -0.6853
14329TIP3    H264479   2.123   6.410  14.759  2.4793 -1.0465 -0.7067
14330TIP3   OH264480   0.497   0.030  11.632  0.5786  0.2607  0.4491
14330TIP3    H164481   0.533   0.017  11.544  1.2123 -0.5869  0.8294
14330TIP3    H264482   0.563   0.083  11.677  0.1274  0.9301  0.3463
14331TIP3   OH264483   0.918   0.864  14.896  0.2111  0.3339 -0.0735
14331TIP3    H164484   0.835   0.911  14.907  0.0812 -0.0941  0.9486
14331TIP3    H264485   0.974   0.924  14.847 -0.8524  0.4479 -1.2053
14332TIP3   OH264486   2.484   0.276  17.229 -0.0740  0.3972  0.3950
14332TIP3    H164487   2.479   0.203  17.290 -1.5853  0.3364  0.2390
14332TIP3    H264488   2.402   0.272  17.179  0.2061  1.6684 -0.2274
14333TIP3   OH264489   3.800   6.319  11.707 -0.0754 -0.1889  0.2148
14333TIP3    H164490   3.773   6.268  11.783  0.8319  1.2379  1.5348
14333TIP3    H264491   3.800   6.256  11.635 -2.7796 -1.1873  0.9506
14334TIP3   OH264492   4.174   3.744   5.231  0.4159 -0.6280  0.6303
14334TIP3    H164493   4.111   3.803   5.272 -1.8648 -1.8821 -0.8597
14334TIP3    H264494   4.216   3.797   5.163 -1.7384 -0.6270 -0.8161
14335TIP3   OH264495   6.509   3.295   6.172  0.7467  0.4823 -0.0199
14335TIP3    H164496   6.544   3.341   6.248  2.2288 -0.6619  0.0267
14335TIP3    H264497   6.481   3.211   6.206 -2.2491  1.3675 -0.0451
14336TIP3   OH264498   5.247   0.613   1.841 -0.0238 -0.1079  0.5754
14336TIP3    H164499   5.197   0.588   1.763  1.0180 -0.7794  0.1046
14336TIP3    H264500   5.304   0.538   1.858  0.8852  0.6748  1.0414
14337TIP3   OH264501   2.265   1.558   1.650 -0.4300 -0.2031  0.4766
14337TIP3    H164502   2.203   1.561   1.723 -0.4843  3.5691  0.4832
14337TIP3    H264503   2.214   1.588   1.575  0.3834 -1.0728 -0.4314
14338TIP3   OH264504   2.156   2.964  12.500  0.0945  0.4446  0.4935
14338TIP3    H164505   2.090   2.975  12.431 -2.0671  0.5969  2.4604
14338TIP3    H264506   2.207   2.888  12.472 -0.2915  0.8811 -1.5600
14339TIP3   OH264507   6.595   2.823  12.138 -0.1223 -0.1158 -0.2220
14339TIP3    H164508   6.519   2.839  12.194 -1.4721  0.4699 -2.1047
14339TIP3    H264509   6.664   2.793  12.198 -1.4677  0.4666  1.7101
14340TIP3   OH264510   4.128   2.382  14.416  0.2366 -0.1569 -0.4216
14340TIP3    H164511   4.112   2.433  14.495  1.6991  1.1193 -0.9142
14340TIP3    H264512   4.087   2.297  14.434  0.3212  0.1862  1.5995
14341TIP3   OH264513   6.117   1.447   4.655  0.3427  0.2465 -0.0299
14341TIP3    H164514   6.194   1.498   4.677 -0.1968  0.9804  0.1886
14341TIP3    H264515   6.068   1.503   4.595 -0.3210  0.0449  0.3172
14342TIP3   OH264516   4.481   1.536  15.204  0.8820 -0.2179 -0.4355
14342TIP3    H164517   4.570   1.560  15.229  1.4610 -1.9558 -0.6729
14342TIP3    H264518   4.486   1.521  15.109 -0.2573  1.9805 -0.9074
14343TIP3   OH264519   0.350   2.558   4.203 -0.1674  0.1035  0.2742
14343TIP3    H164520   0.329   2.466   4.217 -0.6842  0.2593  0.5472
14343TIP3    H264521   0.296   2.605   4.267 -0.8772  0.6880 -0.7412
14344TIP3   OH264522   4.233   5.658  12.107  0.2865 -0.0845 -0.3309
14344TIP3    H164523   4.309   5.704  12.141 -0.8621  1.4002  0.3459
14344TIP3    H264524   4.260   5.566  12.103  1.2557  0.0021  2.3424
14345TIP3   OH264525   5.251   3.839   3.782  0.4293 -0.3180 -0.3049
14345TIP3    H164526   5.272   3.930   3.760  1.1049 -0.9525 -2.5083
14345TIP3    H264527   5.172   3.820   3.732 -0.5479 -0.5510  1.2665
14346TIP3   OH264528   1.263   0.549  15.237 -0.1131 -0.4345  0.0419
14346TIP3    H164529   1.277   0.617  15.171 -0.9517  1.2164  1.4637
14346TIP3    H264530   1.172   0.560  15.263  0.8494  0.8754  3.3765
14347TIP3   OH264531   6.388   2.943  14.275 -0.8458 -0.3703  0.0957
14347TIP3    H164532   6.456   2.972  14.214  0.5851 -1.3611  1.1374
14347TIP3    H264533   6.351   2.865  14.234 -0.9327 -0.1770 -0.1961
14348TIP3   OH264534   5.674   5.756  13.190 -0.1282 -0.2139  0.5563
14348TIP3    H164535   5.617   5.721  13.258  1.4625 -1.2463  1.4209
14348TIP3    H264536   5.732   5.817  13.236 -1.5008  2.0568 -0.5789
14349TIP3   OH264537   5.409   5.388   4.248 -0.0358 -0.4118  0.0092
14349TIP3    H164538   5.389   5.384   4.342 -1.5701  0.7151 -0.2307
14349TIP3    H264539   5.500   5.359   4.242 -0.3299 -1.8840  1.6814
14350TIP3   OH264540   1.993   1.894   3.987  0.2757  0.3374 -0.3370
14350TIP3    H164541   1.906   1.908   4.024 -0.0633  0.4892 -1.1767
14350TIP3    H264542   1.985   1.814   3.936  1.1127 -0.6625  1.0338
14351TIP3   OH264543   3.183   1.024   3.321  0.3724 -0.2872  0.5121
14351TIP3    H164544   3.145   1.044   3.406  0.4564 -1.9784  0.9829
14351TIP3    H264545   3.109   1.026   3.260  0.2884  0.7637  0.6170
14352TIP3   OH264546   1.346   5.278   4.475 -0.3581 -0.0285  0.4061
14352TIP3    H164547   1.262   5.298   4.434  0.0664 -0.1091 -0.5345
14352TIP3    H264548   1.329   5.284   4.569 -1.2205  0.7280  0.2173
14353TIP3   OH264549   0.473   0.459  12.981  0.0157 -1.3402  0.0546
14353TIP3    H164550   0.521   0.417  13.053  1.5402 -0.2741 -0.2681
14353TIP3    H264551   0.537   0.463  12.910 -0.1466  1.1497 -0.0393
14354TIP3   OH264552   4.978   5.419   4.558  0.4023 -0.7466 -0.2507
14354TIP3    H164553   5.046   5.484   4.573  0.5703 -0.6398 -1.3731
14354TIP3    H264554   4.940   5.402   4.645 -0.0101  1.2558  0.0025
14355TIP3   OH264555   1.891   1.088  15.164  0.2491 -0.5880 -0.4112
14355TIP3    H164556   1.816   1.147  15.163 -0.0347 -0.9498 -1.4306
14355TIP3    H264557   1.958   1.136  15.212 -0.4387 -0.0211  0.0082
14356TIP3   OH264558   0.373   0.235  16.367 -0.3518  0.8579  0.0050
14356TIP3    H164559   0.376   0.328  16.345 -1.0233  0.6094 -1.2360
14356TIP3    H264560   0.400   0.190  16.287 -2.1881 -0.0732 -0.1544
14357TIP3   OH264561   1.770   6.088  12.708 -0.8815 -0.0156 -0.1921
14357TIP3    H164562   1.824   6.163  12.683  0.3832 -0.3038  1.5559
14357TIP3    H264563   1.708   6.122  12.772 -0.6657 -0.3509  0.1995
14358TIP3   OH264564   6.261   1.876   6.251  0.2520  0.0666  0.2603
14358TIP3    H164565   6.328   1.902   6.314 -0.5992  1.7627  0.5446
14358TIP3    H264566   6.304   1.813   6.193  1.4859 -0.3647  1.6106
14359TIP3   OH264567   2.973   2.713   0.946  0.3925  0.0909  0.0299
14359TIP3    H164568   2.950   2.758   1.027  1.1156  0.8153 -0.1519
14359TIP3    H264569   3.038   2.770   0.904  1.4418 -1.1845 -0.1383
14360TIP3   OH264570   5.571   0.273   0.614  0.5037 -0.1480  0.4706
14360TIP3    H164571   5.578   0.357   0.659  2.5438 -1.3973  2.7781
14360TIP3    H264572   5.527   0.216   0.677 -0.4017 -0.9522 -0.8535
14361TIP3   OH264573   4.914   3.056   0.166 -0.4505  0.1578 -0.0325
14361TIP3    H164574   4.921   3.145   0.130  0.8641 -0.8896 -2.6338
14361TIP3    H264575   4.833   3.022   0.130 -0.4932 -0.0038  0.2173
14362TIP3   OH264576   5.261   6.342  12.285  0.2195  0.0143 -0.7186
14362TIP3    H164577   5.260   6.246  12.282 -1.0666 -0.1746  2.1274
14362TIP3    H264578   5.173   6.365  12.317  0.6022  2.1417 -1.0878
14363TIP3   OH264579   6.789   1.447   2.450  0.3041  0.3040  0.3492
14363TIP3    H164580   6.747   1.368   2.416  0.8365  0.6781 -1.2123
14363TIP3    H264581   6.878   1.419   2.472 -0.2405 -0.1213  2.2598
14364TIP3   OH264582   5.925   0.593   0.975  0.2138  0.2225 -0.5644
14364TIP3    H164583   5.909   0.641   1.056 -2.4318 -1.0723 -0.2379
14364TIP3    H264584   5.955   0.660   0.913 -0.4900  1.7534  0.6839
14365TIP3   OH264585   5.131   0.464  11.558 -0.0133 -0.1839 -0.5802
14365TIP3    H164586   5.217   0.476  11.520  0.9908 -1.1992  1.2157
14365TIP3    H264587   5.080   0.538  11.527  1.5730  0.5813 -1.4709
14366TIP3   OH264588   5.534   4.028  14.374 -0.5624  0.1427 -0.2376
14366TIP3    H164589   5.608   4.061  14.323  0.9453 -2.6254 -0.0567
14366TIP3    H264590   5.568   4.020  14.463 -1.4200 -0.1436  0.0764
14367TIP3   OH264591   6.390   5.552  14.323  0.4759  0.0816  0.3614
14367TIP3    H164592   6.480   5.571  14.299  0.5641  2.3460  2.1193
14367TIP3    H264593   6.392   5.545  14.419 -1.4363  2.1548  0.6543
14368TIP3   OH264594   6.035   6.392   6.087 -0.2962  0.0810  0.5168
14368TIP3    H164595   6.024   6.404   6.182  0.3252 -0.3533  0.6538
14368TIP3    H264596   5.960   6.437   6.048  0.3716  1.7946  1.1152
14369TIP3   OH264597   0.013   2.377  12.161  0.3655 -0.1118 -0.3450
14369TIP3    H164598   0.052   2.439  12.100  1.0384  0.0581  0.2408
14369TIP3    H264599   0.038   2.410  12.248  0.4406 -0.9999 -0.0154
14370TIP3   OH264600   4.713   0.299   4.057  0.1086  0.2840 -0.4830
14370TIP3    H164601   4.738   0.233   3.992 -0.8785  0.7846 -1.4055
14370TIP3    H264602   4.623   0.322   4.034  0.4685  2.0512 -0.2691
14371TIP3   OH264603   5.486   1.799   4.696  0.3954  0.3515  0.5848
14371TIP3    H164604   5.529   1.827   4.776  1.1780  0.1363  0.2488
14371TIP3    H264605   5.451   1.712   4.717  0.6464  0.2723  0.6734
14372TIP3   OH264606   1.851   3.421   2.595  0.0131  0.0334 -0.7560
14372TIP3    H164607   1.844   3.326   2.581  0.4503 -0.0918 -0.1860
14372TIP3    H264608   1.813   3.460   2.517  1.3991 -0.6143 -1.8073
14373TIP3   OH264609   4.403   3.422  15.166 -0.2540  0.2012 -0.3674
14373TIP3    H164610   4.467   3.468  15.221  0.2509 -0.6662 -0.2177
14373TIP3    H264611   4.449   3.408  15.083 -0.2894 -0.3177 -0.2997
14374TIP3   OH264612   1.882   3.794  15.664  0.2729  0.6504 -0.2422
14374TIP3    H164613   1.942   3.868  15.654  0.6106  0.3678 -0.3526
14374TIP3    H264614   1.795   3.833  15.659  0.4373  1.1846  0.8155
14375TIP3   OH264615   1.433   0.119  12.336 -0.2816  0.3316  0.3715
14375TIP3    H164616   1.427   0.087  12.426 -3.6517 -0.5751 -0.0482
14375TIP3    H264617   1.427   0.214  12.345 -2.4520  0.1824  1.0898
14376TIP3   OH264618   5.589   3.929   3.154 -0.0559 -0.0666 -0.1461
14376TIP3    H164619   5.666   3.942   3.099  0.3389 -1.7541 -0.0358
14376TIP3    H264620   5.559   3.840   3.135 -3.4120  1.2498 -1.9127
14377TIP3   OH264621   0.664   4.280   5.591 -0.8107 -0.6067 -0.5435
14377TIP3    H164622   0.739   4.250   5.643 -0.4819 -1.1560 -1.3020
14377TIP3    H264623   0.622   4.347   5.644 -1.3349 -2.1466  1.0705
14378TIP3   OH264624   4.140   1.994   6.171  0.2976  0.5492  0.3336
14378TIP3    H164625   4.190   2.056   6.117  1.5079 -1.4504 -0.9905
14378TIP3    H264626   4.053   1.994   6.131  0.7977  0.1079 -0.8173
14379TIP3   OH264627   6.347   0.401   5.527 -0.0906  0.0212 -0.0249
14379TIP3    H164628   6.320   0.455   5.601 -0.0855 -0.4333  0.3096
14379TIP3    H264629   6.302   0.318   5.541 -0.3015  0.0222 -0.6758
14380TIP3   OH264630   1.980   1.621   1.746 -0.1708 -0.8851  0.1500
14380TIP3    H164631   1.939   1.609   1.832 -0.3012 -1.3181  0.0306
14380TIP3    H264632   1.906   1.637   1.687  0.0046  0.8049  0.3347
14381TIP3   OH264633   4.177   2.289   1.360 -0.2814  0.1788  0.3837
14381TIP3    H164634   4.239   2.360   1.343  3.3684 -2.8610 -0.1629
14381TIP3    H264635   4.190   2.267   1.452 -0.4814 -0.5541  0.2442
14382TIP3   OH264636   0.589   4.633   5.415  0.3100 -0.5362  0.5304
14382TIP3    H164637   0.652   4.705   5.416 -0.4947  0.1774  0.6072
14382TIP3    H264638   0.573   4.613   5.508  0.1033 -0.4301  0.5185
14383TIP3   OH264639   0.098   1.545   4.310  0.7346  0.0098 -0.4907
14383TIP3    H164640   0.032   1.501   4.257 -1.0448  1.2869  0.5525
14383TIP3    H264641   0.117   1.626   4.263  1.0491 -0.0397 -0.4504
14384TIP3   OH264642   4.276   2.233  15.963 -0.0498  0.1746 -0.2294
14384TIP3    H164643   4.214   2.210  15.894  0.0127 -0.3526 -0.1189
14384TIP3    H264644   4.355   2.260  15.917  0.6927 -2.0939 -0.4030
14385TIP3   OH264645   3.785   6.645   3.921 -0.1650  0.1003 -0.3989
14385TIP3    H164646   3.790   6.727   3.871 -1.3650 -0.5311 -1.6149
14385TIP3    H264647   3.821   6.579   3.862 -0.1190 -0.4100  0.1910
14386TIP3   OH264648   1.305   0.469   5.073  0.5523 -0.6349 -0.1044
14386TIP3    H164649   1.349   0.469   5.158 -0.1154  0.4349  0.2579
14386TIP3    H264650   1.350   0.537   5.023 -0.1917 -0.0561  0.0091
14387TIP3   OH264651   4.324   2.377  16.824 -0.5394  0.6782 -0.0144
14387TIP3    H164652   4.266   2.302  16.811 -0.6373  0.8452 -0.5429
14387TIP3    H264653   4.336   2.414  16.737  0.9273  0.2450 -0.0210
14388TIP3   OH264654   5.331   5.131  13.030 -0.0443 -0.1913  0.1031
14388TIP3    H164655   5.385   5.075  12.974 -0.0770  0.8296 -0.9882
14388TIP3    H264656   5.374   5.128  13.116  1.9825  0.8438 -0.8040
14389TIP3   OH264657   3.266   5.407  14.814 -0.0340  0.5196  0.3614
14389TIP3    H164658   3.210   5.333  14.839 -0.1734  0.7053  0.6130
14389TIP3    H264659   3.255   5.414  14.719 -1.8298  1.6375  0.6054
14390TIP3   OH264660   2.869   1.020   1.448 -0.0873  0.5953 -0.0883
14390TIP3    H164661   2.842   0.931   1.470  1.1280 -0.2072 -1.6440
14390TIP3    H264662   2.871   1.022   1.353  1.0734  1.8993 -0.0697
14391TIP3   OH264663   0.107   1.218  17.294 -0.1876  0.9230  0.5410
14391TIP3    H164664   0.163   1.261  17.230  0.7203 -1.4932 -0.4134
14391TIP3    H264665   0.167   1.189  17.363  0.4898 -3.8741 -1.6474
14392TIP3   OH264666   0.445   2.467  15.609  0.1501  0.0458 -0.3259
14392TIP3    H164667   0.512   2.424  15.556  0.3011  2.4680 -2.2741
14392TIP3    H264668   0.392   2.395  15.645  0.8087 -1.7630 -2.7710
14393TIP3   OH264669   0.422   4.099   1.804  0.2141 -0.1215 -0.6522
14393TIP3    H164670   0.410   4.188   1.770 -1.0270  1.5805  3.5459
14393TIP3    H264671   0.345   4.051   1.773 -0.9579  1.3752 -0.1914
14394TIP3   OH264672   3.990   0.145  12.305 -0.3844  0.2777 -0.0392
14394TIP3    H164673   3.959   0.227  12.266 -0.7655  0.6167  0.9175
14394TIP3    H264674   4.084   0.145  12.289 -0.6515 -0.0686 -1.7528
14395TIP3   OH264675   1.222   0.485  15.549 -0.5634 -0.2550  0.2051
14395TIP3    H164676   1.298   0.539  15.528 -0.4317 -0.8546 -0.9421
14395TIP3    H264677   1.178   0.531  15.621  0.5640  0.3874  0.4954
14396TIP3   OH264678   3.900   4.803  13.227 -0.3114 -0.4061 -0.6882
14396TIP3    H164679   3.817   4.768  13.195 -1.0294  0.6648 -0.0671
14396TIP3    H264680   3.913   4.760  13.312 -0.8449  0.3042 -0.2400
14397TIP3   OH264681   0.973   5.494  11.369 -0.3839 -0.2920  0.1741
14397TIP3    H164682   0.971   5.473  11.276  1.2541  0.1398  0.0176
14397TIP3    H264683   0.919   5.426  11.409  0.5062 -1.6846 -0.8887
14398TIP3   OH264684   3.768   4.665  11.852 -0.6494 -0.0324 -0.4828
14398TIP3    H164685   3.864   4.664  11.849 -0.6550  0.5361 -1.2063
14398TIP3    H264686   3.743   4.742  11.800 -1.5247 -0.6716 -1.0347
14399TIP3   OH264687   4.562   1.681   1.082  0.5812 -0.2736 -0.6211
14399TIP3    H164688   4.616   1.650   1.156  0.0268  0.0435 -0.0732
14399TIP3    H264689   4.613   1.752   1.044  0.4937  0.1289 -0.0061
14400TIP3   OH264690   0.889   0.031  12.745  0.1378 -0.3102  0.2076
14400TIP3    H164691   0.802   0.036  12.786  0.4366  0.0433  0.8001
14400TIP3    H264692   0.893   0.110  12.690 -0.3626 -0.9117 -0.7311
14401TIP3   OH264693   5.608   6.014  12.766 -0.2944 -0.1916 -0.0441
14401TIP3    H164694   5.618   6.088  12.826  0.0103  0.4261 -0.8280
14401TIP3    H264695   5.654   5.942  12.808  3.2932  1.1882 -1.1561
14402TIP3   OH264696   0.996   6.772  13.360 -0.1076  0.3632 -0.1324
14402TIP3    H164697   0.997   6.697  13.419  0.0309  0.1711 -0.3766
14402TIP3    H264698   1.004   6.848  13.417 -2.7327  0.3572  0.3595
14403TIP3   OH264699   6.173   2.058   5.083  0.0653  0.2489  0.4825
14403TIP3    H164700   6.142   1.969   5.067 -0.4583  0.4454  0.3777
14403TIP3    H264701   6.152   2.074   5.175  0.3234  0.2002  0.5497
14404TIP3   OH264702   3.076   1.225  13.115 -0.1037 -0.7037  0.0807
14404TIP3    H164703   2.999   1.279  13.131 -1.1286 -2.4851  1.5493
14404TIP3    H264704   3.144   1.264  13.169 -0.5610 -0.3548  0.4150
14405TIP3   OH264705   4.429   1.330   4.284 -0.3821  0.5428 -0.7387
14405TIP3    H164706   4.518   1.364   4.285 -0.0942 -0.0111  2.4819
14405TIP3    H264707   4.375   1.403   4.255  0.7963  2.0291  0.6496
14406TIP3   OH264708   4.733   3.356   1.328 -0.2306  0.0819 -0.4477
14406TIP3    H164709   4.682   3.432   1.298 -1.5540 -0.3192  0.6790
14406TIP3    H264710   4.759   3.379   1.417 -1.8157 -1.2923  0.4287
14407TIP3   OH264711   4.984   4.878   1.472 -0.0543 -0.2907  0.0790
14407TIP3    H164712   4.919   4.810   1.491 -0.2139 -0.3604 -0.6976
14407TIP3    H264713   5.053   4.863   1.537  0.0624 -1.4077 -0.2764
14408TIP3   OH264714   6.217   5.694  13.559  0.5302  0.3923 -0.4494
14408TIP3    H164715   6.161   5.633  13.511  1.6556 -0.2485 -0.9832
14408TIP3    H264716   6.303   5.653  13.560  1.2122  1.7481 -0.4135
14409TIP3   OH264717   6.112   0.412   4.025  0.3888 -0.1345  0.0732
14409TIP3    H164718   6.063   0.459   3.958  0.9188  1.4235  0.7278
14409TIP3    H264719   6.141   0.332   3.983 -0.9032 -0.0826 -0.9634
14410TIP3   OH264720   1.138   0.627   4.523  0.4075 -0.2332 -0.1445
14410TIP3    H164721   1.106   0.541   4.495 -1.5834  0.1299  0.8198
14410TIP3    H264722   1.222   0.609   4.565 -0.1219 -1.7660  0.3349
14411TIP3   OH264723   5.781   4.986   4.821 -0.5768  0.0106  0.6070
14411TIP3    H164724   5.827   4.950   4.897  0.1129 -1.0854 -0.2933
14411TIP3    H264725   5.807   5.078   4.818  0.4980 -0.2685  0.9185
14412TIP3   OH264726   3.143   2.828   2.683  0.1604 -0.0937  0.1409
14412TIP3    H164727   3.090   2.798   2.609 -1.0519  4.3853 -1.1175
14412TIP3    H264728   3.078   2.853   2.749  0.9297  1.2619  0.4007
14413TIP3   OH264729   0.158   3.658   5.766 -0.0409  0.0354 -0.7799
14413TIP3    H164730   0.063   3.643   5.766 -0.1044  0.2824  0.7463
14413TIP3    H264731   0.172   3.720   5.696 -1.1589  0.7620 -0.3913
14414TIP3   OH264732   3.258   2.289  12.279  0.7694  0.8182 -0.3889
14414TIP3    H164733   3.180   2.340  12.259 -0.3168 -0.3362  0.7257
14414TIP3    H264734   3.286   2.253  12.195  0.2668  1.4666 -0.8412
14415TIP3   OH264735   4.502   5.962  13.416 -0.0490  0.9736 -1.2751
14415TIP3    H164736   4.539   5.938  13.331  1.5242  2.0498 -0.9387
14415TIP3    H264737   4.507   6.058  13.417 -2.4195  1.1685 -0.9721
14416TIP3   OH264738   2.134   6.292  12.914 -0.6143  0.3070  0.3141
14416TIP3    H164739   2.094   6.220  12.962  0.4375 -0.0056  0.7367
14416TIP3    H264740   2.076   6.306  12.839 -2.0600  0.5290  1.4324
14417TIP3   OH264741   4.522   4.558  16.024  0.4824  0.1990 -0.7083
14417TIP3    H164742   4.444   4.614  16.025  0.6907  0.4876  0.0893
14417TIP3    H264743   4.582   4.601  15.964  0.5859  0.7582 -0.2067
14418TIP3   OH264744   2.993   4.281   3.489 -0.1924 -0.0149 -0.0286
14418TIP3    H164745   2.923   4.340   3.518 -1.0730 -0.4435 -1.2259
14418TIP3    H264746   2.951   4.223   3.426  1.7527  1.2388 -2.6530
14419TIP3   OH264747   4.455   0.398   5.807 -0.3529  0.2322  0.4053
14419TIP3    H164748   4.539   0.380   5.848  0.7997 -1.1892 -2.3133
14419TIP3    H264749   4.412   0.313   5.801 -1.0224  0.6021 -0.1836
14420TIP3   OH264750   2.326   1.246   0.127 -0.0613 -0.2860  0.2125
14420TIP3    H164751   2.285   1.185   0.188  1.3484 -2.2503 -0.7261
14420TIP3    H264752   2.290   1.331   0.152 -1.9491 -1.4239  1.7023
14421TIP3   OH264753   1.648   2.502  11.501 -0.7434  0.2864  0.0827
14421TIP3    H164754   1.670   2.560  11.429 -0.2785  0.2338  0.1804
14421TIP3    H264755   1.553   2.495  11.498 -0.7786  0.8011 -0.1239
14422TIP3   OH264756   3.319   0.112  11.016  0.4343  0.7518  0.3195
14422TIP3    H164757   3.296   0.033  11.065  1.7591 -0.7658 -1.3649
14422TIP3    H264758   3.388   0.154  11.067  0.7245  0.0218  0.5372
14423TIP3   OH264759   2.586   6.606   5.620  0.5179 -0.3326  0.5274
14423TIP3    H164760   2.498   6.626   5.653 -0.8502 -1.9257 -1.8643
14423TIP3    H264761   2.629   6.562   5.693 -0.8523  0.0250  1.5975
14424TIP3   OH264762   3.083   2.247   5.837 -0.0783 -0.2808  0.1938
14424TIP3    H164763   3.151   2.199   5.790 -0.7381  0.2338 -1.3449
14424TIP3    H264764   3.005   2.191   5.831 -0.3123  0.0403  0.2052
14425TIP3   OH264765   5.706   1.632  14.629  0.6213  0.3648  0.1454
14425TIP3    H164766   5.671   1.721  14.637 -0.5018 -0.0188 -0.3028
14425TIP3    H264767   5.762   1.621  14.706 -1.0774  0.6462  1.4648
14426TIP3   OH264768   2.922   3.605   3.828 -0.0372 -0.1718  0.4577
14426TIP3    H164769   2.856   3.606   3.898 -0.8139  1.7562 -0.2336
14426TIP3    H264770   2.871   3.607   3.747  0.8506  0.3318 -0.1078
14427TIP3   OH264771   4.606   6.536   0.904 -0.4437 -0.2104 -0.0449
14427TIP3    H164772   4.555   6.596   0.850  0.8442  1.0364  0.0879
14427TIP3    H264773   4.631   6.466   0.844  0.6697  0.9725 -1.0285
14428TIP3   OH264774   0.405   5.292  16.012  0.0770 -0.8753 -0.7763
14428TIP3    H164775   0.319   5.312  16.048  0.5963 -0.2881  0.1838
14428TIP3    H264776   0.454   5.257  16.086  0.9970 -0.2124 -1.0623
14429TIP3   OH264777   0.267   2.992   5.008 -0.0192 -0.2616  0.3164
14429TIP3    H164778   0.261   2.927   4.938  1.5271 -0.2106  0.1125
14429TIP3    H264779   0.216   3.066   4.975  0.8501 -0.1602 -0.8787
14430TIP3   OH264780   6.468   3.990   2.179 -0.2439  0.2886  0.6931
14430TIP3    H164781   6.399   4.054   2.193 -1.6626 -0.9084 -0.4875
14430TIP3    H264782   6.519   4.024   2.105 -0.5968  0.3568  0.4836
14431TIP3   OH264783   6.610   0.778  11.450 -0.1129  0.4034  0.1377
14431TIP3    H164784   6.644   0.812  11.368 -1.3711 -1.0940 -1.0798
14431TIP3    H264785   6.556   0.703  11.424  1.5131 -1.7700  2.5190
14432TIP3   OH264786   3.899   3.088  12.474 -0.4659 -0.0668 -0.0877
14432TIP3    H164787   3.938   3.026  12.536 -0.6704  0.3828  0.4852
14432TIP3    H264788   3.866   3.032  12.403  1.0190 -0.4917 -0.4971
14433TIP3   OH264789   4.212   4.053   1.738  0.8768  0.0388 -0.7430
14433TIP3    H164790   4.295   4.013   1.765 -0.8177 -2.6778  1.0331
14433TIP3    H264791   4.213   4.050   1.643  1.1135 -4.2334 -0.8035
14434TIP3   OH264792   1.238   6.788  10.361 -0.4242  0.2742  0.5096
14434TIP3    H164793   1.220   6.852  10.430  0.2398  1.7444 -0.6213
14434TIP3    H264794   1.194   6.823  10.284  1.4119  0.3138 -0.5727
14435TIP3   OH264795   5.780   2.099  13.908  0.1409 -0.6520 -0.5299
14435TIP3    H164796   5.695   2.107  13.863 -0.2193  0.6244  0.3534
14435TIP3    H264797   5.844   2.127  13.842 -0.0242 -2.1623 -1.3971
14436TIP3   OH264798   0.193   3.008  14.861  0.3304 -0.5517 -0.3217
14436TIP3    H164799   0.242   2.984  14.940 -0.2290 -1.7051 -0.3099
14436TIP3    H264800   0.260   3.037  14.800  0.8344 -0.2412  0.3660
14437TIP3   OH264801   6.715   0.028  14.059 -0.0406 -0.0198  0.7380
14437TIP3    H164802   6.724  -0.063  14.087  0.9929  0.2131  1.2017
14437TIP3    H264803   6.801   0.051  14.025 -0.0572  1.0348  1.3820
14438TIP3   OH264804   1.736   6.539  12.127 -0.5136  0.2639  0.0622
14438TIP3    H164805   1.745   6.444  12.129 -0.2663  0.2703  3.0111
14438TIP3    H264806   1.650   6.554  12.087 -0.2370 -1.1341 -1.1257
14439TIP3   OH264807   5.299   5.690   3.553  0.0517 -0.2925 -0.1251
14439TIP3    H164808   5.380   5.639   3.564  0.2226  0.0358  0.1622
14439TIP3    H264809   5.249   5.673   3.633 -0.2782 -0.6941 -0.4141
14440TIP3   OH264810   5.360   1.563  15.454 -0.4606 -0.1684 -0.3936
14440TIP3    H164811   5.437   1.545  15.401  0.9595  2.5758  0.5065
14440TIP3    H264812   5.328   1.477  15.481  1.8918 -1.4245 -1.3223
14441TIP3   OH264813   0.591   4.938  16.233 -0.1403 -0.1291  0.8570
14441TIP3    H164814   0.622   4.935  16.324 -0.4166 -0.7442  0.9359
14441TIP3    H264815   0.548   4.853  16.220  0.1711 -0.1714  0.0557
14442TIP3   OH264816   2.780   5.846   0.527  0.3255 -0.0192  0.0833
14442TIP3    H164817   2.868   5.812   0.513  0.7625  0.3724  1.7010
14442TIP3    H264818   2.733   5.775   0.570  0.0347  0.0082 -0.1825
14443TIP3   OH264819   1.552   1.669   0.891  0.0879 -0.1218  0.0858
14443TIP3    H164820   1.561   1.635   0.802  1.1899 -2.1649  0.8914
14443TIP3    H264821   1.513   1.596   0.940  0.2307  0.6744  1.4319
14444TIP3   OH264822   2.863   0.917   3.376 -0.1282 -0.4228 -0.2643
14444TIP3    H164823   2.876   0.954   3.288  0.1093 -1.7499 -0.8151
14444TIP3    H264824   2.925   0.963   3.431 -0.6258  0.7852 -0.6814
14445TIP3   OH264825   3.048   3.788   1.818 -0.1853 -0.0210  0.3637
14445TIP3    H164826   3.117   3.850   1.842 -0.9237  0.9993 -0.1155
14445TIP3    H264827   3.007   3.764   1.901 -0.4766  0.8297  0.4717
14446TIP3   OH264828   3.211   5.324   3.786 -0.0001  0.4667  0.0108
14446TIP3    H164829   3.140   5.309   3.723 -0.0124 -2.1441  0.5141
14446TIP3    H264830   3.246   5.236   3.803  4.1876  1.6784 -1.1477
14447TIP3   OH264831   3.331   1.807  15.156  0.5829  0.1052  0.4471
14447TIP3    H164832   3.247   1.761  15.151  0.9725 -0.5614 -0.2298
14447TIP3    H264833   3.377   1.780  15.077  1.3269  0.6842  0.6774
14448TIP3   OH264834   4.609   3.362  14.462 -0.5826 -0.9938  0.2531
14448TIP3    H164835   4.677   3.304  14.497  0.1911 -0.3637 -0.1743
14448TIP3    H264836   4.655   3.419  14.401 -1.7770 -1.5745 -1.2640
14449TIP3   OH264837   5.476   1.534  13.708 -0.1204 -0.1776  0.3056
14449TIP3    H164838   5.523   1.489  13.778 -0.3630  0.2135  0.7259
14449TIP3    H264839   5.519   1.619  13.702 -0.5772  0.0674  0.4857
14450TIP3   OH264840   0.654   1.481  16.659  0.6859 -0.2628  0.2346
14450TIP3    H164841   0.704   1.520  16.588 -1.0397 -0.0496 -0.9237
14450TIP3    H264842   0.574   1.533  16.663 -0.3505 -1.8354  0.6669
14451TIP3   OH264843   0.302   2.769  14.749 -0.1598 -0.6091  0.2394
14451TIP3    H164844   0.227   2.773  14.689 -0.1928 -0.5212  0.2861
14451TIP3    H264845   0.352   2.848  14.730  0.0767 -0.8144  0.0067
14452TIP3   OH264846   3.703   0.007  13.950  0.3231  0.3220 -0.0421
14452TIP3    H164847   3.634  -0.001  14.015  0.4560 -0.3713  0.0230
14452TIP3    H264848   3.782  -0.022  13.995  0.4785  0.1804 -0.3982
14453TIP3   OH264849   6.440   1.542  16.354  0.3777 -0.3531 -0.1316
14453TIP3    H164850   6.405   1.571  16.438 -2.1967  0.8867 -1.5228
14453TIP3    H264851   6.509   1.605  16.334  0.6134 -0.3145  0.7307
14454TIP3   OH264852   6.421   0.423   2.450 -0.2279  0.4789 -0.3024
14454TIP3    H164853   6.479   0.366   2.399  0.3047 -0.3277  1.1381
14454TIP3    H264854   6.467   0.506   2.455 -0.5094  0.7258 -1.5090
14455TIP3   OH264855   0.392   5.837  15.069  0.0183 -0.0095 -0.2159
14455TIP3    H164856   0.335   5.914  15.070  0.8122  0.6191 -0.8621
14455TIP3    H264857   0.340   5.769  15.028 -0.0406  0.7698 -1.5040
14456TIP3   OH264858   5.986   3.756   4.015 -0.2792  0.1628 -0.1474
14456TIP3    H164859   5.931   3.701   4.070  0.3404 -2.1780 -1.7182
14456TIP3    H264860   6.069   3.708   4.008  0.7132  1.8697 -0.6891
14457TIP3   OH264861   2.943   6.152   3.225  0.4507  0.2764 -0.8205
14457TIP3    H164862   2.895   6.071   3.210  0.3340  0.2908 -0.5290
14457TIP3    H264863   2.978   6.144   3.314 -1.5355  1.5340  0.1457
14458TIP3   OH264864   0.517   1.624   4.894  0.0222 -0.5324 -0.2631
14458TIP3    H164865   0.442   1.658   4.942  2.2376  1.7153  1.8894
14458TIP3    H264866   0.524   1.532   4.920 -0.5318 -0.1044  1.5006
14459TIP3   OH264867   4.616   4.338  13.233 -0.7109  0.2946  0.4961
14459TIP3    H164868   4.569   4.301  13.158 -0.1354 -0.2323  0.3827
14459TIP3    H264869   4.641   4.426  13.206  0.0097 -0.0987 -0.1739
14460TIP3   OH264870   1.556   4.788  13.518 -0.4609  0.4667  0.2736
14460TIP3    H164871   1.467   4.789  13.482 -0.5922  0.4661  0.6003
14460TIP3    H264872   1.612   4.812  13.444 -0.7322  0.4648  0.0672
14461TIP3   OH264873   2.572   3.496   0.283  0.2485 -0.1269 -0.4058
14461TIP3    H164874   2.494   3.445   0.263 -1.0955  1.3317  0.8753
14461TIP3    H264875   2.595   3.537   0.199 -1.4565  0.8199 -0.4599
14462TIP3   OH264876   3.979   4.730  17.040  0.0592  0.3187  0.4365
14462TIP3    H164877   3.969   4.781  17.121 -1.7858  0.4965  0.1431
14462TIP3    H264878   3.977   4.796  16.970  1.4152  0.1463  0.2061
14463TIP3   OH264879   1.681   1.668  11.762  0.0200  0.2400  0.3326
14463TIP3    H164880   1.754   1.641  11.817 -0.3607 -1.1288  0.2038
14463TIP3    H264881   1.603   1.644  11.812 -0.3700  1.9065  0.5759
14464TIP3   OH264882   2.735   3.930  14.214 -0.5425  0.0764 -0.5814
14464TIP3    H164883   2.645   3.915  14.242  0.1849 -0.8295  1.5076
14464TIP3    H264884   2.771   3.842  14.202  0.3305  0.3962 -0.3970
14465TIP3   OH264885   2.019   0.732  14.033 -0.4488 -0.1354  0.7511
14465TIP3    H164886   2.057   0.782  13.960 -0.9783  0.7489  1.0612
14465TIP3    H264887   1.982   0.654  13.992  0.0365 -0.0804  0.1952
14466TIP3   OH264888   4.838   6.808  12.968  0.1452 -0.0252  0.8543
14466TIP3    H164889   4.768   6.743  12.979 -0.4079  0.6847  1.7093
14466TIP3    H264890   4.792   6.889  12.947  0.8520  0.0341 -0.5999
14467TIP3   OH264891   3.426   3.188   0.981  0.4408  0.3355 -0.1456
14467TIP3    H164892   3.378   3.168   1.062  2.0139  1.1680  1.0566
14467TIP3    H264893   3.359   3.219   0.920 -0.7189  0.2071  1.0204
14468TIP3   OH264894   1.614   1.622  13.230 -0.1686  0.5234  1.0168
14468TIP3    H164895   1.635   1.692  13.169  0.8936 -0.2170  0.5089
14468TIP3    H264896   1.524   1.598  13.208 -0.1529  0.9636  0.4412
14469TIP3   OH264897   2.709   2.956   1.785 -0.1794  0.2341  0.4509
14469TIP3    H164898   2.658   2.894   1.734  0.4168 -0.4122  0.6229
14469TIP3    H264899   2.649   3.029   1.802 -0.0898  0.9826 -2.0609
14470TIP3   OH264900   3.741   5.640  11.594  0.1396 -0.3392 -0.3507
14470TIP3    H164901   3.781   5.649  11.508 -1.2088  0.2621 -0.9577
14470TIP3    H264902   3.664   5.585  11.578 -0.2080 -0.0910  0.4294
14471TIP3   OH264903   0.538   6.463   2.501  0.2359 -0.1226  0.2702
14471TIP3    H164904   0.571   6.423   2.420 -0.1451 -0.6351  0.3596
14471TIP3    H264905   0.451   6.496   2.478  0.0256 -0.4861  0.5272
14472TIP3   OH264906   5.027   1.315   1.404 -0.4363 -0.1896 -0.4473
14472TIP3    H164907   5.105   1.313   1.348  0.4244 -1.1045  0.7299
14472TIP3    H264908   5.020   1.226   1.438 -0.1806  0.6224  1.8854
14473TIP3   OH264909   2.342   2.193   5.474 -0.9250 -0.6871 -0.0668
14473TIP3    H164910   2.419   2.140   5.453 -1.0068 -0.7144 -0.2960
14473TIP3    H264911   2.280   2.130   5.512 -1.2995 -0.8944 -1.0053
14474TIP3   OH264912   6.595   0.831  12.796 -0.3398 -0.1674  0.0625
14474TIP3    H164913   6.547   0.870  12.869 -0.3449  1.5414 -0.8238
14474TIP3    H264914   6.528   0.809  12.731 -0.1093  0.6755 -0.4750
14475TIP3   OH264915   2.778   3.987   5.678 -0.1859 -0.2399 -0.5981
14475TIP3    H164916   2.741   3.920   5.736 -1.1235 -0.6821 -1.6588
14475TIP3    H264917   2.718   4.061   5.688 -2.9568 -1.7299 -4.0421
14476TIP3   OH264918   2.352   1.318  16.123 -0.0913 -0.4611 -0.1005
14476TIP3    H164919   2.376   1.399  16.079 -1.8105 -0.1703 -0.5415
14476TIP3    H264920   2.418   1.255  16.094  0.4688  0.4347 -0.8215
14477TIP3   OH264921   4.668   2.508  13.570 -0.1236 -0.1169 -0.0589
14477TIP3    H164922   4.693   2.550  13.488 -1.9423  0.2537 -0.4643
14477TIP3    H264923   4.728   2.434  13.579  1.5015  1.0765 -0.6086
14478TIP3   OH264924   2.721   1.275   3.168  0.4168  0.2224 -0.6706
14478TIP3    H164925   2.665   1.339   3.125  0.4564  1.4518  1.0398
14478TIP3    H264926   2.661   1.211   3.206 -0.1774  2.6149  2.9432
14479TIP3   OH264927   4.123   0.705  15.074  0.0586  0.0792  0.9520
14479TIP3    H164928   4.105   0.630  15.130  1.4328  0.3215  1.7560
14479TIP3    H264929   4.217   0.699  15.055 -0.1925  0.5229 -0.5746
14480TIP3   OH264930   6.573   4.919  15.137  0.4250 -0.1373  0.1022
14480TIP3    H164931   6.664   4.890  15.145  1.1720  1.3885 -1.9825
14480TIP3    H264932   6.575   5.012  15.159 -1.0626 -0.5042  2.0716
14481TIP3   OH264933   0.745   4.461   3.767 -0.0900  0.9336  0.1774
14481TIP3    H164934   0.840   4.461   3.773  0.0149 -2.4229  0.2656
14481TIP3    H264935   0.716   4.506   3.846  1.3748  1.6894  0.3263
14482TIP3   OH264936   6.494   6.615   5.826  0.7337 -0.2383  0.6638
14482TIP3    H164937   6.576   6.664   5.825  0.7818 -0.2932  1.3992
14482TIP3    H264938   6.519   6.527   5.799  0.6637  0.0942 -0.5566
14483TIP3   OH264939   0.741   4.353   0.019 -0.6485  0.0223 -0.0714
14483TIP3    H164940   0.703   4.309  -0.057  1.4807  0.6064 -1.6064
14483TIP3    H264941   0.719   4.445   0.006  1.0325  0.3521 -0.9245
14484TIP3   OH264942   6.483   3.697  12.412  0.5318  0.5092 -1.0370
14484TIP3    H164943   6.461   3.786  12.441  0.7683 -0.5207  2.7717
14484TIP3    H264944   6.579   3.694  12.416  0.6236  0.4340 -2.5697
14485TIP3   OH264945   3.193   3.756  14.458  0.1522 -0.3250  0.3156
14485TIP3    H164946   3.188   3.668  14.419  0.5068 -0.0397 -0.4056
14485TIP3    H264947   3.103   3.778  14.480 -0.1656 -0.2375 -0.9793
14486TIP3   OH264948   3.078   3.508   4.366 -0.3090  0.1403  0.1633
14486TIP3    H164949   3.039   3.525   4.451 -0.3351  0.8856  0.0170
14486TIP3    H264950   3.005   3.482   4.310 -0.7072  1.9192 -0.2149
14487TIP3   OH264951   4.932   3.148   2.466 -0.6173  0.6242  0.0404
14487TIP3    H164952   4.887   3.168   2.384  2.4917  0.4623 -1.8284
14487TIP3    H264953   4.997   3.082   2.443 -1.7329 -1.8978  3.3594
14488TIP3   OH264954   2.264   4.068   6.250 -0.2536  0.1737 -0.0468
14488TIP3    H164955   2.339   4.100   6.198  1.0980  0.9208  2.1975
14488TIP3    H264956   2.294   3.985   6.285  0.3693  1.3294  2.3676
14489TIP3   OH264957   2.339   1.678  15.440  0.2700  0.1599  0.0184
14489TIP3    H164958   2.323   1.755  15.494 -0.3247  0.2014 -0.2025
14489TIP3    H264959   2.252   1.640  15.427  0.3533  0.3214 -1.1622
14490TIP3   OH264960   1.534   1.423  12.954  0.1003 -0.3526 -0.5848
14490TIP3    H164961   1.506   1.468  13.034 -0.4132  0.0848 -1.0093
14490TIP3    H264962   1.453   1.392  12.914  0.3860 -0.9169 -0.7441
14491TIP3   OH264963   4.196   5.002   0.377 -0.1704 -0.1574  0.1622
14491TIP3    H164964   4.135   5.074   0.363 -0.0994  0.4552  2.5312
14491TIP3    H264965   4.140   4.928   0.400 -0.3412 -1.3487 -3.5012
14492TIP3   OH264966   2.829   5.675   5.906 -0.1174 -0.2452 -0.0869
14492TIP3    H164967   2.886   5.728   5.851  0.6808 -1.3114 -0.3099
14492TIP3    H264968   2.830   5.719   5.991  0.1447  0.3565 -0.3959
14493TIP3   OH264969   6.629   6.610  15.030 -0.0784  0.6814  0.4253
14493TIP3    H164970   6.555   6.671  15.035  0.4065  1.2889  0.3119
14493TIP3    H264971   6.614   6.548  15.101 -1.3479  0.0518 -0.3375
14494TIP3   OH264972   6.213   4.217   0.017 -0.6850 -0.2632  0.1150
14494TIP3    H164973   6.284   4.252  -0.037 -1.7915  0.5484 -0.8421
14494TIP3    H264974   6.245   4.226   0.107 -0.0787  1.2725 -0.2280
14495TIP3   OH264975   2.318   3.121   0.893  0.8328 -0.1300  0.1116
14495TIP3    H164976   2.413   3.129   0.903  0.5809  0.7760  2.4052
14495TIP3    H264977   2.286   3.100   0.981 -1.1572  0.4787 -0.4062
14496TIP3   OH264978   6.018   6.749   3.592 -0.0095  0.0269  0.6632
14496TIP3    H164979   5.947   6.810   3.572  0.0562  0.2548  1.1383
14496TIP3    H264980   6.094   6.804   3.607  0.4764 -0.2473 -0.6473
14497TIP3   OH264981   1.194   6.030  11.583  0.3780 -0.2045 -0.2324
14497TIP3    H164982   1.271   5.979  11.561  0.3678 -0.4030  0.1801
14497TIP3    H264983   1.164   5.994  11.667 -0.0269  0.0212 -0.2763
14498TIP3   OH264984   0.783   1.487   3.150  0.2230 -0.5411  0.0982
14498TIP3    H164985   0.704   1.538   3.168 -0.4008 -1.1744 -0.7434
14498TIP3    H264986   0.785   1.478   3.055  1.1717 -0.7595  0.1299
14499TIP3   OH264987   2.472   5.185  15.155  0.2446  1.1514  0.4577
14499TIP3    H164988   2.507   5.096  15.148 -1.6360  0.3995 -0.3214
14499TIP3    H264989   2.503   5.229  15.076  0.4563  0.8922  0.3932
14500TIP3   OH264990   1.136   6.371  14.633 -0.8090  0.8940 -0.6012
14500TIP3    H164991   1.063   6.310  14.638 -1.9089  2.1829 -0.3409
14500TIP3    H264992   1.101   6.446  14.584  0.6409  1.1227 -1.3288
14501TIP3   OH264993   6.615   4.498   6.661 -0.2625 -0.2282 -0.1856
14501TIP3    H164994   6.614   4.417   6.712  0.4568 -0.6612 -0.8506
14501TIP3    H264995   6.576   4.475   6.577  2.0940 -0.5231 -1.2702
14502TIP3   OH264996   2.312   2.828   4.426  0.1800  0.5917 -0.3090
14502TIP3    H164997   2.219   2.839   4.447  0.7215  1.5760  1.9513
14502TIP3    H264998   2.342   2.917   4.406  0.6842  0.3057 -0.8436
14503TIP3   OH264999   2.912   5.178  11.256  0.1479  0.0604 -0.0467
14503TIP3    H165000   2.938   5.257  11.304 -0.5392  1.2227 -1.4872
14503TIP3    H265001   2.850   5.210  11.190  0.6737 -1.5283 -1.3810
14504TIP3   OH265002   0.649   5.809  10.913  0.3873 -0.6948  0.1492
14504TIP3    H165003   0.579   5.752  10.882 -0.8866  1.1793 -0.6080
14504TIP3    H265004   0.704   5.824  10.836  1.4694 -1.8704  0.6548
14505TIP3   OH265005   4.945   2.131  12.007 -0.5245 -0.2942  0.7092
14505TIP3    H165006   4.923   2.064  12.072 -1.4653  1.0083  1.7888
14505TIP3    H265007   5.016   2.181  12.048  0.5142 -0.8784 -0.2998
14506TIP3   OH265008   4.618   5.726   3.076  0.2087  0.7404  0.1575
14506TIP3    H165009   4.591   5.809   3.037  1.7670  0.8259 -0.8412
14506TIP3    H265010   4.645   5.750   3.165  0.6645  1.3280 -0.1272
14507TIP3   OH265011   0.947   0.466  13.566 -0.5411 -0.5155  1.0577
14507TIP3    H165012   0.857   0.484  13.592 -0.0758  0.0741  2.3535
14507TIP3    H265013   0.990   0.551  13.570  0.4151 -1.0160  1.9244
14508TIP3   OH265014   0.940   4.074  15.160 -0.4984 -0.0206 -0.5476
14508TIP3    H165015   0.962   4.126  15.238 -0.3470  0.7812 -1.1116
14508TIP3    H265016   0.982   4.121  15.088  0.0222 -1.1879 -1.0175
14509TIP3   OH265017   4.213   3.828   1.187 -0.1942 -0.0605 -1.0951
14509TIP3    H165018   4.139   3.768   1.196 -0.7531  0.5161 -1.7328
14509TIP3    H265019   4.281   3.776   1.144 -0.1021 -0.6809 -0.2326
14510TIP3   OH265020   3.959   4.609   0.928  0.3052 -0.1244 -0.2929
14510TIP3    H165021   4.015   4.583   1.002  2.1311  2.0981 -0.7773
14510TIP3    H265022   3.982   4.547   0.859 -1.3913 -2.2047  0.8573
14511TIP3   OH265023   0.527   1.629   1.960  0.4795 -0.3352  0.3233
14511TIP3    H165024   0.546   1.658   2.049  0.1634 -0.9844  0.6143
14511TIP3    H265025   0.502   1.709   1.914 -1.7925 -0.2807  1.4767
14512TIP3   OH265026   5.060   5.125  11.495 -0.4632 -0.3095 -0.0543
14512TIP3    H165027   5.126   5.194  11.487 -0.6766 -0.1273 -0.2604
14512TIP3    H265028   4.976   5.171  11.484 -0.6214 -0.5443  0.1717
14513TIP3   OH265029   5.511   2.741  11.173 -0.3034  0.0690  0.6647
14513TIP3    H165030   5.597   2.722  11.211 -0.6712  0.2589  1.6080
14513TIP3    H265031   5.474   2.655  11.152  0.4552  0.0154 -0.5439
14514TIP3   OH265032   0.515   4.000  12.514  0.5652  0.2190 -0.2870
14514TIP3    H165033   0.552   3.960  12.436 -0.1904 -0.8366 -0.1194
14514TIP3    H265034   0.518   4.094  12.496 -0.3748 -0.0355 -1.9321
14515TIP3   OH265035   4.949   1.356   2.103 -0.2812  0.2733 -0.0132
14515TIP3    H165036   5.040   1.339   2.124 -0.2225  0.4888 -0.0891
14515TIP3    H265037   4.951   1.433   2.046 -0.6037  1.1480  1.1180
14516TIP3   OH265038   5.994   1.002   2.385  0.3273  0.1357 -0.7673
14516TIP3    H165039   6.050   1.075   2.359  0.6188 -0.2953 -1.3954
14516TIP3    H265040   5.905   1.033   2.370  0.4321  0.5126 -0.6183
14517TIP3   OH265041   5.542   4.998   0.978  0.1141 -1.1306 -1.1310
14517TIP3    H165042   5.549   5.088   1.009 -1.8503 -0.3641 -2.6956
14517TIP3    H265043   5.632   4.976   0.951  0.5414  0.5808 -1.2736
14518TIP3   OH265044   4.631   5.090   4.348 -0.3523 -0.2104  0.4953
14518TIP3    H165045   4.669   5.026   4.289 -0.5949 -0.2614  0.3937
14518TIP3    H265046   4.704   5.147   4.372 -0.0190 -0.8478  1.0120
14519TIP3   OH265047   4.733   4.978  11.046 -0.3816  0.0801 -0.3837
14519TIP3    H165048   4.654   5.027  11.023  0.1080  2.2501  2.0214
14519TIP3    H265049   4.703   4.911  11.106 -0.4246  1.2743  0.9976
14520TIP3   OH265050   1.691   6.382  13.714  0.1774  0.1226 -0.0559
14520TIP3    H165051   1.751   6.414  13.647 -0.0995  0.1664 -0.2834
14520TIP3    H265052   1.667   6.293  13.685  2.1844 -0.9694  1.3742
14521TIP3   OH265053   6.276   3.076  13.370  0.1652 -0.1228 -0.1993
14521TIP3    H165054   6.291   3.011  13.301 -0.7175  0.5837 -1.0899
14521TIP3    H265055   6.353   3.070  13.426  1.6904  0.3746 -2.1359
14522TIP3   OH265056   1.717   4.784   2.720  0.3946 -0.2043  0.1241
14522TIP3    H165057   1.746   4.703   2.679  1.4556 -0.5854  1.5292
14522TIP3    H265058   1.747   4.853   2.661  1.2339 -0.7530 -0.1058
14523TIP3   OH265059   0.041   1.242  12.701  0.0431 -0.4568  0.1536
14523TIP3    H165060  -0.045   1.272  12.730 -0.8902 -2.0969 -0.7577
14523TIP3    H265061   0.071   1.311  12.641 -0.7748 -0.0030  0.2441
14524TIP3   OH265062   3.513   3.883   4.181  0.1116  0.0538 -0.5837
14524TIP3    H165063   3.583   3.821   4.204  0.0321 -0.3666 -1.4237
14524TIP3    H265064   3.437   3.827   4.165 -0.4308  0.5103  0.3317
14525TIP3   OH265065   4.929   1.771   4.151 -0.7641 -0.5811 -0.0189
14525TIP3    H165066   4.896   1.836   4.214 -0.7215  1.0504 -1.6220
14525TIP3    H265067   4.892   1.688   4.182  0.2072 -0.0715  2.8408
14526TIP3   OH265068   0.875   5.384  15.490 -0.2294  0.1793  0.1936
14526TIP3    H165069   0.808   5.445  15.522 -1.0928 -1.7034  2.2344
14526TIP3    H265070   0.826   5.319  15.439  0.0456 -0.9787  1.3517
14527TIP3   OH265071   5.641   2.625  11.398  0.1443 -0.2480  0.4609
14527TIP3    H165072   5.622   2.536  11.369 -0.1991 -0.7286  2.0531
14527TIP3    H265073   5.736   2.625  11.413  0.2070 -0.2223  0.0670
14528TIP3   OH265074   0.215   0.523  13.342  0.2095  0.5823  0.7800
14528TIP3    H165075   0.253   0.603  13.378 -0.7742  0.7544  1.4859
14528TIP3    H265076   0.121   0.535  13.350  0.0297 -0.3742  0.2800
14529TIP3   OH265077   2.132   3.505  16.128 -0.0279 -0.4810 -0.6779
14529TIP3    H165078   2.063   3.571  16.138 -1.7606 -2.3204  0.0281
14529TIP3    H265079   2.088   3.429  16.089  1.2855 -2.1875  0.9941
14530TIP3   OH265080   4.223   2.289   2.140  0.2669  0.4516  0.3395
14530TIP3    H165081   4.138   2.330   2.155 -0.3173 -0.4692 -0.3371
14530TIP3    H265082   4.284   2.339   2.195 -1.0778 -0.3222  2.6507
14531TIP3   OH265083   5.144   2.424   2.231 -0.0615  0.1414 -0.6274
14531TIP3    H165084   5.081   2.450   2.164 -0.5169  0.9149  0.0840
14531TIP3    H265085   5.199   2.500   2.244  0.7363 -0.3765 -0.9062
14532TIP3   OH265086   1.526   1.147  14.928 -1.0303 -0.0183  0.5459
14532TIP3    H165087   1.578   1.146  14.848 -2.3596  0.5153 -0.3628
14532TIP3    H265088   1.547   1.231  14.969  0.7523 -0.8976  1.5624
14533TIP3   OH265089   1.985   0.152  13.018  0.5467  0.4838 -0.3156
14533TIP3    H165090   1.912   0.170  12.959 -0.9972  0.0921  1.4069
14533TIP3    H265091   1.982   0.223  13.083  0.1827 -0.8092  1.1374
14534TIP3   OH265092   4.057   5.285  12.738  0.7738 -0.1145 -0.5327
14534TIP3    H165093   3.973   5.239  12.733  1.1701 -2.1587  4.7798
14534TIP3    H265094   4.123   5.216  12.725  1.3410 -1.0217  4.6162
14535TIP3   OH265095   2.379   4.330  14.069  0.9525  0.4475 -0.2426
14535TIP3    H165096   2.407   4.351  14.158 -0.4149  0.0114  0.3207
14535TIP3    H265097   2.420   4.245  14.050  1.1705  0.4964  0.0144
14536TIP3   OH265098   5.987   1.133   1.842 -0.4169 -0.1771  0.0259
14536TIP3    H165099   6.016   1.042   1.852 -0.6002 -0.2829 -0.3915
14536TIP3    H265100   5.952   1.137   1.754 -0.5571  0.2618  0.1018
14537TIP3   OH265101   4.995   2.476   2.949 -0.1396  0.4622  0.1397
14537TIP3    H165102   5.011   2.496   2.857  2.3369  1.5737  0.7371
14537TIP3    H265103   5.003   2.381   2.956 -2.8068  0.0544 -1.1461
14538TIP3   OH265104   4.754   4.670  17.099 -0.2048  0.0639  0.1217
14538TIP3    H165105   4.773   4.618  17.178 -1.4177 -2.1382 -0.9192
14538TIP3    H265106   4.717   4.751  17.132  1.2063  0.0683  1.8473
14539TIP3   OH265107   4.174   4.259   1.066  0.0039 -0.3015 -0.1731
14539TIP3    H165108   4.202   4.194   1.131  1.4931  0.1376 -0.3302
14539TIP3    H265109   4.152   4.336   1.117  1.8681  0.2877 -0.1625
14540TIP3   OH265110   2.426   0.127  10.631 -0.0780  0.2251 -0.2317
14540TIP3    H165111   2.424   0.221  10.649 -0.1444  0.1895 -0.0542
14540TIP3    H265112   2.515   0.101  10.655  0.1869  0.3805 -0.9908
14541TIP3   OH265113   4.655   6.658  14.236 -0.1588  0.0445  0.3908
14541TIP3    H165114   4.715   6.591  14.203  0.0152  0.7059 -0.7008
14541TIP3    H265115   4.711   6.736  14.245 -1.2124  1.3480 -2.8662
14542TIP3   OH265116   1.397   6.433  11.633 -0.7948 -0.6377 -0.1547
14542TIP3    H165117   1.350   6.402  11.556 -2.2109 -2.5162  1.3701
14542TIP3    H265118   1.478   6.381  11.635 -0.9876 -0.9365 -0.1126
14543TIP3   OH265119   6.246   5.054  15.315 -0.0856  0.0117  0.2777
14543TIP3    H165120   6.285   4.967  15.305 -0.6539 -0.0434 -2.0171
14543TIP3    H265121   6.282   5.087  15.398 -0.5123 -2.7017  1.6693
14544TIP3   OH265122   1.185   6.597   4.478  0.2824  0.0131  0.0959
14544TIP3    H165123   1.263   6.547   4.451  0.2365 -0.2711  0.4834
14544TIP3    H265124   1.161   6.560   4.563  0.2755  0.7398  0.4178
14545TIP3   OH265125   2.482   5.882  15.477 -0.2847 -0.1249  0.2698
14545TIP3    H165126   2.419   5.823  15.437 -0.3677 -0.6474  1.1378
14545TIP3    H265127   2.444   5.902  15.563 -0.3373  1.3196 -0.0529
14546TIP3   OH265128   3.802   6.004  13.064  0.4469 -0.7476 -0.5614
14546TIP3    H165129   3.887   6.012  13.021  0.5806  0.4879 -0.1199
14546TIP3    H265130   3.745   5.964  12.999  0.9046  0.1349 -1.5222
14547TIP3   OH265131   2.755   4.982  16.142 -0.2544  0.0083  0.3174
14547TIP3    H165132   2.819   4.956  16.076 -1.0319  1.1232 -0.9347
14547TIP3    H265133   2.728   4.899  16.183  1.3665 -0.5444  0.3257
14548TIP3   OH265134   6.727   3.609  14.746 -0.1743 -0.0652 -0.2016
14548TIP3    H165135   6.668   3.596  14.672  0.2471  2.5569 -1.0993
14548TIP3    H265136   6.673   3.649  14.814 -0.0399 -0.2967  0.0445
14549TIP3   OH265137   2.129   5.255  16.192  0.5210 -0.2132  0.2253
14549TIP3    H165138   2.166   5.251  16.103 -0.8649  2.1984 -0.5769
14549TIP3    H265139   2.040   5.221  16.182  1.2968 -2.8450  1.4339
14550TIP3   OH265140   2.694   5.015   3.610 -0.7174  0.4117  0.1447
14550TIP3    H165141   2.682   5.094   3.662 -1.7891 -0.2439  0.9360
14550TIP3    H265142   2.704   4.945   3.676 -1.4906 -0.3496 -0.5277
14551TIP3   OH265143   4.375   5.241  17.067 -0.2722  0.1430 -0.1682
14551TIP3    H165144   4.306   5.307  17.067 -0.3475  0.0659  0.5727
14551TIP3    H265145   4.331   5.160  17.041 -0.2341  0.3178 -0.7942
14552TIP3   OH265146   5.628   1.862  16.692 -0.3794  0.0279 -0.2331
14552TIP3    H165147   5.662   1.896  16.775  1.0754 -0.1542 -0.7326
14552TIP3    H265148   5.579   1.935  16.654 -3.7076 -0.7126  2.0914
14553TIP3   OH265149   4.034   3.211   2.494 -0.8964  0.0626 -0.2092
14553TIP3    H165150   4.112   3.217   2.550  1.0740  2.7358 -2.9127
14553TIP3    H265151   3.966   3.257   2.543  0.6584  1.9999  0.2798
14554TIP3   OH265152   5.794   0.100   6.840  0.1574  0.3986 -0.6935
14554TIP3    H165153   5.842   0.051   6.907 -1.2990 -1.1364 -0.7079
14554TIP3    H265154   5.863   0.144   6.789  1.3993  0.0668  0.6255
14555TIP3   OH265155   4.226   0.485  13.892  0.0775 -0.2915 -0.0852
14555TIP3    H165156   4.157   0.492  13.826 -1.2901  2.1201  1.4286
14555TIP3    H265157   4.209   0.401  13.936 -1.6769  0.0278 -0.0552
14556TIP3   OH265158   2.428   4.111  11.648 -0.0761  0.0250 -0.5471
14556TIP3    H165159   2.380   4.121  11.730 -1.0971 -0.2812 -1.0864
14556TIP3    H265160   2.363   4.078  11.586 -0.8548  4.9729 -2.8872
14557TIP3   OH265161   5.572   3.680   4.359  0.8043 -0.2540  0.1801
14557TIP3    H165162   5.573   3.707   4.267  1.8421  0.8556  0.4906
14557TIP3    H265163   5.606   3.756   4.406 -1.1519 -0.2159  1.6577
14558TIP3   OH265164   3.259   5.691   4.698  0.1709 -0.3919  1.0321
14558TIP3    H165165   3.316   5.663   4.627 -0.4496 -1.4400  0.9228
14558TIP3    H265166   3.258   5.618   4.759 -2.3793 -1.1672  0.2025
14559TIP3   OH265167   3.425   0.128   3.293 -0.4172  0.2494  0.2668
14559TIP3    H165168   3.368   0.204   3.280 -0.0619  0.5429  0.4252
14559TIP3    H265169   3.364   0.054   3.302 -0.7377  0.3362 -0.9789
14560TIP3   OH265170   6.033   0.616   1.749 -0.3731  0.5392  0.1740
14560TIP3    H165171   5.962   0.561   1.783  0.8484 -1.5855 -0.5511
14560TIP3    H265172   6.111   0.589   1.798  0.6837  0.0459 -1.6819
14561TIP3   OH265173   1.786   5.327  11.353  0.0677  0.3586  0.0134
14561TIP3    H165174   1.807   5.402  11.409  2.9783 -0.3946  0.0790
14561TIP3    H265175   1.701   5.297  11.385  0.0544  2.0196  1.7280
14562TIP3   OH265176   2.611   3.414  16.552  0.2962  0.0288 -0.3770
14562TIP3    H165177   2.637   3.463  16.474  0.8940 -0.5932 -0.5749
14562TIP3    H265178   2.688   3.415  16.608 -0.4346  1.3233  0.6699
14563TIP3   OH265179   1.385   6.227   2.542 -0.1989 -0.1044 -0.3907
14563TIP3    H165180   1.396   6.258   2.632  0.2814  1.1315 -0.8541
14563TIP3    H265181   1.475   6.209   2.512 -0.3046  0.0552 -0.8091
14564TIP3   OH265182   4.760   0.818  12.164 -0.3722  0.0590  0.7496
14564TIP3    H165183   4.731   0.734  12.201 -0.2324  0.0414  0.8215
14564TIP3    H265184   4.690   0.844  12.104  0.4490 -1.0457 -0.7484
14565TIP3   OH265185   0.013   3.709   2.242 -0.9316  0.2435  0.4578
14565TIP3    H165186   0.032   3.711   2.149  1.3877  2.6001  0.8705
14565TIP3    H265187  -0.014   3.619   2.260  0.4987 -0.7762 -2.1243
14566TIP3   OH265188   4.687   5.554  16.194 -0.0303  0.1275  0.0669
14566TIP3    H165189   4.722   5.480  16.145 -1.8051 -0.6554 -0.0755
14566TIP3    H265190   4.764   5.591  16.238  1.3004 -0.3042 -1.7491
14567TIP3   OH265191   1.018   3.724  12.374  0.2009  0.0985 -0.2733
14567TIP3    H165192   1.092   3.685  12.327  0.7191 -1.0410  1.4215
14567TIP3    H265193   0.952   3.655  12.376 -0.1136  0.4082 -0.0024
14568TIP3   OH265194   1.948   2.156  12.574 -0.4664 -0.2432 -0.4888
14568TIP3    H165195   2.013   2.170  12.643 -1.1762  1.3553 -0.1051
14568TIP3    H265196   1.982   2.205  12.499 -0.5805 -0.4984 -0.7080
14569TIP3   OH265197   5.708   6.183   2.430  0.0100  0.1041 -0.2110
14569TIP3    H165198   5.637   6.203   2.491  0.6771  2.2738 -0.0841
14569TIP3    H265199   5.663   6.161   2.348 -0.8338  1.2061 -0.0690
14570TIP3   OH265200   0.569   1.154   1.933 -0.1909  0.1812  0.2810
14570TIP3    H165201   0.651   1.199   1.950  0.0052 -0.3174  0.6732
14570TIP3    H265202   0.517   1.216   1.883  0.8997  0.0370 -1.0683
14571TIP3   OH265203   5.936   2.212   4.616  0.3241  0.5464  0.2987
14571TIP3    H165204   5.967   2.240   4.531  1.3044 -1.0745  0.0931
14571TIP3    H265205   6.015   2.196   4.667 -0.2089 -0.4220  0.8544
14572TIP3   OH265206   5.122   0.815   3.105  0.5987 -0.4827  0.8905
14572TIP3    H165207   5.200   0.867   3.127  2.4525 -2.1762 -1.1456
14572TIP3    H265208   5.099   0.843   3.017 -0.9483 -0.2897  1.3221
14573TIP3   OH265209   3.436   5.374  13.665  0.4201  0.1379  0.4289
14573TIP3    H165210   3.445   5.469  13.658  0.6172  0.1082  0.2791
14573TIP3    H265211   3.510   5.339  13.616 -0.0024 -0.1006 -0.0612
14574TIP3   OH265212   0.359   6.663   2.819 -0.4767 -0.2995  0.0499
14574TIP3    H165213   0.298   6.591   2.835 -1.5057  0.5338  0.0110
14574TIP3    H265214   0.344   6.724   2.891  0.1649  0.0174 -0.0761
14575TIP3   OH265215   0.942   5.891   1.796  0.4603  0.1830  0.0946
14575TIP3    H165216   0.951   5.986   1.800 -4.2047  0.7963  0.9486
14575TIP3    H265217   0.942   5.863   1.888  0.4918 -0.4630 -0.0966
14576TIP3   OH265218   0.300   2.419   1.140  0.2872 -0.1978  0.4030
14576TIP3    H165219   0.219   2.429   1.191  0.6282  0.2253  0.8630
14576TIP3    H265220   0.361   2.376   1.200  0.4763 -0.3018  0.1342
14577TIP3   OH265221   6.804   0.562   4.684 -0.2434 -0.5133 -0.3334
14577TIP3    H165222   6.896   0.588   4.673  0.1187 -0.4645  2.1276
14577TIP3    H265223   6.755   0.644   4.677 -0.0166 -0.4095 -0.7671
14578TIP3   OH265224   6.600   2.801   3.567 -0.3034 -0.2396 -0.1928
14578TIP3    H165225   6.679   2.749   3.582  1.2930  2.3529  1.2012
14578TIP3    H265226   6.570   2.774   3.481  1.4268 -2.1545 -0.2812
14579TIP3   OH265227   2.374   5.512   5.232 -0.7033  0.2858  0.3758
14579TIP3    H165228   2.286   5.475   5.224  0.0645 -1.5024 -0.1795
14579TIP3    H265229   2.386   5.565   5.153 -1.4935  1.0596  0.7589
14580TIP3   OH265230   6.620   5.745   0.397  0.2680 -0.0388  0.2344
14580TIP3    H165231   6.574   5.794   0.466  0.8640  0.9024 -0.0136
14580TIP3    H265232   6.575   5.661   0.393 -1.1486  0.6971  0.2870
14581TIP3   OH265233   6.623   4.127   5.789  0.2326  0.0528 -0.0369
14581TIP3    H165234   6.625   4.136   5.694  1.6382  2.0564  0.1392
14581TIP3    H265235   6.643   4.034   5.804  0.6914 -0.1465 -1.6646
14582TIP3   OH265236   5.892   1.822  11.898 -0.1181  0.3385 -0.0769
14582TIP3    H165237   5.831   1.753  11.874 -0.3780  1.1107 -1.7862
14582TIP3    H265238   5.960   1.819  11.831  0.4550  1.0261  0.4488
14583TIP3   OH265239   1.383   4.643   0.935 -0.4848 -0.6303 -0.2398
14583TIP3    H165240   1.320   4.614   0.870  0.4205  0.5978 -1.7297
14583TIP3    H265241   1.382   4.739   0.930  1.3700 -0.5664 -0.2195
14584TIP3   OH265242   0.568   6.134   0.940  0.4766 -0.1939  1.2509
14584TIP3    H165243   0.520   6.209   0.974 -1.0575 -0.4542 -0.2304
14584TIP3    H265244   0.644   6.172   0.895 -0.1364  0.4626  0.7531
14585TIP3   OH265245   5.977   5.518  15.577  0.6030 -0.4649  1.0779
14585TIP3    H165246   6.044   5.501  15.643  3.1973 -2.3923 -1.8197
14585TIP3    H265247   5.966   5.613  15.579  2.3085 -0.2411  2.6813
14586TIP3   OH265248   5.663   1.038   4.744  0.5415 -0.2001  0.0428
14586TIP3    H165249   5.635   1.110   4.801  0.3822 -3.0095  3.9167
14586TIP3    H265250   5.582   0.992   4.722  0.7863 -0.0735 -1.1792
14587TIP3   OH265251   0.475   3.083  12.605  0.0584  0.0917 -0.0231
14587TIP3    H165252   0.541   3.015  12.614 -0.2392 -0.4039 -1.3771
14587TIP3    H265253   0.506   3.155  12.661  0.6830 -0.9074  0.9531
14588TIP3   OH265254   3.011   1.825  14.343  0.1040 -0.3230  0.5486
14588TIP3    H165255   2.978   1.864  14.263 -0.1632 -0.3819  0.6276
14588TIP3    H265256   3.101   1.858  14.352  0.6928 -1.5422 -0.6002
14589TIP3   OH265257   5.075   6.740   2.615 -0.1295  0.7563  0.1965
14589TIP3    H165258   5.031   6.673   2.667  1.2968 -2.2048 -2.1254
14589TIP3    H265259   5.004   6.791   2.577 -1.2862  0.4473  1.8146
14590TIP3   OH265260   5.265   2.304   5.150 -0.5988 -0.5736  0.1659
14590TIP3    H165261   5.343   2.329   5.198  0.3699 -0.8594 -1.2115
14590TIP3    H265262   5.297   2.270   5.067 -2.1505 -1.3154 -0.1790
14591TIP3   OH265263   2.141   5.185   5.354 -0.2770  0.2053  0.1203
14591TIP3    H165264   2.063   5.138   5.326 -0.7490  0.2899  1.2185
14591TIP3    H265265   2.155   5.156   5.444 -1.7929  3.6049  1.6180
14592TIP3   OH265266   5.745   6.508  14.650 -0.9084 -0.5989 -0.4509
14592TIP3    H165267   5.663   6.555  14.640  0.7193  2.9454  1.0996
14592TIP3    H265268   5.758   6.503  14.745 -0.2360 -2.9283 -0.6107
14593TIP3   OH265269   4.608   1.733  16.306  0.2459 -0.0404  0.0835
14593TIP3    H165270   4.689   1.697  16.270  1.4107  2.0428  0.4471
14593TIP3    H265271   4.543   1.723  16.236  1.6422  1.0656 -1.4373
14594TIP3   OH265272   3.082   6.377   2.139  0.2557 -0.0010 -0.0705
14594TIP3    H165273   3.060   6.285   2.155  1.6274 -0.3797 -0.1584
14594TIP3    H265274   3.056   6.392   2.049 -1.2812  0.1378  0.3671
14595TIP3   OH265275   3.804   4.393   3.347  0.2125  0.4989 -0.2740
14595TIP3    H165276   3.871   4.328   3.327 -0.6419 -0.2624 -0.7532
14595TIP3    H265277   3.759   4.360   3.424  1.0170  1.5179  0.6670
14596TIP3   OH265278   0.193   5.669  14.983 -0.4056  0.2553 -0.4335
14596TIP3    H165279   0.135   5.722  14.929  0.3253  0.9643 -0.5349
14596TIP3    H265280   0.239   5.613  14.922  0.1883  0.8322 -0.5216
14597TIP3   OH265281   5.052   6.035   5.440  0.1223 -0.3892 -0.4230
14597TIP3    H165282   5.053   6.105   5.506 -1.2407 -0.7165 -0.0207
14597TIP3    H265283   5.043   6.082   5.357  0.2747 -0.0413 -0.2485
14598TIP3   OH265284   5.937   1.320   2.594 -0.0149 -0.4445  0.2052
14598TIP3    H165285   5.971   1.324   2.504 -0.5469  0.3776  0.0258
14598TIP3    H265286   5.939   1.412   2.624 -2.1713 -0.3397  0.1497
14599TIP3   OH265287   3.895   2.661  15.079 -0.8478  0.2942 -0.1461
14599TIP3    H165288   3.974   2.691  15.035 -0.8326 -1.3385 -1.3124
14599TIP3    H265289   3.857   2.741  15.117  2.7000  0.8571  2.8218
14600TIP3   OH265290   2.374   0.816  17.292 -0.0903 -0.3026  0.3752
14600TIP3    H165291   2.465   0.787  17.298  0.2904  1.1494  3.4384
14600TIP3    H265292   2.323   0.743  17.327  0.1030 -0.3289  0.6044
14601TIP3   OH265293   4.584   3.092  16.528  0.2170  0.6914 -0.0655
14601TIP3    H165294   4.501   3.118  16.567 -0.7436  0.8504 -2.0897
14601TIP3    H265295   4.560   3.027  16.462  1.6724  0.9375 -0.8703
14602TIP3   OH265296   5.940   0.255   3.318  0.1506  0.0630  0.3082
14602TIP3    H165297   5.916   0.338   3.360  1.1389 -0.3461  1.7709
14602TIP3    H265298   5.860   0.203   3.319 -1.3305  1.9385 -3.2682
14603TIP3   OH265299   4.248   6.579   5.197 -0.3484 -0.2922  0.2307
14603TIP3    H165300   4.279   6.572   5.287  0.2013 -0.0501  0.0665
14603TIP3    H265301   4.328   6.588   5.145 -0.6556 -0.4744 -0.2863
14604TIP3   OH265302   1.080   0.757   5.626 -0.1614  0.4908 -0.8179
14604TIP3    H165303   1.126   0.726   5.548  1.9942  0.1216  0.5281
14604TIP3    H265304   1.062   0.849   5.608  2.5436  1.0949 -0.8470
14605TIP3   OH265305   5.545   0.870   0.451  0.3118  0.0760  0.5444
14605TIP3    H165306   5.516   0.960   0.440  0.2676 -0.0089 -0.0561
14605TIP3    H265307   5.559   0.838   0.362  0.1878 -0.5579  0.7495
14606TIP3   OH265308   1.353   1.086   5.491 -0.2709 -0.1221 -0.2933
14606TIP3    H165309   1.428   1.126   5.534 -0.4215 -0.7326  0.5737
14606TIP3    H265310   1.305   1.160   5.453 -0.4492  0.5366  1.1143
14607TIP3   OH265311   4.549   3.848   0.283 -0.3717 -0.1861 -0.5471
14607TIP3    H165312   4.623   3.864   0.341 -1.3146  0.3306  0.5661
14607TIP3    H265313   4.527   3.934   0.247 -2.0544  0.2058  1.2194
14608TIP3   OH265314   5.540   6.219  12.559  0.6009 -0.4795 -0.5360
14608TIP3    H165315   5.522   6.258  12.473  0.1497 -0.7225 -0.5560
14608TIP3    H265316   5.524   6.126  12.546 -3.1783 -0.1896  0.6997
14609TIP3   OH265317   1.883   0.567   0.719  0.4151  0.5523  0.0705
14609TIP3    H165318   1.918   0.610   0.641  0.2256  2.2811  0.9012
14609TIP3    H265319   1.960   0.528   0.761  0.2716 -2.3309 -2.0250
14610TIP3   OH265320   3.629   3.515  14.121 -0.1178  0.0715  0.2760
14610TIP3    H165321   3.664   3.533  14.208  0.5016 -0.2387  0.0972
14610TIP3    H265322   3.644   3.421  14.108  0.8181  0.3150 -0.6016
14611TIP3   OH265323   2.097   2.550  16.429  0.5298  0.8665  0.1217
14611TIP3    H165324   2.121   2.597  16.509  0.1500 -0.7229  1.2268
14611TIP3    H265325   2.088   2.459  16.457 -0.9197  0.4753 -1.4807
14612TIP3   OH265326   1.708   3.943   4.515  0.1038  0.6814 -0.4845
14612TIP3    H165327   1.747   4.017   4.562  1.8006  0.4715 -1.4561
14612TIP3    H265328   1.664   3.891   4.582  1.8581  0.7422  0.7866
14613TIP3   OH265329   5.936   3.172  11.893 -0.1328  0.2475  0.1381
14613TIP3    H165330   6.023   3.140  11.918 -0.7928 -2.8706 -1.1493
14613TIP3    H265331   5.939   3.178  11.797 -1.3697 -0.0270  0.0693
14614TIP3   OH265332   5.698   0.980  13.812  0.2752  0.0119 -0.0082
14614TIP3    H165333   5.635   1.050  13.797  0.1320  0.3849  1.9790
14614TIP3    H265334   5.663   0.932  13.888  2.2557  0.1303  1.0457
14615TIP3   OH265335   5.189   4.580   1.219  0.0779 -0.3760 -0.1121
14615TIP3    H165336   5.138   4.504   1.191 -0.5951 -0.0285  0.1617
14615TIP3    H265337   5.194   4.572   1.314 -0.4321  0.1966 -0.0356
14616TIP3   OH265338   6.409   3.057   6.286  0.3923  0.1529  0.3113
14616TIP3    H165339   6.424   2.963   6.301 -0.8126  0.1792  2.0320
14616TIP3    H265340   6.389   3.092   6.373  0.0272  1.8605 -0.4192
14617TIP3   OH265341   4.140   3.328  14.668 -0.1099 -0.2704 -0.7591
14617TIP3    H165342   4.072   3.269  14.637 -0.4285  0.5102 -1.5811
14617TIP3    H265343   4.185   3.279  14.737 -1.1399 -1.0010 -0.5921
14618TIP3   OH265344   1.506   4.020  14.493  0.5867  0.1878 -0.5495
14618TIP3    H165345   1.490   3.970  14.573 -2.4199  2.8511  0.7196
14618TIP3    H265346   1.562   4.092  14.521 -1.2750  1.6944 -0.4761
14619TIP3   OH265347   2.015   5.531   4.648  0.2013 -0.2816  0.1936
14619TIP3    H165348   2.072   5.579   4.589  0.5200 -0.4477  0.3638
14619TIP3    H265349   2.019   5.440   4.618 -0.0169 -0.2864  0.1733
14620TIP3   OH265350   0.851   3.739  16.659  0.3162  0.2505 -0.4043
14620TIP3    H165351   0.945   3.741  16.644  0.8809  0.6130  2.4914
14620TIP3    H265352   0.830   3.647  16.673  0.1475  0.1296 -1.3949
14621TIP3   OH265353   4.897   4.083   5.919  0.1864  0.5065  0.4465
14621TIP3    H165354   4.831   4.130   5.869  0.9746  0.3418 -0.8013
14621TIP3    H265355   4.949   4.037   5.853 -0.8946 -2.6520  1.5983
14622TIP3   OH265356   6.166   5.830  15.855 -0.3980 -0.2651  0.1707
14622TIP3    H165357   6.171   5.849  15.948 -0.8355 -0.6512  0.2759
14622TIP3    H265358   6.121   5.905  15.817 -1.4050 -0.7074  0.4663
14623TIP3   OH265359   6.326   1.997   2.745  0.2755  0.2142  0.0619
14623TIP3    H165360   6.238   2.018   2.715 -0.3491 -1.0089  0.9775
14623TIP3    H265361   6.372   1.970   2.665 -0.3980  0.1342 -0.3061
14624TIP3   OH265362   6.514   2.456   1.772 -0.3062 -0.1804 -0.4846
14624TIP3    H165363   6.547   2.475   1.684  1.2806 -1.5986 -0.2494
14624TIP3    H265364   6.450   2.525   1.789  0.0452  0.6751 -2.3725
14625TIP3   OH265365   1.252   4.972  14.242  0.6587  0.1352 -0.1321
14625TIP3    H165366   1.252   5.065  14.218  2.2785 -0.0675 -1.0404
14625TIP3    H265367   1.272   4.926  14.160 -1.5538 -1.1496 -0.0246
14626TIP3   OH265368   5.193   6.776   1.184 -0.0528 -0.1539 -0.3413
14626TIP3    H165369   5.216   6.826   1.262 -0.4208 -0.0339 -0.3100
14626TIP3    H265370   5.251   6.700   1.186 -0.1581 -0.2221  0.1238
14627TIP3   OH265371   5.762   6.094  14.378  0.2042 -0.2308  0.2443
14627TIP3    H165372   5.717   6.013  14.356  2.1437 -1.4059  0.3418
14627TIP3    H265373   5.849   6.084  14.338  0.5547  1.7347  0.4071
14628TIP3   OH265374   2.581   2.907  11.591  0.7495  0.2854 -0.0863
14628TIP3    H165375   2.656   2.959  11.564  0.4595  0.3165 -0.8556
14628TIP3    H265376   2.605   2.872  11.677  2.1637 -0.7408 -0.8613
14629TIP3   OH265377   2.276   3.585   6.416 -0.6746  0.5151 -0.1863
14629TIP3    H165378   2.283   3.499   6.374 -1.4930  0.2325  0.2318
14629TIP3    H265379   2.192   3.582   6.462 -0.5030  1.3814  0.1970
14630TIP3   OH265380   2.985   0.480  11.699 -0.5742 -0.0212 -0.1227
14630TIP3    H165381   3.080   0.472  11.705 -0.6133 -0.2456  0.1616
14630TIP3    H265382   2.966   0.566  11.737 -0.6211 -0.5666  1.1390
14631TIP3   OH265383   1.056   3.006  16.995 -0.0035  0.2334  0.3211
14631TIP3    H165384   1.043   2.930  16.939 -0.1157  0.2724  0.2952
14631TIP3    H265385   0.991   2.997  17.064 -0.4534  0.6379 -0.0353
14632TIP3   OH265386   5.139   2.779  15.020 -0.4698  0.6280 -0.8702
14632TIP3    H165387   5.154   2.727  15.099  0.8306  0.6866 -1.0579
14632TIP3    H265388   5.174   2.726  14.949 -2.6395  0.0798 -1.6005
14633TIP3   OH265389   1.029   5.347   0.993 -0.1375 -0.3487 -0.2682
14633TIP3    H165390   1.039   5.439   0.972  1.2918 -0.1810  0.9420
14633TIP3    H265391   1.094   5.331   1.063 -0.5909 -2.1705 -0.2040
14634TIP3   OH265392   0.197   4.531  14.952 -0.2980 -0.3319 -0.5540
14634TIP3    H165393   0.142   4.593  14.903 -1.5966 -2.1988 -1.5560
14634TIP3    H265394   0.245   4.483  14.885  1.8933  0.5564  0.2702
14635TIP3   OH265395   2.599   3.729   2.971  0.1576  0.1622 -0.4087
14635TIP3    H165396   2.633   3.748   3.059 -0.8378  1.2192 -0.2331
14635TIP3    H265397   2.662   3.770   2.912 -0.0015  0.8274 -0.1304
14636TIP3   OH265398   0.216   2.108  15.292  0.3117  0.3902 -0.1540
14636TIP3    H165399   0.183   2.134  15.207 -0.3458  0.1201  0.0153
14636TIP3    H265400   0.180   2.173  15.353  1.0969  0.8120 -0.1337
14637TIP3   OH265401   3.662   5.927   0.136 -0.3486 -0.3407 -0.2555
14637TIP3    H165402   3.597   5.995   0.119 -0.2283 -0.0117  0.5624
14637TIP3    H265403   3.743   5.975   0.153 -0.1965 -0.6934  0.0313
14638TIP3   OH265404   5.564   1.911  16.140  0.5938  0.1594  0.1928
14638TIP3    H165405   5.654   1.933  16.165  1.9218 -2.0046 -2.2367
14638TIP3    H265406   5.551   1.823  16.175 -0.3113  0.1646 -0.1202
14639TIP3   OH265407   0.961   0.487   3.953 -0.3559  0.2395 -0.3876
14639TIP3    H165408   1.041   0.450   3.916 -1.1365 -0.5925 -1.2815
14639TIP3    H265409   0.941   0.562   3.897  0.5360  1.3101  0.6733
14640TIP3   OH265410   1.052   0.078   5.803 -0.0396  0.1620 -0.6016
14640TIP3    H165411   0.969   0.033   5.789 -0.4032  0.4516  0.5135
14640TIP3    H265412   1.037   0.167   5.770 -0.4934  0.4858  0.4317
14641TIP3   OH265413   2.073   5.153   0.713  0.1196 -0.0429  0.7346
14641TIP3    H165414   2.120   5.164   0.796  0.1805 -0.8638  0.8141
14641TIP3    H265415   2.113   5.217   0.654  1.6172 -0.9947  0.6776
14642TIP3   OH265416   5.558   3.556   3.957 -0.2055  0.0976 -0.3899
14642TIP3    H165417   5.521   3.490   4.016 -0.2480  1.1927  0.8405
14642TIP3    H265418   5.641   3.517   3.928  0.7700  0.3086  1.9251
14643TIP3   OH265419   0.387   4.243   5.888 -0.0229  0.2699 -0.0348
14643TIP3    H165420   0.437   4.323   5.868 -0.8436  0.7124 -0.3587
14643TIP3    H265421   0.433   4.204   5.962  1.2686  0.2530 -0.8089
14644TIP3   OH265422   4.772   5.930  15.889 -0.2256  0.4336 -0.0308
14644TIP3    H165423   4.846   5.941  15.949 -0.3482  0.6924  0.0739
14644TIP3    H265424   4.767   5.835  15.876  0.5265  0.4519 -0.5491
14645TIP3   OH265425   5.154   5.622  15.685  0.4380  0.3543  0.0747
14645TIP3    H165426   5.061   5.636  15.669  0.0622 -0.5165  1.3410
14645TIP3    H265427   5.189   5.592  15.600 -0.2234  1.5342 -0.6437
14646TIP3   OH265428   1.007   2.285   2.492  0.1942  0.1857 -0.1904
14646TIP3    H165429   1.055   2.299   2.573 -0.1881  1.2314 -0.1229
14646TIP3    H265430   0.942   2.355   2.491 -0.3037 -0.2736 -1.0325
14647TIP3   OH265431   6.164   2.098   0.498 -0.3050  0.0176  0.4413
14647TIP3    H165432   6.155   2.072   0.406  1.1490  1.3026 -0.1148
14647TIP3    H265433   6.126   2.025   0.548 -1.1586 -0.6849 -1.1680
14648TIP3   OH265434   5.759   3.349   1.826  0.0609 -0.0050 -0.1523
14648TIP3    H165435   5.673   3.379   1.856 -0.5743 -1.6833 -0.1767
14648TIP3    H265436   5.821   3.406   1.870 -1.0203  0.2970  1.0476
14649TIP3   OH265437   2.008   6.607  13.733 -0.2428  0.0719  0.0263
14649TIP3    H165438   1.982   6.539  13.670 -1.7627 -0.3940  1.1011
14649TIP3    H265439   1.968   6.579  13.815  1.1836  0.9993  1.0633
14650TIP3   OH265440   2.758   6.280  16.858  0.5162 -0.1973 -0.2659
14650TIP3    H165441   2.694   6.211  16.839 -1.0492  1.3879 -1.0295
14650TIP3    H265442   2.729   6.317  16.941 -0.0505  1.0096 -0.9700
14651TIP3   OH265443   2.804   0.223   1.909 -0.0865 -0.0097  0.3537
14651TIP3    H165444   2.854   0.186   1.836  0.9438  0.8180  0.6133
14651TIP3    H265445   2.858   0.206   1.986 -0.8954 -0.3623  0.8498
14652TIP3   OH265446   5.009   5.151   2.685 -0.2597  0.2069  0.0605
14652TIP3    H165447   5.052   5.147   2.600  0.6961 -0.4977  0.5575
14652TIP3    H265448   5.058   5.089   2.740 -1.2947  0.1301  0.9271
14653TIP3   OH265449   6.290   3.756   5.338  0.0756  0.5360  0.0632
14653TIP3    H165450   6.356   3.703   5.383 -0.4694 -1.3405 -1.1798
14653TIP3    H265451   6.338   3.831   5.305  1.0450  0.5041  1.3276
14654TIP3   OH265452   2.517   6.037  13.264 -0.0743 -0.1573  0.8076
14654TIP3    H165453   2.465   6.084  13.198 -0.3435 -0.8117  0.5455
14654TIP3    H265454   2.600   6.085  13.268 -0.2077  0.1251  0.2815
14655TIP3   OH265455   4.805   6.512   2.040  0.1460 -0.0523  0.0675
14655TIP3    H165456   4.800   6.562   2.121  0.6942  2.4897 -1.3424
14655TIP3    H265457   4.873   6.446   2.056  0.5574  0.6958  1.5287
14656TIP3   OH265458   3.993   5.319   2.482  0.4366 -0.0634  0.0716
14656TIP3    H165459   3.900   5.324   2.504  0.7921  0.5193  1.6024
14656TIP3    H265460   4.004   5.232   2.444 -0.7929 -0.0059 -0.4731
14657TIP3   OH265461   1.907   6.389   4.652 -0.4119  0.1227 -0.4839
14657TIP3    H165462   1.976   6.454   4.637  2.9445 -2.1818  2.7949
14657TIP3    H265463   1.843   6.434   4.707  1.5503  0.9598  1.2650
14658TIP3   OH265464   1.369   2.120   5.251  0.0290  0.3280  0.4632
14658TIP3    H165465   1.338   2.044   5.203 -1.4296  0.5912  0.9316
14658TIP3    H265466   1.398   2.181   5.183 -1.2903  0.3948 -0.0779
14659TIP3   OH265467   5.175   2.070   2.847 -0.1012  0.7330 -0.3807
14659TIP3    H165468   5.113   2.137   2.877  1.2654  1.9999 -0.3156
14659TIP3    H265469   5.241   2.118   2.797  1.3972 -0.4496  0.3803
14660TIP3   OH265470   1.685   5.251   1.696 -0.1504 -0.5734 -0.2329
14660TIP3    H165471   1.673   5.177   1.756 -0.9574 -0.2584  0.0120
14660TIP3    H265472   1.752   5.222   1.635 -2.2939 -2.5640 -1.7993
14661TIP3   OH265473   1.201   1.684  10.756 -0.2374 -0.0922 -0.4537
14661TIP3    H165474   1.240   1.625  10.821 -2.0663  1.3271  2.1122
14661TIP3    H265475   1.258   1.761  10.757 -0.2365 -0.0908 -0.5980
14662TIP3   OH265476   5.215   5.904   1.956  0.3380  0.2668  0.6345
14662TIP3    H165477   5.293   5.853   1.978 -1.2652 -1.4426  2.7840
14662TIP3    H265478   5.160   5.843   1.906 -1.7944 -0.4402  3.6008
14663TIP3   OH265479   6.487   5.136   5.467 -0.0668 -0.8933 -0.3510
14663TIP3    H165480   6.536   5.171   5.542 -1.8515  0.3902  0.2709
14663TIP3    H265481   6.507   5.196   5.395 -2.6959  1.2491  0.5777
14664TIP3   OH265482   0.888   1.023   4.824  0.4269  0.0053  0.3593
14664TIP3    H165483   0.795   1.004   4.836  0.2108  1.7486  1.8829
14664TIP3    H265484   0.916   0.962   4.756 -1.6150 -1.1611  0.4688
14665TIP3   OH265485   0.605   2.555  14.734 -0.5437 -0.1822  0.3905
14665TIP3    H165486   0.656   2.599  14.802  0.1101 -1.5009  0.7832
14665TIP3    H265487   0.515   2.558  14.766 -0.4541  0.5259  0.5873
14666TIP3   OH265488   6.700   6.677   3.733  0.0022 -0.2693 -0.6007
14666TIP3    H165489   6.796   6.677   3.732  0.0098 -0.9471 -0.7347
14666TIP3    H265490   6.675   6.748   3.673  0.4028  0.8766  0.5447
14667TIP3   OH265491   5.835   0.006  14.720 -0.3762  0.0737  0.4555
14667TIP3    H165492   5.848   0.040  14.808 -0.0335 -0.0455  0.4504
14667TIP3    H265493   5.918  -0.034  14.697 -0.4548  0.1358  0.0614
14668TIP3   OH265494   6.689   4.932   5.599  0.1600  0.3986  0.2793
14668TIP3    H165495   6.698   4.958   5.690 -3.2907  1.4579  0.4888
14668TIP3    H265496   6.599   4.899   5.592 -0.1605  1.5505 -2.9572
14669TIP3   OH265497   6.437   0.282  16.036  0.2217 -0.3670 -0.0683
14669TIP3    H165498   6.527   0.284  16.002  0.7398  1.7366  1.3088
14669TIP3    H265499   6.384   0.312  15.963  0.9669  1.0378 -0.0594
14670TIP3   OH265500   1.473   0.128   3.620 -0.8831  0.1025 -0.3307
14670TIP3    H165501   1.428   0.054   3.660  1.1145 -0.8327  0.2726
14670TIP3    H265502   1.526   0.089   3.551  2.4808  0.4538  1.8588
14671TIP3   OH265503   1.628   4.634  12.483  0.0728  0.3060 -0.4023
14671TIP3    H165504   1.589   4.699  12.424  1.7784  1.1502 -0.6719
14671TIP3    H265505   1.693   4.589  12.429 -0.4534 -1.0303  0.0382
14672TIP3   OH265506   5.111   2.784  11.201 -0.3474  0.1588  0.4052
14672TIP3    H165507   5.026   2.785  11.159 -0.2461  1.0620  0.1891
14672TIP3    H265508   5.170   2.824  11.137  0.2319 -0.4310  0.5613
14673TIP3   OH265509   4.184   4.773   6.155  0.4257  0.0823 -0.3517
14673TIP3    H165510   4.158   4.843   6.214 -0.3379 -0.6888  0.2383
14673TIP3    H265511   4.233   4.818   6.085 -0.5753  1.2731 -0.3166
14674TIP3   OH265512   5.083   4.967   5.764  1.0385 -0.1846  0.0790
14674TIP3    H165513   5.142   4.948   5.837  0.2481  1.2523  1.1349
14674TIP3    H265514   5.090   5.061   5.752 -2.5519  0.4508  1.6749
14675TIP3   OH265515   3.012   0.537  12.498 -0.3275 -0.3697  0.1432
14675TIP3    H165516   3.027   0.445  12.476  0.0492 -0.3255  0.1998
14675TIP3    H265517   3.020   0.582  12.414 -3.2371 -0.6729 -0.3975
14676TIP3   OH265518   3.790   2.974   3.442 -0.0572  0.0638  0.3417
14676TIP3    H165519   3.755   3.024   3.517 -0.1341  0.3571  0.1107
14676TIP3    H265520   3.719   2.976   3.377  1.2293  2.7847 -1.1429
14677TIP3   OH265521   6.102   5.862   0.004  0.0374  0.1468 -0.3524
14677TIP3    H165522   6.174   5.878   0.066 -0.6997  1.2494  0.2444
14677TIP3    H265523   6.082   5.769   0.014  0.7188  0.0493  0.1889
14678TIP3   OH265524   0.501   2.749   1.323 -0.6261  0.1922  0.2307
14678TIP3    H165525   0.554   2.673   1.300 -1.4334 -0.1849 -0.4691
14678TIP3    H265526   0.562   2.823   1.320 -0.3399 -0.0694 -1.6280
14679TIP3   OH265527   3.322   4.973  11.778 -0.0933  0.4920  0.5063
14679TIP3    H165528   3.382   4.901  11.757 -1.5811 -0.2450 -1.5383
14679TIP3    H265529   3.332   5.033  11.704  0.0104  1.6714  1.4519
14680TIP3   OH265530   5.202   1.802  16.931  0.1628 -0.0167 -0.1314
14680TIP3    H165531   5.181   1.723  16.881  1.5692 -0.6150  0.1736
14680TIP3    H265532   5.217   1.771  17.020  2.6667  0.2559 -0.4014
14681TIP3   OH265533   2.855   1.437   0.847 -0.0485  0.1719 -0.6467
14681TIP3    H165534   2.811   1.508   0.801 -0.7572  0.7139  0.8065
14681TIP3    H265535   2.790   1.367   0.852 -0.4389  0.6192  0.6828
14682TIP3   OH265536   0.240   6.087   4.287 -0.3756 -0.0006  0.3277
14682TIP3    H165537   0.330   6.056   4.289 -0.7297 -1.1367 -0.6028
14682TIP3    H265538   0.207   6.073   4.375 -0.5454 -2.4189 -0.0708
14683TIP3   OH265539   2.399   5.910   4.255  0.0423  0.8023  0.4302
14683TIP3    H165540   2.444   5.994   4.268 -1.5483  1.6555  0.5962
14683TIP3    H265541   2.353   5.894   4.337 -1.7354  1.0789 -0.4665
14684TIP3   OH265542   0.716   6.077   1.999  0.2126  0.2399  0.5561
14684TIP3    H165543   0.650   6.088   1.931 -0.3472  1.4272  1.2713
14684TIP3    H265544   0.794   6.120   1.964  0.1898  0.0653  0.2922
14685TIP3   OH265545   4.708   1.918  14.610  0.4811 -0.0016 -0.0005
14685TIP3    H165546   4.785   1.938  14.663  0.6573  0.1335 -0.3097
14685TIP3    H265547   4.659   2.000  14.608  1.2499  0.4608 -1.3495
14686TIP3   OH265548   4.526   1.051  16.989  0.8465  0.2194 -0.1803
14686TIP3    H165549   4.560   1.036  16.901  3.2456  0.2881  0.6614
14686TIP3    H265550   4.599   1.028  17.047 -1.5171 -2.5489  1.9836
14687TIP3   OH265551   3.344   2.196   5.228 -0.1767 -0.3094 -0.2174
14687TIP3    H165552   3.376   2.212   5.317  2.7694 -2.6855 -0.7174
14687TIP3    H265553   3.401   2.248   5.171 -0.1523 -1.0265 -0.8688
14688TIP3   OH265554   3.238   2.835   0.571  0.1208  0.2322  0.7058
14688TIP3    H165555   3.297   2.799   0.504 -0.3249 -0.8542  0.8691
14688TIP3    H265556   3.297   2.875   0.635  0.6694 -0.4035  0.6148
14689TIP3   OH265557   3.173   4.579  12.956 -0.7968 -0.0276  0.1218
14689TIP3    H165558   3.097   4.601  13.010 -1.5578 -1.7740 -0.1963
14689TIP3    H265559   3.185   4.485  12.968  1.2419  0.1777  0.0451
14690TIP3   OH265560   5.110   2.675   1.974  0.5172 -0.1615  0.0311
14690TIP3    H165561   5.123   2.684   1.879  1.5409 -3.0018 -0.1908
14690TIP3    H265562   5.035   2.616   1.983 -1.0719  1.8843  1.1121
14691TIP3   OH265563   1.801   6.258   0.868 -0.4779  0.0961 -0.3591
14691TIP3    H165564   1.801   6.345   0.830 -1.2417  0.0534 -0.4577
14691TIP3    H265565   1.743   6.206   0.812  1.4487 -0.9966 -1.4504
14692TIP3   OH265566   4.329   0.581   1.829  0.0393  0.0532  0.2920
14692TIP3    H165567   4.421   0.557   1.820 -0.2098 -0.6836 -0.3620
14692TIP3    H265568   4.327   0.675   1.810  0.3875 -0.2881 -1.6475
14693TIP3   OH265569   5.407   0.272   1.863  0.2568 -0.0421 -0.7325
14693TIP3    H165570   5.377   0.234   1.780 -0.8379 -1.5411  0.3215
14693TIP3    H265571   5.327   0.288   1.912  0.8718  1.2891 -0.1193
14694TIP3   OH265572   5.741   4.979   1.361 -0.0723 -0.0890 -0.2117
14694TIP3    H165573   5.712   5.070   1.364 -0.5420 -0.2211 -0.5756
14694TIP3    H265574   5.826   4.982   1.317  0.3927  0.2817  0.6850
14695TIP3   OH265575   0.259   3.887  15.908 -0.1845  0.0623 -0.4220
14695TIP3    H165576   0.283   3.826  15.838  2.4726  0.7128 -0.1737
14695TIP3    H265577   0.238   3.968  15.863 -1.0631 -0.2344 -0.5781
14696TIP3   OH265578   0.473   2.232  12.593 -0.2841  0.6096 -0.2501
14696TIP3    H165579   0.560   2.253  12.628  1.1392 -1.0680 -2.4886
14696TIP3    H265580   0.473   2.272  12.506 -1.3558 -0.3068 -0.6858
14697TIP3   OH265581   3.969   2.813  15.820 -0.3603 -0.0455 -0.4777
14697TIP3    H165582   4.051   2.779  15.783 -1.1907 -3.5468  0.5501
14697TIP3    H265583   3.993   2.847  15.906  0.1644  0.0539 -0.6600
14698TIP3   OH265584   5.749   1.212  15.698 -0.3549  0.1106 -0.0524
14698TIP3    H165585   5.716   1.291  15.654 -0.0236  0.4004  0.2119
14698TIP3    H265586   5.688   1.143  15.672 -0.4501  0.3827 -0.5661
14699TIP3   OH265587   0.612   2.495  11.481 -0.7575 -0.3932 -0.2045
14699TIP3    H165588   0.679   2.452  11.427 -1.1468 -2.7319  1.0591
14699TIP3    H265589   0.568   2.423  11.526 -2.9810  1.2149  0.3417
14700TIP3   OH265590   0.361   2.969  11.311 -0.1894  0.2922 -0.1576
14700TIP3    H165591   0.272   2.993  11.338 -1.2537  0.3276 -3.2767
14700TIP3    H265592   0.394   3.048  11.267  1.0633 -0.0223  0.1840
14701TIP3   OH265593   3.292   3.381  15.517 -0.5338  0.6587 -0.4436
14701TIP3    H165594   3.364   3.366  15.456  0.1542 -1.7919  0.8382
14701TIP3    H265595   3.214   3.352  15.470  0.1734 -2.7115  0.2071
14702TIP3   OH265596   1.323   3.384   3.591  0.4703  0.5735  0.2708
14702TIP3    H165597   1.396   3.397   3.532  1.4535  2.9895  1.8733
14702TIP3    H265598   1.362   3.344   3.669 -0.5207 -1.0401 -0.0050
14703TIP3   OH265599   3.396   4.362  16.747  0.1740  0.1218  0.1171
14703TIP3    H165600   3.468   4.356  16.809 -1.0937  0.2693  1.6493
14703TIP3    H265601   3.329   4.412  16.792 -0.7961  0.2576 -1.3931
14704TIP3   OH265602   1.077   4.680   2.138  0.4088 -0.5820  0.2370
14704TIP3    H165603   1.165   4.659   2.107  1.0884  2.1876  0.0626
14704TIP3    H265604   1.091   4.739   2.213 -1.2797  0.1972 -0.0184
14705TIP3   OH265605   6.139   0.338  11.834  0.1299  0.4951 -0.0835
14705TIP3    H165606   6.106   0.266  11.780 -0.2575  0.4016  0.2792
14705TIP3    H265607   6.232   0.343  11.811 -0.5107  2.2288 -2.8431
14706TIP3   OH265608   1.832   6.394   4.034  0.1623  0.2494  0.3988
14706TIP3    H165609   1.768   6.419   4.101  0.2650 -0.8382  0.9289
14706TIP3    H265610   1.917   6.397   4.079  0.4199  0.9972 -0.1110
14707TIP3   OH265611   5.320   4.933   0.828 -0.4520 -0.1107  0.4417
14707TIP3    H165612   5.404   4.949   0.870  0.0254 -0.1228 -0.4662
14707TIP3    H265613   5.256   4.977   0.883  0.2950  0.9382  0.4929
14708TIP3   OH265614   4.627   3.064   5.943 -0.1879 -0.2164  0.1359
14708TIP3    H165615   4.592   3.139   5.991 -0.8345  0.0263 -0.6968
14708TIP3    H265616   4.719   3.060   5.968 -0.2318  0.6528  0.4421
14709TIP3   OH265617   5.348   0.009   0.451  0.1996  0.7380 -0.0107
14709TIP3    H165618   5.378  -0.077   0.482 -0.5871  0.5765  0.3251
14709TIP3    H265619   5.369   0.069   0.523  1.5275  0.9978 -0.5864
14710TIP3   OH265620   3.681   1.325  12.323 -0.1651 -0.0799 -0.8301
14710TIP3    H165621   3.631   1.374  12.388  0.8076 -0.4957  0.2743
14710TIP3    H265622   3.730   1.260  12.375  2.1067  0.8205 -1.7339
14711TIP3   OH265623   2.139   0.908  14.223 -0.2388  0.1771  0.5546
14711TIP3    H165624   2.228   0.902  14.188 -0.6154  1.3332 -0.6715
14711TIP3    H265625   2.093   0.834  14.183 -1.0406  2.2607 -2.7011
14712TIP3   OH265626   2.666   4.483  13.985 -0.1942 -0.1804 -0.6371
14712TIP3    H165627   2.593   4.516  13.933 -0.1574  4.1342  1.5497
14712TIP3    H265628   2.742   4.490  13.927 -0.8489 -0.2911 -1.5237
14713TIP3   OH265629   3.945   0.557   3.532  0.1721  0.7622 -0.9370
14713TIP3    H165630   3.892   0.549   3.453 -0.2462  0.3547 -0.6183
14713TIP3    H265631   3.903   0.627   3.582  0.1184  0.6495 -0.8247
14714TIP3   OH265632   5.665   4.533   3.923 -0.4877 -0.3341 -0.0766
14714TIP3    H165633   5.749   4.548   3.965 -0.6625  0.6976 -0.0886
14714TIP3    H265634   5.635   4.619   3.896 -1.2013 -0.7766 -0.7512
14715TIP3   OH265635   5.171   3.477  13.624  0.3175 -0.0083 -0.5240
14715TIP3    H165636   5.214   3.544  13.570  0.5955  0.3017  0.0794
14715TIP3    H265637   5.180   3.508  13.714  0.1192 -0.6739 -0.2666
14716TIP3   OH265638   5.422   0.749  10.592 -0.1730 -0.0412 -0.3267
14716TIP3    H165639   5.334   0.725  10.565  0.0710 -1.1270 -0.1849
14716TIP3    H265640   5.454   0.805  10.522 -1.3994  1.3773  0.1930
14717TIP3   OH265641   4.516   4.547   1.125 -0.0292  0.2229 -0.3000
14717TIP3    H165642   4.465   4.568   1.203 -0.9227  1.0501 -1.0953
14717TIP3    H265643   4.585   4.488   1.157 -0.5439  0.3297  1.0561
14718TIP3   OH265644   2.329   6.126  16.735 -0.3262  0.3234  0.0317
14718TIP3    H165645   2.375   6.188  16.793 -1.3568  2.6467 -1.4871
14718TIP3    H265646   2.328   6.170  16.650 -0.3471 -2.2404 -1.3832
14719TIP3   OH265647   4.046   6.774   3.042  0.3357  0.8259 -0.5450
14719TIP3    H165648   3.956   6.796   3.066 -0.3116 -0.8544 -1.2820
14719TIP3    H265649   4.092   6.766   3.126  0.0934  2.6688 -0.1831
14720TIP3   OH265650   2.509   1.381   3.051  0.3337 -0.7090  0.1060
14720TIP3    H165651   2.502   1.380   2.956  0.9797 -0.3729  0.0466
14720TIP3    H265652   2.480   1.469   3.076 -1.3038 -1.2791  0.3666
14721TIP3   OH265653   6.685   2.608  11.191 -0.3901  0.2404  1.0817
14721TIP3    H165654   6.627   2.596  11.116 -0.6172 -0.5563  1.3706
14721TIP3    H265655   6.659   2.692  11.228 -0.9300  0.1872  0.8326
14722TIP3   OH265656   2.870   2.627  13.418  0.2701 -0.2417 -0.3981
14722TIP3    H165657   2.857   2.538  13.451 -0.6182  0.2718  0.6774
14722TIP3    H265658   2.819   2.683  13.476 -1.0161  0.7692 -2.3796
14723TIP3   OH265659   0.276   4.180  16.139  0.2988 -0.7244 -0.1806
14723TIP3    H165660   0.203   4.228  16.100  0.3681 -1.3693 -1.1466
14723TIP3    H265661   0.248   4.161  16.228  0.4953  1.5697  0.4416
14724TIP3   OH265662   6.216   6.323   1.766 -0.1972  0.4953  0.1060
14724TIP3    H165663   6.255   6.406   1.740  0.0517  1.1869  2.4481
14724TIP3    H265664   6.197   6.333   1.860 -2.3275 -1.2625 -0.0387
14725TIP3   OH265665   4.710   1.741  17.317 -0.4214  0.5553  0.2502
14725TIP3    H165666   4.647   1.773  17.382 -0.6318  0.0301  0.3070
14725TIP3    H265667   4.764   1.678  17.364  1.0004  1.9294  0.5494
14726TIP3   OH265668   5.306   6.136  16.177 -0.1144 -0.4168  0.0635
14726TIP3    H165669   5.387   6.168  16.217 -0.4643 -1.0173  1.2910
14726TIP3    H265670   5.335   6.098  16.094  0.7023  0.3605 -0.0308
14727TIP3   OH265671   0.492   2.223  14.976 -0.0264  0.0983  0.3230
14727TIP3    H165672   0.527   2.138  14.952 -2.9531 -1.3759  0.8199
14727TIP3    H265673   0.492   2.274  14.895 -3.0106 -2.2659 -1.3875
14728TIP3   OH265674   5.393   1.933   1.614 -0.1825  0.5114 -0.5776
14728TIP3    H165675   5.341   1.865   1.657  1.6257 -0.3442  0.3867
14728TIP3    H265676   5.481   1.922   1.650  0.7474  1.7184 -2.3306
14729TIP3   OH265677   1.418   3.729   2.450  0.2666 -0.0134 -0.3282
14729TIP3    H165678   1.439   3.793   2.382  1.8328  0.3872  0.4824
14729TIP3    H265679   1.398   3.648   2.402  2.3241 -0.0167 -1.2856
14730TIP3   OH265680   0.062   0.955   3.863 -0.1637 -0.0232  0.6786
14730TIP3    H165681   0.107   0.873   3.884 -0.9529 -0.8184 -0.5666
14730TIP3    H265682   0.124   1.004   3.810  0.0693 -0.1046  0.8735
14731TIP3   OH265683   4.899   4.257   4.318  0.0464  0.1194 -0.3256
14731TIP3    H165684   4.834   4.311   4.273 -1.4357 -1.7399 -0.5128
14731TIP3    H265685   4.892   4.171   4.276  2.9917 -0.0402 -0.6910
14732TIP3   OH265686   2.004   6.265  13.415 -0.2427 -0.1903 -0.1043
14732TIP3    H165687   2.086   6.217  13.408  0.2419  0.5771  0.1027
14732TIP3    H265688   1.952   6.238  13.339  0.0838 -0.9010 -0.0728
14733TIP3   OH265689   3.554   1.508   5.201 -0.1890 -0.0138 -0.5326
14733TIP3    H165690   3.484   1.449   5.230 -1.2406  1.9449  1.1647
14733TIP3    H265691   3.512   1.563   5.134 -0.3378  1.1839  0.5079
14734TIP3   OH265692   3.390   3.855  14.261  0.3553  0.0437 -0.5396
14734TIP3    H165693   3.339   3.787  14.304  1.5262 -0.1900  0.5585
14734TIP3    H265694   3.426   3.907  14.333  0.2647  1.2484 -1.3329
14735TIP3   OH265695   5.018   4.540  16.356 -0.4580 -0.4836 -0.0678
14735TIP3    H165696   5.098   4.567  16.401 -0.5846  0.3455 -0.3200
14735TIP3    H265697   5.038   4.548  16.263 -0.7382 -0.5714 -0.1384
14736TIP3   OH265698   3.511   2.406   2.090  0.1128 -0.3053  0.4045
14736TIP3    H165699   3.575   2.477   2.085  0.6600 -0.5767  2.4359
14736TIP3    H265700   3.491   2.399   2.183 -2.2329 -0.8322 -0.0673
14737TIP3   OH265701   6.607   3.747  16.300 -0.8786 -0.3322  0.2386
14737TIP3    H165702   6.556   3.800  16.239 -0.8402  1.3825  1.6344
14737TIP3    H265703   6.601   3.658  16.265 -1.3992  0.4829 -1.8671
14738TIP3   OH265704   4.278   2.258   3.570  0.3499 -0.0161  0.2582
14738TIP3    H165705   4.266   2.310   3.649  1.1683  0.7253 -0.0858
14738TIP3    H265706   4.199   2.273   3.519 -0.7920 -1.5550  1.4955
14739TIP3   OH265707   0.675   6.315  13.193  0.2553  0.6563 -0.0071
14739TIP3    H165708   0.758   6.281  13.162 -0.0718  0.4332 -0.6553
14739TIP3    H265709   0.642   6.368  13.121  0.0098  1.0510  0.3864
14740TIP3   OH265710   2.008   2.635  15.057 -0.0281  0.0316 -0.1708
14740TIP3    H165711   1.940   2.673  15.113  0.5062 -1.0538  1.2729
14740TIP3    H265712   1.985   2.542  15.052  1.0447 -0.2420 -0.1383
14741TIP3   OH265713   3.001   5.228  12.838  0.4979 -0.2983  0.0368
14741TIP3    H165714   3.046   5.192  12.761 -0.2460  0.2355 -0.6669
14741TIP3    H265715   2.975   5.151  12.888  0.3201 -0.6929 -0.6447
14742TIP3   OH265716   4.712   0.412  13.657 -0.1625  0.0349  0.4809
14742TIP3    H165717   4.759   0.369  13.728 -0.2212 -1.8049 -0.5517
14742TIP3    H265718   4.692   0.342  13.595 -0.0772  1.5921 -1.3872
14743TIP3   OH265719   0.194   3.076  12.277  0.8204 -0.2287  0.3461
14743TIP3    H165720   0.267   3.065  12.216  0.2379  0.3364 -0.4622
14743TIP3    H265721   0.206   3.165  12.312 -0.1152  0.3108 -0.6576
14744TIP3   OH265722   3.053   4.651   3.339 -0.6429 -0.7133 -0.3313
14744TIP3    H165723   3.124   4.587   3.338 -0.7394 -0.8264  0.0147
14744TIP3    H265724   3.053   4.688   3.251  0.1104 -0.4169 -0.2135
14745TIP3   OH265725   2.459   6.636  13.435  0.0477 -0.2793  0.0467
14745TIP3    H165726   2.544   6.679  13.425  0.0378 -0.1715  0.4174
14745TIP3    H265727   2.395   6.708  13.428 -0.0249 -0.3945 -0.4814
14746TIP3   OH265728   4.664   3.583   4.869 -0.0856 -0.0056  0.4375
14746TIP3    H165729   4.589   3.607   4.924  0.7943  0.2766  1.5692
14746TIP3    H265730   4.738   3.583   4.930  1.3652  2.5591 -1.1409
14747TIP3   OH265731   3.951   5.466   3.237  0.1659  0.4565 -0.3454
14747TIP3    H165732   3.858   5.475   3.257  0.1153  0.4539 -0.5808
14747TIP3    H265733   3.964   5.516   3.157 -0.2407 -1.9387 -2.0256
14748TIP3   OH265734   2.834   2.950   4.257  0.2168  0.3021  0.4316
14748TIP3    H165735   2.813   2.948   4.163 -0.7010  1.4986  0.5859
14748TIP3    H265736   2.869   2.863   4.275  0.7487  0.1621 -1.0931
14749TIP3   OH265737   1.377   2.398  11.558 -0.3926  0.6149 -0.3048
14749TIP3    H165738   1.391   2.303  11.567 -0.8765  0.6123  0.4878
14749TIP3    H265739   1.284   2.410  11.576  0.1651  1.5486  2.3914
14750TIP3   OH265740   0.338   4.834   3.103 -0.0374  0.2167  0.1588
14750TIP3    H165741   0.375   4.747   3.122  0.0166  0.2610  0.2591
14750TIP3    H265742   0.249   4.816   3.075  0.2749  0.0548 -0.7585
14751TIP3   OH265743   4.896   4.793  13.862 -0.3620 -0.0321 -0.1736
14751TIP3    H165744   4.954   4.717  13.871 -1.3943 -0.6184  2.5423
14751TIP3    H265745   4.955   4.867  13.846  1.1044 -0.7291  1.6501
14752TIP3   OH265746   3.370   0.356  13.820 -0.0085  0.5531 -0.3142
14752TIP3    H165747   3.350   0.339  13.912 -1.7719 -1.2291 -0.9631
14752TIP3    H265748   3.310   0.427  13.795  0.8318  1.4034 -0.0084
14753TIP3   OH265749   5.991   2.645   1.621 -0.0940 -0.0656 -0.5971
14753TIP3    H165750   6.058   2.671   1.685 -0.4897  1.6618 -0.8294
14753TIP3    H265751   6.037   2.588   1.560  0.4878 -1.1037  0.7530
14754TIP3   OH265752   0.527   4.523  12.328  0.2368 -0.0998 -0.5773
14754TIP3    H165753   0.618   4.533  12.301  0.8224 -1.6885  0.6555
14754TIP3    H265754   0.489   4.463  12.263 -0.4411  1.8431 -2.0569
14755TIP3   OH265755   6.161   6.417  14.067 -0.2656  0.2293  0.5677
14755TIP3    H165756   6.243   6.461  14.044  0.4176 -1.1322  0.2951
14755TIP3    H265757   6.100   6.441  13.997 -0.0840  1.1582  0.7093
14756TIP3   OH265758   0.649   4.748  11.403  0.3664 -0.1483 -0.3182
14756TIP3    H165759   0.714   4.798  11.355  0.9076  0.0102  0.5593
14756TIP3    H265760   0.697   4.675  11.441 -0.4646 -1.5325 -1.8147
14757TIP3   OH265761   1.783   0.040  10.504  0.3152  0.7106 -0.1712
14757TIP3    H165762   1.852   0.019  10.567  0.0029  3.5939  1.2709
14757TIP3    H265763   1.801   0.130  10.477 -1.5890  0.7444 -1.5613
14758TIP3   OH265764   4.026   2.347   0.307  0.1885  1.1596 -0.5276
14758TIP3    H165765   4.053   2.338   0.215 -2.4108  0.4920 -1.3299
14758TIP3    H265766   3.949   2.404   0.303  0.3765  1.6035  1.3540
14759TIP3   OH265767   3.917   1.570  14.764 -0.0287  0.5416 -0.1654
14759TIP3    H165768   3.918   1.656  14.806 -2.0791  0.7879 -0.4847
14759TIP3    H265769   3.982   1.575  14.694  2.2997  0.6651  1.8747
14760TIP3   OH265770   3.769   6.548  11.323 -0.2167 -0.1659 -0.2507
14760TIP3    H165771   3.677   6.558  11.347 -0.7439  0.8658 -2.4431
14760TIP3    H265772   3.767   6.517  11.233  1.5529  1.0523 -0.7752
14761TIP3   OH265773   5.606   2.642  12.450  0.1644 -0.1880 -0.0340
14761TIP3    H165774   5.615   2.723  12.401  1.1931  0.8782  1.7963
14761TIP3    H265775   5.526   2.654  12.502  0.5475 -0.1519  0.5595
14762TIP3   OH265776   5.779   1.548   5.388 -0.4211 -0.0069  0.2403
14762TIP3    H165777   5.857   1.564   5.440 -1.0980 -0.0133  1.2862
14762TIP3    H265778   5.721   1.498   5.445 -2.3504  2.4145  0.5835
14763TIP3   OH265779   2.505   5.358  11.380 -0.2037  0.0860 -0.5196
14763TIP3    H165780   2.517   5.280  11.326  1.1988  0.2484 -0.4600
14763TIP3    H265781   2.451   5.416  11.327  0.6327 -0.0158 -1.4970
14764TIP3   OH265782   4.792   5.680  13.258 -0.1774 -0.0346  0.0483
14764TIP3    H165783   4.724   5.739  13.224 -0.9320 -0.4275  0.8187
14764TIP3    H265784   4.750   5.594  13.259 -0.0889 -0.0911  1.6368
14765TIP3   OH265785   6.761   5.513   5.353  0.1910  0.2840  0.3502
14765TIP3    H165786   6.821   5.581   5.323  0.0814  0.5094  0.6395
14765TIP3    H265787   6.808   5.469   5.424  0.4891 -0.3093 -0.1966
14766TIP3   OH265788   2.489   1.494  11.663 -0.0525  0.6388 -0.7415
14766TIP3    H165789   2.544   1.417  11.680  0.1626  1.0344  0.4687
14766TIP3    H265790   2.429   1.466  11.594 -0.9664 -1.1113  0.6930
14767TIP3   OH265791   3.841   0.525  15.058  0.0764  0.1001  0.0707
14767TIP3    H165792   3.897   0.557  15.129 -1.5813  1.1143  0.9842
14767TIP3    H265793   3.752   0.543  15.088 -0.8331 -2.4201 -0.8448
14768TIP3   OH265794   2.675   5.946   2.904  0.3361 -0.0707 -0.5906
14768TIP3    H165795   2.754   5.900   2.877  0.7411  0.1076  0.2458
14768TIP3    H265796   2.622   5.878   2.946  1.0132  0.2199  0.8088
14769TIP3   OH265797   2.401   4.339   4.218  0.3111  0.1806  0.1739
14769TIP3    H165798   2.470   4.314   4.156  1.0397 -1.1674  1.4639
14769TIP3    H265799   2.447   4.382   4.290 -0.1597 -0.7541  1.0665
14770TIP3   OH265800   5.561   3.608   0.356 -0.6260  0.5352 -0.3779
14770TIP3    H165801   5.473   3.578   0.331 -0.4568 -1.9809  1.6737
14770TIP3    H265802   5.598   3.536   0.405  2.6232  1.5673 -1.0669
14771TIP3   OH265803   3.826   6.504   0.245  0.5635  0.5592 -0.3911
14771TIP3    H165804   3.731   6.495   0.247  0.6446 -0.4755 -0.7150
14771TIP3    H265805   3.846   6.558   0.322 -0.2206  0.1755  0.0939
14772TIP3   OH265806   6.558   1.814   2.783 -0.5148  0.4801  0.5160
14772TIP3    H165807   6.490   1.824   2.716  0.3334  1.2325 -0.2601
14772TIP3    H265808   6.627   1.764   2.740 -0.7089 -0.5860  1.4125
14773TIP3   OH265809   0.029   1.663  15.526 -0.2597  0.1374 -0.5323
14773TIP3    H165810   0.046   1.578  15.567  1.5790  1.7955  2.4364
14773TIP3    H265811   0.114   1.706  15.522 -1.1811  1.9854 -1.7597
14774TIP3   OH265812   0.477   3.624  13.583 -0.7413 -0.4635  0.4426
14774TIP3    H165813   0.455   3.548  13.528 -1.2160  0.9672 -1.4581
14774TIP3    H265814   0.558   3.658  13.545 -2.2264  1.8547 -0.9229
14775TIP3   OH265815   6.110   2.690  16.060  0.6843  0.3916 -0.0801
14775TIP3    H165816   6.156   2.755  16.114  0.7581 -0.5230  0.9836
14775TIP3    H265817   6.018   2.717  16.064  0.7264  0.4923  0.2850
14776TIP3   OH265818   5.739   3.172  12.416 -0.0308 -0.0464  0.2597
14776TIP3    H165819   5.663   3.223  12.389  0.7493  0.5258 -0.9951
14776TIP3    H265820   5.808   3.200  12.356  1.5484  0.4421  2.2029
14777TIP3   OH265821   0.396   6.415   0.498  0.3763  0.4602  0.0369
14777TIP3    H165822   0.385   6.498   0.452  2.2031  0.3216 -0.7202
14777TIP3    H265823   0.424   6.353   0.431 -0.4043 -0.6399  0.6954
14778TIP3   OH265824   2.291   3.097  16.704 -0.1899  0.7892 -0.6287
14778TIP3    H165825   2.303   3.150  16.625  0.3685  0.1852 -0.9574
14778TIP3    H265826   2.331   3.148  16.774 -0.7203  1.3437 -0.7264
14779TIP3   OH265827   4.511   5.441  11.193 -0.0776  0.2245 -0.2063
14779TIP3    H165828   4.568   5.467  11.265  0.9885 -2.3442 -0.0253
14779TIP3    H265829   4.571   5.412  11.124 -1.0301 -3.3879  0.3111
14780TIP3   OH265830   0.858   0.999   0.991  0.7212 -0.2325 -0.2648
14780TIP3    H165831   0.948   0.989   1.022  0.0743 -0.5344  1.6202
14780TIP3    H265832   0.842   1.094   0.993  0.6956 -0.2461  0.3330
14781TIP3   OH265833   5.217   4.718   0.281  0.0103  0.0441 -0.1363
14781TIP3    H165834   5.175   4.634   0.299 -0.3022  0.4352  1.0501
14781TIP3    H265835   5.251   4.709   0.192  0.0347 -1.3570 -0.0136
14782TIP3   OH265836   1.538   0.123   1.489  0.6131 -0.4260 -0.7064
14782TIP3    H165837   1.620   0.141   1.536  0.6743  0.9720 -1.2936
14782TIP3    H265838   1.512   0.036   1.519  1.6877 -0.4009  0.4000
14783TIP3   OH265839   0.774   6.583  12.661  0.3055 -0.1953 -0.2963
14783TIP3    H165840   0.840   6.651  12.678 -0.5736 -0.0111  3.0137
14783TIP3    H265841   0.719   6.620  12.592  1.3242  1.3818 -0.3110
14784TIP3   OH265842   1.268   3.352   3.075  0.0215 -0.4407 -0.5872
14784TIP3    H165843   1.203   3.415   3.107  0.1653 -0.0715 -1.0073
14784TIP3    H265844   1.349   3.403   3.067  1.1303 -1.4575  2.4926
14785TIP3   OH265845   3.506   3.323  16.842 -0.2626 -0.8099 -0.3812
14785TIP3    H165846   3.569   3.256  16.815 -1.0316 -1.1252 -1.4576
14785TIP3    H265847   3.521   3.395  16.781  0.3911 -0.0794  0.6157
14786TIP3   OH265848   5.597   5.653  11.751  0.2242 -0.0518  0.1091
14786TIP3    H165849   5.608   5.582  11.688  0.4968 -1.5042  1.7347
14786TIP3    H265850   5.600   5.732  11.697  2.2400 -1.1175 -1.5329
14787TIP3   OH265851   0.690   4.262   4.087 -0.1314  0.2664 -0.2735
14787TIP3    H165852   0.649   4.345   4.113 -0.4012  0.3403 -0.9127
14787TIP3    H265853   0.714   4.274   3.995  0.6840 -0.0373 -0.1094
14788TIP3   OH265854   5.962   0.264  13.354  0.0693  0.2620  0.2384
14788TIP3    H165855   5.931   0.306  13.274 -0.2235  1.3499  0.8859
14788TIP3    H265856   5.918   0.179  13.357  1.4378 -0.5693 -1.6198
14789TIP3   OH265857   3.096   2.719  15.180 -0.2932  0.3039 -0.4739
14789TIP3    H165858   3.151   2.739  15.104  1.0560  0.3818  0.4883
14789TIP3    H265859   3.104   2.625  15.191  1.3680  0.5693  0.9021
14790TIP3   OH265860   5.140   0.198  12.316 -0.3455  0.6555  0.1974
14790TIP3    H165861   5.186   0.244  12.386  0.0475 -0.5351  0.7527
14790TIP3    H265862   5.060   0.165  12.358 -0.4523  0.5352 -0.0994
14791TIP3   OH265863   1.331   3.740  15.648 -0.0320 -0.0755  0.1794
14791TIP3    H165864   1.398   3.730  15.580  0.1749 -0.4844  0.4390
14791TIP3    H265865   1.250   3.711  15.606  0.1269 -0.5029  0.1600
14792TIP3   OH265866   5.025   5.031   2.365 -0.0370 -0.3459 -0.0677
14792TIP3    H165867   5.104   4.981   2.344  0.5627  0.1843  0.8290
14792TIP3    H265868   5.042   5.119   2.330  0.8235  0.4480  2.1219
14793TIP3   OH265869   4.201   1.134  13.263 -0.1538  0.4640 -0.0494
14793TIP3    H165870   4.138   1.062  13.270  0.7455 -0.2537  0.9095
14793TIP3    H265871   4.267   1.101  13.201 -0.1600  0.7935 -0.2328
14794TIP3   OH265872   4.908   0.424   4.837 -0.1696 -0.1448 -0.0420
14794TIP3    H165873   4.838   0.458   4.781 -1.4981 -0.6322  1.2478
14794TIP3    H265874   4.930   0.497   4.895  1.1920  0.3537 -1.1210
14795TIP3   OH265875   1.103   4.322  12.581 -0.2020  0.3528  0.0431
14795TIP3    H165876   1.184   4.273  12.593  0.2216  0.7261 -1.1488
14795TIP3    H265877   1.114   4.401  12.634  0.2767  0.4677 -0.2245
14796TIP3   OH265878   1.721   3.859   2.045  0.2888  0.0092  0.7189
14796TIP3    H165879   1.678   3.894   2.122  2.0529  1.3803  1.1610
14796TIP3    H265880   1.752   3.772   2.071 -1.9613 -0.9424  0.4254
14797TIP3   OH265881   1.132   3.026   5.515  0.1540 -0.2852  0.3766
14797TIP3    H165882   1.124   3.054   5.607  0.6541  0.5379  0.1780
14797TIP3    H265883   1.193   2.952   5.517 -0.6348 -0.9485  0.8215
14798TIP3   OH265884   2.236   4.326  12.090  0.2404  0.4241 -0.4592
14798TIP3    H165885   2.256   4.389  12.159 -0.1147  0.0422  0.0013
14798TIP3    H265886   2.179   4.261  12.133 -0.5378  0.5494 -1.2861
14799TIP3   OH265887   0.663   1.267   5.587  0.1958  0.2893 -0.0415
14799TIP3    H165888   0.618   1.184   5.603  0.4506 -0.0320 -0.9235
14799TIP3    H265889   0.708   1.287   5.669 -0.6529  0.0543  0.4867
14800TIP3   OH265890   3.933   3.282  14.866  0.2813 -0.2373 -0.0337
14800TIP3    H165891   3.896   3.283  14.955  0.4393 -0.4547  0.0345
14800TIP3    H265892   4.022   3.250  14.877  0.3411 -0.1494 -0.2580
14801TIP3   OH265893   4.390   4.753   3.041  0.0212  0.2783  0.6641
14801TIP3    H165894   4.472   4.714   3.012  0.2795  1.2460  0.0739
14801TIP3    H265895   4.331   4.678   3.052  0.4850 -0.2879 -0.5189
14802TIP3   OH265896   3.611   0.344   1.894  0.3887  0.4124 -0.2744
14802TIP3    H165897   3.649   0.376   1.812  1.0777  0.4703  0.0612
14802TIP3    H265898   3.605   0.421   1.950 -0.9236  0.5510 -0.5684
14803TIP3   OH265899   1.368   4.378  14.119 -0.4105  0.0557  0.2328
14803TIP3    H165900   1.305   4.434  14.164 -0.3462 -0.8160  1.4521
14803TIP3    H265901   1.447   4.383  14.172 -0.6258 -1.7239  0.7955
14804TIP3   OH265902   4.492   6.822  16.830  0.3364  0.0833 -0.2693
14804TIP3    H165903   4.522   6.845  16.918 -1.3070 -0.0620  0.3670
14804TIP3    H265904   4.396   6.817  16.838  0.2668 -1.6282 -1.6580
14805TIP3   OH265905   4.666   4.882   3.143  0.2470  0.1577 -0.2409
14805TIP3    H165906   4.682   4.889   3.049  0.4596 -0.5930 -0.2658
14805TIP3    H265907   4.752   4.861   3.180  0.2693  0.9701  0.1879
14806TIP3   OH265908   5.010   5.578   0.482 -0.1567 -0.0859  0.0001
14806TIP3    H165909   4.994   5.551   0.392 -1.3141 -0.8227  0.4072
14806TIP3    H265910   5.104   5.598   0.484  0.6479 -3.2458 -0.6025
14807TIP3   OH265911   3.184   4.034   3.927  0.3225 -0.2148  0.3064
14807TIP3    H165912   3.132   4.102   3.884 -1.1630  0.0368  2.3436
14807TIP3    H265913   3.145   3.952   3.900  1.8750 -0.3306 -1.8475
14808TIP3   OH265914   4.508   1.320   1.760  0.5833  0.3353  0.3296
14808TIP3    H165915   4.492   1.358   1.674  1.5449  0.6090  0.2576
14808TIP3    H265916   4.589   1.270   1.749 -0.4350 -1.4510  0.5076
14809TIP3   OH265917   4.080   2.380   3.375 -0.2565 -0.8464 -0.4046
14809TIP3    H165918   4.120   2.315   3.317 -0.7586 -1.0754 -0.4918
14809TIP3    H265919   3.988   2.382   3.350 -0.1036  0.4920 -0.9772
14810TIP3   OH265920   5.790   4.483  12.969 -0.3140  0.2034 -0.3205
14810TIP3    H165921   5.869   4.431  12.952 -0.8816 -0.5239 -0.7919
14810TIP3    H265922   5.815   4.542  13.040  0.2821 -0.8943  0.4185
14811TIP3   OH265923   2.983   1.927  13.803  0.0271  0.3100  0.4330
14811TIP3    H165924   3.067   1.886  13.821 -1.0626 -3.0698 -1.3841
14811TIP3    H265925   3.004   2.000  13.744  1.7501  0.1869  0.8450
14812TIP3   OH265926   3.837   2.031  14.838 -0.2397 -0.5796  0.4217
14812TIP3    H165927   3.881   1.969  14.897  1.4561 -0.3544 -0.5713
14812TIP3    H265928   3.870   2.117  14.865 -0.0934 -0.4017 -0.3270
14813TIP3   OH265929   4.241   1.857  13.254  0.4751  0.8338  0.5945
14813TIP3    H165930   4.219   1.936  13.304  3.3905  1.0330  1.7807
14813TIP3    H265931   4.272   1.795  13.321 -1.7328 -1.4024 -0.3010
14814TIP3   OH265932   0.549   3.283  13.718  0.1818 -0.3357 -0.1386
14814TIP3    H165933   0.489   3.350  13.750  0.1661 -1.0024  1.3269
14814TIP3    H265934   0.633   3.303  13.760  0.6264 -0.2427 -1.0455
14815TIP3   OH265935   3.874   3.192  13.802  0.3979 -0.2045  0.1635
14815TIP3    H165936   3.811   3.146  13.747 -0.1868  0.5827  0.1461
14815TIP3    H265937   3.956   3.143  13.793 -0.2834 -1.4032  0.4045
14816TIP3   OH265938   2.903   4.462  15.499  0.3067  0.4708  0.0077
14816TIP3    H165939   2.829   4.408  15.471  0.2156  0.6944 -0.1855
14816TIP3    H265940   2.973   4.400  15.517  0.7620  0.3783 -1.8784
14817TIP3   OH265941   2.751   0.889   6.572 -0.2499 -0.2009 -0.3631
14817TIP3    H165942   2.702   0.960   6.614  0.0136 -1.1244  1.5894
14817TIP3    H265943   2.683   0.834   6.532 -0.5487  0.3395 -0.6186
14818TIP3   OH265944   2.634   2.844   2.697  0.7167  0.6228 -0.2658
14818TIP3    H165945   2.543   2.821   2.681  1.4022 -1.0557 -2.1934
14818TIP3    H265946   2.647   2.927   2.651  0.5930 -0.0366 -1.5032
14819TIP3   OH265947   0.216   2.385   0.337  0.2429 -0.5023 -0.3497
14819TIP3    H165948   0.216   2.429   0.252 -1.8998  0.0839 -0.1033
14819TIP3    H265949   0.123   2.370   0.357  0.6792 -0.6814  1.8530
14820TIP3   OH265950   0.645   2.439  16.049 -0.1515 -0.3517 -0.0314
14820TIP3    H165951   0.736   2.442  16.078  0.9358 -1.4616 -2.8864
14820TIP3    H265952   0.629   2.524  16.010 -0.0221 -0.4661 -0.3363
14821TIP3   OH265953   3.559   1.262  15.782  0.3234  0.2471  0.0424
14821TIP3    H165954   3.596   1.314  15.853  0.6521  0.4535 -0.2749
14821TIP3    H265955   3.551   1.323  15.709 -1.0851  0.3155  0.2352
14822TIP3   OH265956   1.833   6.367  11.474  0.1363 -0.4831  0.3018
14822TIP3    H165957   1.889   6.404  11.405  0.8543 -3.7427 -1.0253
14822TIP3    H265958   1.759   6.328  11.427 -0.3787 -1.1018  1.5662
14823TIP3   OH265959   1.452   1.812  10.543  0.4275 -0.2717  0.0777
14823TIP3    H165960   1.412   1.761  10.474 -0.3120 -0.4378  0.6140
14823TIP3    H265961   1.541   1.779  10.550 -0.0433 -1.4996  0.4256
14824TIP3   OH265962   2.999   4.181  13.064  0.6261  0.0688  0.3643
14824TIP3    H165963   2.963   4.194  13.152 -0.2132  0.7745 -0.0688
14824TIP3    H265964   2.988   4.088  13.047  3.2947 -0.6782  2.0507
14825TIP3   OH265965   5.763   5.649  11.534 -0.3736  0.0200 -0.0150
14825TIP3    H165966   5.716   5.732  11.548 -0.6734 -0.3990  1.7166
14825TIP3    H265967   5.854   5.675  11.520 -0.5014  0.6649  0.3070
14826TIP3   OH265968   6.071   2.185  12.991  0.0127 -0.3769 -0.1374
14826TIP3    H165969   6.012   2.176  13.066  1.4319  0.0405  1.0752
14826TIP3    H265970   6.119   2.102  12.989  0.8272  0.0732  0.1974
14827TIP3   OH265971   3.642   2.869   2.914  0.5117 -0.3309 -0.2192
14827TIP3    H165972   3.589   2.871   2.834 -0.7668  1.3085  0.6137
14827TIP3    H265973   3.723   2.824   2.888 -0.5800 -1.4237 -1.9636
14828TIP3   OH265974   6.492   1.420  17.112  0.3641 -0.4591 -0.2726
14828TIP3    H165975   6.408   1.466  17.115  1.4976  1.7729 -0.8714
14828TIP3    H265976   6.489   1.368  17.032 -0.6551 -0.9251  0.0442
14829TIP3   OH265977   3.559   1.667   3.674  0.2120 -0.2971 -0.2253
14829TIP3    H165978   3.623   1.635   3.610 -1.0028 -1.8541 -0.7142
14829TIP3    H265979   3.580   1.620   3.754 -0.2284 -0.7377 -0.3602
14830TIP3   OH265980   5.963   5.015  13.390  0.2526 -0.1405  0.6590
14830TIP3    H165981   6.034   5.057  13.340  1.1167 -1.7748  0.4365
14830TIP3    H265982   5.938   5.081  13.455  0.7643  1.1324 -0.3813
14831TIP3   OH265983   1.020   0.298   3.255 -0.3332  0.6884  0.1570
14831TIP3    H165984   0.996   0.381   3.214  0.8951  1.4551  0.9043
14831TIP3    H265985   0.977   0.300   3.340 -1.5940 -0.1803 -0.4433
14832TIP3   OH265986   5.390   4.505  12.243  0.3136 -0.0462  0.1994
14832TIP3    H165987   5.477   4.543  12.256  0.0847  0.3617  0.5924
14832TIP3    H265988   5.390   4.475  12.152  0.3430  1.3670 -0.2944
14833TIP3   OH265989   4.754   5.109   0.999 -0.3312  0.7811 -0.2213
14833TIP3    H165990   4.840   5.068   1.010  0.6594  2.7377 -0.1915
14833TIP3    H265991   4.735   5.100   0.905  0.0248  0.5848 -0.2768
14834TIP3   OH265992   2.422   2.817   4.851 -0.3503 -0.5102 -0.2118
14834TIP3    H165993   2.389   2.836   4.938  0.3750 -0.2578  0.0188
14834TIP3    H265994   2.430   2.903   4.810  1.3338 -0.4143  0.2351
14835TIP3   OH265995   0.874   4.661   2.987 -0.3096 -1.1970 -0.8314
14835TIP3    H165996   0.843   4.643   3.076 -1.9186 -3.0919 -1.7227
14835TIP3    H265997   0.950   4.604   2.976  0.4960 -0.2468 -0.3828
14836TIP3   OH265998   2.514   2.778  15.970  0.0462 -0.2895 -1.1159
14836TIP3    H165999   2.594   2.815  15.933 -0.0472 -0.2659 -1.2962
14836TIP3    H266000   2.474   2.729  15.897  0.3039 -0.9682 -0.8123
14837TIP3   OH266001   3.827   3.084  12.861 -0.0706 -0.1455 -0.6699
14837TIP3    H166002   3.749   3.083  12.806  1.4820  0.3298 -3.0472
14837TIP3    H266003   3.899   3.065  12.801  1.9553  2.0988  0.8576
14838TIP3   OH266004   3.139   1.034   1.026 -0.1197  0.4786 -0.2070
14838TIP3    H166005   3.083   1.083   0.965  1.6812  3.5699  0.4233
14838TIP3    H266006   3.221   1.023   0.980  0.0742 -0.4651  0.3399
14839TIP3   OH266007   5.090   1.417  12.660  0.0999 -0.1360 -0.3463
14839TIP3    H166008   5.183   1.418  12.640  0.9806  0.3594  3.1076
14839TIP3    H266009   5.065   1.510  12.663  0.0175 -0.1738  0.5724
14840TIP3   OH266010   1.674   4.953  15.984  0.3314 -0.0357 -0.2463
14840TIP3    H166011   1.764   4.925  15.969  1.8084  2.7739  2.4160
14840TIP3    H266012   1.671   5.043  15.953 -0.9273  0.6020  1.5846
14841TIP3   OH266013   3.575   1.345   4.569 -0.0481 -0.1958  0.3434
14841TIP3    H166014   3.522   1.352   4.649 -0.3150  0.6218  0.1052
14841TIP3    H266015   3.652   1.399   4.586  0.5064 -1.0350  0.5207
14842TIP3   OH266016   1.087   2.917   3.419  0.5277 -0.7336  0.0895
14842TIP3    H166017   1.013   2.925   3.359  0.2503 -3.2744  0.0048
14842TIP3    H266018   1.145   2.990   3.395 -0.4267 -0.6058 -2.0253
14843TIP3   OH266019   1.115   5.976  10.387  0.0314  0.3802  0.2815
14843TIP3    H166020   1.092   5.890  10.351  0.4742 -0.4553  1.8618
14843TIP3    H266021   1.193   5.959  10.440  0.2068  1.7938  0.5151
14844TIP3   OH266022   2.269   3.573  15.897  0.4186 -0.2232 -0.1478
14844TIP3    H166023   2.223   3.586  15.814  0.6272 -0.9738 -0.3819
14844TIP3    H266024   2.200   3.577  15.963 -0.0723 -1.8028 -0.5310
14845TIP3   OH266025   4.175   5.856  16.183 -0.9570  0.1839  0.4194
14845TIP3    H166026   4.157   5.783  16.243  0.2953  1.0904  1.9795
14845TIP3    H266027   4.254   5.829  16.136 -0.1586  0.7300  1.4063
14846TIP3   OH266028   2.136   1.096   2.017 -0.7575 -0.1068 -0.0016
14846TIP3    H166029   2.122   1.143   2.099 -0.2998  2.2543 -1.1803
14846TIP3    H266030   2.224   1.121   1.990 -0.2304 -2.2401 -0.3812
14847TIP3   OH266031   1.370   0.464  14.134 -0.1115 -0.6734  0.0197
14847TIP3    H166032   1.283   0.503  14.146  0.5035  0.7168  0.0874
14847TIP3    H266033   1.419   0.490  14.212  0.3444 -1.5233  0.0222
14848TIP3   OH266034   5.030   6.282  14.270 -0.3535  0.1726 -0.3493
14848TIP3    H166035   5.112   6.236  14.253 -0.6573 -0.4403 -0.1828
14848TIP3    H266036   5.020   6.279  14.365 -0.4857  0.3952 -0.3551
14849TIP3   OH266037   5.191   5.139   3.558  0.7316 -0.3826 -0.1149
14849TIP3    H166038   5.283   5.157   3.539  0.4571  0.3983 -0.7369
14849TIP3    H266039   5.153   5.224   3.579 -0.0191 -0.5904 -0.6044
14850TIP3   OH266040   0.619   1.714   2.633 -0.3129  0.2571  0.2720
14850TIP3    H166041   0.655   1.723   2.721 -0.9697  0.0790  0.5654
14850TIP3    H266042   0.674   1.770   2.579 -0.1625  0.6963  0.8688
14851TIP3   OH266043   4.255   2.767   2.513 -0.4789 -0.0491 -0.3797
14851TIP3    H166044   4.326   2.793   2.572 -0.9965  0.4599  0.0382
14851TIP3    H266045   4.260   2.829   2.440 -1.0866  0.6320  0.1293
14852TIP3   OH266046   2.493   1.197   5.266  0.1431  0.0563  0.1240
14852TIP3    H166047   2.425   1.181   5.201  0.3770 -0.2565 -0.0517
14852TIP3    H266048   2.451   1.250   5.334 -0.0294  0.6077 -0.4084
14853TIP3   OH266049   3.983   1.071  16.478 -0.3517  1.0308  0.3549
14853TIP3    H166050   4.038   1.098  16.404 -1.5950  2.7135  0.0002
14853TIP3    H266051   3.980   0.976  16.471 -1.6292  1.1817 -2.6920
14854TIP3   OH266052   1.211   2.554   5.907 -0.1740  0.7568 -0.6405
14854TIP3    H166053   1.178   2.467   5.926 -0.4325  1.0529  0.2994
14854TIP3    H266054   1.245   2.548   5.818  0.9737 -0.6470 -0.1463
14855TIP3   OH266055   5.290   2.266  13.669 -0.5617  0.4713 -0.1634
14855TIP3    H166056   5.257   2.249  13.757  0.5567  1.6697  0.5208
14855TIP3    H266057   5.341   2.346  13.677  1.0515 -0.3349 -1.5206
14856TIP3   OH266058   0.652   4.668   3.213  0.0954  0.4816 -0.1429
14856TIP3    H166059   0.628   4.720   3.290 -1.9967 -0.3538 -0.1595
14856TIP3    H266060   0.628   4.579   3.236 -0.3371  0.1747 -1.6567
14857TIP3   OH266061   2.011   0.189   3.627 -0.0435 -0.1018  0.2296
14857TIP3    H166062   1.935   0.133   3.615 -1.3549  2.0615 -2.7716
14857TIP3    H266063   1.979   0.262   3.681  0.0977  0.4079 -0.3633
14858TIP3   OH266064   1.925   3.016  10.888  0.1545  0.3472 -0.5359
14858TIP3    H166065   2.001   2.964  10.860  1.8461  1.1926  2.1317
14858TIP3    H266066   1.849   2.962  10.866  1.7560 -3.8194  2.7519
14859TIP3   OH266067   2.075   5.423   2.942 -0.2654 -0.5180  0.6505
14859TIP3    H166068   2.166   5.395   2.951 -0.7729 -2.1696  0.8640
14859TIP3    H266069   2.055   5.468   3.024  0.4918  0.3037  0.3982
14860TIP3   OH266070   4.904   3.677   2.403 -0.3313 -0.3805 -0.7045
14860TIP3    H166071   4.962   3.699   2.330  0.6566  0.8770  0.4056
14860TIP3    H266072   4.876   3.762   2.438 -0.2296 -0.9394  0.8034
14861TIP3   OH266073   3.216   0.544   0.191 -0.4591  0.2106  0.5125
14861TIP3    H166074   3.133   0.578   0.158  0.5346  0.1994 -2.2219
14861TIP3    H266075   3.211   0.449   0.175 -0.7054 -0.1376  2.3387
14862TIP3   OH266076   2.065   3.940  15.184  0.3074 -0.3527 -0.0527
14862TIP3    H166077   2.020   4.009  15.232  1.4391  0.6020 -0.3115
14862TIP3    H266078   2.021   3.937  15.099  1.2410  1.1864 -0.6278
14863TIP3   OH266079   6.058   6.083  14.808 -0.3139  0.1649 -0.1277
14863TIP3    H166080   6.088   6.027  14.879 -0.9620  0.9017  0.7483
14863TIP3    H266081   5.974   6.116  14.838 -1.5284 -0.9837 -2.0417
14864TIP3   OH266082   3.626   5.160  13.894  0.0588 -0.0334 -0.3064
14864TIP3    H166083   3.539   5.192  13.869  0.6127  0.9228 -1.0687
14864TIP3    H266084   3.616   5.134  13.986 -1.2615 -0.8246 -0.6480
14865TIP3   OH266085   3.084   6.380   3.162 -0.2471 -0.3604  0.9277
14865TIP3    H166086   3.127   6.404   3.244  1.5215  0.4489 -0.1866
14865TIP3    H266087   3.039   6.298   3.182  1.6706 -1.1603  2.2354
14866TIP3   OH266088   5.708   3.887  13.520 -0.3503 -0.3743 -0.2697
14866TIP3    H166089   5.690   3.894  13.614 -1.7466  0.6426 -0.5829
14866TIP3    H266090   5.639   3.830  13.486  2.1663 -3.8262 -0.2026
14867TIP3   OH266091   2.611   4.596  16.572 -0.1149  0.1490 -0.2401
14867TIP3    H166092   2.682   4.650  16.536  0.1230  0.3755  0.5498
14867TIP3    H266093   2.656   4.536  16.632 -0.3602 -1.0072 -1.1755
14868TIP3   OH266094   0.069   3.432   5.423  0.3473 -0.7217 -0.8238
14868TIP3    H166095   0.031   3.516   5.447  1.0430 -0.4582 -0.6278
14868TIP3    H266096   0.152   3.428   5.470  0.1508 -1.6880 -0.5241
14869TIP3   OH266097   4.423   1.572   0.658  0.2868 -0.0979  0.5105
14869TIP3    H166098   4.370   1.494   0.671 -0.1876  0.0708 -0.3333
14869TIP3    H266099   4.469   1.557   0.576  0.6057  0.2741  0.6186
14870TIP3   OH266100   5.593   6.414  13.623 -0.3068 -0.2968  0.4234
14870TIP3    H166101   5.675   6.452  13.654 -0.1811 -0.0407 -0.1968
14870TIP3    H266102   5.611   6.392  13.531 -1.6119  1.8409 -0.3997
14871TIP3   OH266103   5.915   5.597   3.761 -0.0443  0.1777  0.2480
14871TIP3    H166104   5.997   5.582   3.808  0.8938  0.0061 -1.3591
14871TIP3    H266105   5.899   5.514   3.715  0.9004  1.3302 -2.3666
14872TIP3   OH266106   1.288   6.171   0.196  0.0928 -0.2752 -0.2235
14872TIP3    H166107   1.236   6.118   0.136  0.1029  0.2886 -0.7383
14872TIP3    H266108   1.295   6.117   0.275 -0.9345 -0.5276 -0.2858
14873TIP3   OH266109   2.804   1.342   3.883  0.3331  0.2671  0.4340
14873TIP3    H166110   2.873   1.388   3.932  0.4525  0.2457  0.2880
14873TIP3    H266111   2.729   1.401   3.888  0.4543  0.4319  0.3353
14874TIP3   OH266112   2.418   3.972   1.010 -0.3805 -0.5138 -0.2741
14874TIP3    H166113   2.367   3.971   1.091 -0.9006  0.2775 -0.5822
14874TIP3    H266114   2.420   3.881   0.981 -0.5804 -0.7311  0.3782
14875TIP3   OH266115   1.055   2.802   1.655 -0.1770 -0.5055 -0.0878
14875TIP3    H166116   1.065   2.819   1.561  0.7077 -1.3970 -0.1662
14875TIP3    H266117   1.113   2.865   1.697 -0.8934  0.1838 -0.0996
14876TIP3   OH266118   2.038   1.862  15.039 -0.0139  0.1401  0.0569
14876TIP3    H166119   2.015   1.904  15.122 -1.0630  0.3510 -0.3253
14876TIP3    H266120   2.133   1.873  15.032  0.0177  0.5725  0.9768
14877TIP3   OH266121   6.180   6.384   2.040  0.5504  0.5217 -0.1361
14877TIP3    H166122   6.159   6.296   2.069  1.0641  0.5009  0.1749
14877TIP3    H266123   6.276   6.388   2.042  0.5131  1.6310  1.5301
14878TIP3   OH266124   0.031   4.824  12.213 -0.2184 -0.2264 -0.4177
14878TIP3    H166125   0.029   4.730  12.197 -1.7058 -0.4310  0.8220
14878TIP3    H266126   0.095   4.857  12.149 -1.4524 -1.7329 -2.5596
14879TIP3   OH266127   1.513   1.334   4.652  0.3768 -0.5788 -0.0781
14879TIP3    H166128   1.603   1.302   4.656  0.6359 -0.1312 -1.5306
14879TIP3    H266129   1.467   1.288   4.722  1.4123 -1.8467 -0.2060
14880TIP3   OH266130   1.736   6.102   4.047 -0.3875  0.0737 -0.2306
14880TIP3    H166131   1.697   6.055   4.121 -0.6328  0.7463  0.0771
14880TIP3    H266132   1.799   6.162   4.088 -0.6297  0.5531 -0.5559
14881TIP3   OH266133   5.522   1.510  11.659 -0.2980  0.3318 -0.6339
14881TIP3    H166134   5.611   1.531  11.687 -0.4502 -0.3932  0.4422
14881TIP3    H266135   5.533   1.436  11.599 -0.1725  0.1102 -0.3464
14882TIP3   OH266136   3.610   6.744  15.860  0.4064 -0.0189  0.1179
14882TIP3    H166137   3.580   6.803  15.930 -0.1090  0.9179 -0.8519
14882TIP3    H266138   3.705   6.758  15.856  0.5907 -0.7920  1.2393
14883TIP3   OH266139   2.329   0.242  11.906 -0.0560 -0.1253 -0.0763
14883TIP3    H166140   2.351   0.151  11.887 -0.5448 -0.6553  1.6629
14883TIP3    H266141   2.325   0.246  12.002 -4.0805  0.7010 -0.0978
14884TIP3   OH266142   0.293   2.321   5.949  0.3681  0.9642  0.3117
14884TIP3    H166143   0.223   2.257   5.955  0.8509  0.4885  1.1127
14884TIP3    H266144   0.264   2.384   5.883  0.7311 -1.1416 -1.9756
14885TIP3   OH266145   4.977   0.552   2.193  0.5593  0.2707  0.0293
14885TIP3    H166146   4.972   0.457   2.203  0.5581  0.0421 -1.7977
14885TIP3    H266147   4.940   0.587   2.274  1.1490 -1.2705  1.0020
14886TIP3   OH266148   2.560   3.090   3.245  0.2526  0.2479  0.0082
14886TIP3    H166149   2.573   3.172   3.293  1.4022 -0.2565  0.6085
14886TIP3    H266150   2.596   3.023   3.303  1.2067 -0.4448 -1.3202
14887TIP3   OH266151   0.032   0.604   5.600 -0.2489  0.2760  0.0333
14887TIP3    H166152  -0.042   0.555   5.635 -0.5086  0.7964  0.2258
14887TIP3    H266153   0.053   0.561   5.517  0.8117 -1.4009  1.1139
14888TIP3   OH266154   5.320   2.839   4.146  0.0190 -0.2196 -0.2874
14888TIP3    H166155   5.373   2.888   4.083  0.2278 -1.1742 -0.8630
14888TIP3    H266156   5.252   2.902   4.174  1.6627  1.1645  0.8038
14889TIP3   OH266157   5.956   4.565   3.330  0.0340 -0.4872  0.2956
14889TIP3    H166158   6.026   4.619   3.367  0.6478  0.0443 -1.5550
14889TIP3    H266159   5.944   4.598   3.241 -0.7498 -2.2963 -0.3180
14890TIP3   OH266160   0.392   6.698  12.020  0.2984  0.1853 -0.7684
14890TIP3    H166161   0.376   6.757  12.094 -0.6572  0.7280 -1.3937
14890TIP3    H266162   0.314   6.643  12.017  0.7341 -0.4424 -0.8287
14891TIP3   OH266163   0.496   3.730  12.961 -0.3951 -0.1968  0.1121
14891TIP3    H166164   0.504   3.685  13.045  2.5229  1.9024  1.1290
14891TIP3    H266165   0.573   3.704  12.912  0.1772  1.7966 -0.1535
14892TIP3   OH266166   6.664   6.593  11.900  0.8481  0.3392  0.3373
14892TIP3    H166167   6.645   6.521  11.960  0.1519  1.3711  1.3991
14892TIP3    H266168   6.622   6.568  11.818  0.8626 -0.5802  0.6037
14893TIP3   OH266169   1.817   3.749   1.462 -0.8783 -0.3716  0.3212
14893TIP3    H166170   1.841   3.758   1.554 -0.9534  0.5420  0.2679
14893TIP3    H266171   1.724   3.772   1.458 -0.3199  2.1792 -0.2949
14894TIP3   OH266172   1.490   2.689  17.249 -0.1582 -0.1677 -0.0682
14894TIP3    H166173   1.408   2.706  17.202  0.1743 -2.8853 -1.8609
14894TIP3    H266174   1.545   2.765  17.229 -1.3718  0.5469 -0.8614
14895TIP3   OH266175   5.122   4.143   3.027 -0.0504  0.3018  0.3082
14895TIP3    H166176   5.097   4.115   3.115 -0.5155 -1.0729 -0.2428
14895TIP3    H266177   5.218   4.148   3.030  0.0248 -1.0444  0.5279
14896TIP3   OH266178   1.799   1.312  11.772  0.5197 -0.6614  0.4208
14896TIP3    H166179   1.847   1.230  11.769  2.1755  0.2417  0.8837
14896TIP3    H266180   1.835   1.364  11.700 -1.4426 -0.7807 -0.7253
14897TIP3   OH266181   4.130   3.637  12.578 -0.4162  0.0778  0.0384
14897TIP3    H166182   4.042   3.611  12.605  0.3161 -1.6283  0.9301
14897TIP3    H266183   4.163   3.688  12.651 -0.6833  0.8159 -0.3439
14898TIP3   OH266184   5.816   2.554   4.851 -0.2036 -0.6408  0.4432
14898TIP3    H166185   5.801   2.587   4.762 -2.0713 -1.3055  0.4730
14898TIP3    H266186   5.804   2.631   4.907  0.7036 -0.2810  0.1733
14899TIP3   OH266187   5.779   3.436  11.472  1.0971 -0.4217 -0.4963
14899TIP3    H166188   5.706   3.442  11.533  0.2606 -0.4206 -1.4783
14899TIP3    H266189   5.826   3.519  11.483  1.1606 -0.5636  0.3831
14900TIP3   OH266190   0.735   6.263  12.352 -0.3416 -0.2785  0.6648
14900TIP3    H166191   0.670   6.247  12.420 -0.6216 -1.0431  0.2375
14900TIP3    H266192   0.687   6.250  12.270 -0.8523  3.7152  0.1614
14901TIP3   OH266193   0.381   3.524   1.500  0.2359 -0.3578  0.2355
14901TIP3    H166194   0.352   3.552   1.413  1.2192  0.1734  0.0691
14901TIP3    H266195   0.335   3.583   1.560  0.2728 -0.1146  0.0250
14902TIP3   OH266196   5.758   4.101  14.193  0.8002  0.0941  0.0233
14902TIP3    H166197   5.842   4.105  14.147  0.3580  1.1286 -0.7189
14902TIP3    H266198   5.694   4.134  14.130  0.1808  1.6105  1.3632
14903TIP3   OH266199   4.510   5.343  11.486 -0.6765 -0.4122 -0.1768
14903TIP3    H166200   4.506   5.265  11.430 -2.1490  0.7889 -1.8559
14903TIP3    H266201   4.565   5.317  11.560  0.4384 -2.4261 -1.6269
14904TIP3   OH266202   0.581   0.928   0.433  0.5838  0.3751  0.0289
14904TIP3    H166203   0.667   0.910   0.471  0.2363  1.1026  1.1812
14904TIP3    H266204   0.555   1.013   0.468  0.3887  1.2806 -2.1274
14905TIP3   OH266205   3.715   0.394   3.359 -0.3313  0.5727 -0.0176
14905TIP3    H166206   3.683   0.427   3.276  1.3890  2.4065 -0.0204
14905TIP3    H266207   3.764   0.315   3.336  0.7293  1.4474 -0.8879
14906TIP3   OH266208   0.448   6.360  14.749  1.0497  0.2474  0.5937
14906TIP3    H166209   0.356   6.379  14.766  0.7035 -1.5407  0.8650
14906TIP3    H266210   0.458   6.267  14.768  2.1785 -0.4015 -2.5063
14907TIP3   OH266211   4.876   5.687   5.806  0.2749  0.0317 -0.4740
14907TIP3    H166212   4.911   5.651   5.725 -0.3152  0.6820 -1.0196
14907TIP3    H266213   4.873   5.781   5.792 -0.9851  0.0556 -0.1701
14908TIP3   OH266214   2.489   3.287   3.066  0.0256  0.5471  0.0509
14908TIP3    H166215   2.515   3.201   3.100 -1.2356  0.6190  1.2678
14908TIP3    H266216   2.530   3.292   2.980 -0.6933 -1.7271 -0.4909
14909TIP3   OH266217   3.975   5.673   5.835 -0.0002  0.1740  0.2090
14909TIP3    H166218   4.045   5.681   5.770  0.2208  1.0166  0.5449
14909TIP3    H266219   3.934   5.760   5.837 -1.3370 -0.4114 -0.2910
14910TIP3   OH266220   2.142   0.654  16.167 -0.6656 -0.0671 -0.7618
14910TIP3    H166221   2.231   0.687  16.167 -0.8591  0.4745  0.2930
14910TIP3    H266222   2.092   0.718  16.116 -0.6869  0.2998 -0.2835
14911TIP3   OH266223   2.637   4.038  12.458 -0.3346  0.0594  0.2542
14911TIP3    H166224   2.606   4.129  12.456 -0.1037  0.1501  0.6479
14911TIP3    H266225   2.608   4.006  12.543 -1.1406 -0.4970 -0.2226
14912TIP3   OH266226   4.592   2.027   0.094 -0.1073 -0.1525 -0.0475
14912TIP3    H166227   4.522   1.978   0.136  1.2631 -1.5330  0.7595
14912TIP3    H266228   4.651   2.052   0.165  1.7095 -1.6206 -0.9306
14913TIP3   OH266229   6.045   6.590   1.808  0.7790 -0.2398  0.4597
14913TIP3    H166230   5.958   6.552   1.814  0.4402  0.3055 -0.6729
14913TIP3    H266231   6.088   6.567   1.891 -0.3620 -0.6861  0.9387
14914TIP3   OH266232   4.649   6.269  15.581 -0.1521 -0.2206 -0.1034
14914TIP3    H166233   4.696   6.229  15.654  0.5649 -1.6022 -1.2810
14914TIP3    H266234   4.557   6.270  15.609  0.2638  0.5868  1.3601
14915TIP3   OH266235   1.879   5.326   2.766  0.3352  0.4521 -0.2976
14915TIP3    H166236   1.808   5.386   2.743 -0.3808  0.9532  2.7879
14915TIP3    H266237   1.956   5.382   2.775 -0.0102  0.7371  1.1322
14916TIP3   OH266238   6.352   3.979  14.669  0.4266  0.0199 -0.2731
14916TIP3    H166239   6.331   4.066  14.704 -1.3856  0.0697 -1.3538
14916TIP3    H266240   6.268   3.944  14.639  1.3523 -1.4754 -1.2674
14917TIP3   OH266241   6.213   2.150   5.355 -0.3374  0.2824  0.4526
14917TIP3    H166242   6.242   2.230   5.398  1.5281 -0.1357  0.0637
14917TIP3    H266243   6.251   2.079   5.407  2.0864 -0.2431 -1.8187
14918TIP3   OH266244   0.423   6.365  16.002  0.1548  0.0052 -0.3780
14918TIP3    H166245   0.351   6.425  15.981 -0.1548 -0.5736 -1.0229
14918TIP3    H266246   0.502   6.420  16.001 -0.1858  0.5002 -0.4027
14919TIP3   OH266247   5.214   4.760  16.895 -0.1596 -0.7736 -0.0217
14919TIP3    H166248   5.152   4.723  16.958 -0.0440 -1.2840 -0.2030
14919TIP3    H266249   5.225   4.691  16.830  0.5103 -0.6420 -0.0495
14920TIP3   OH266250   0.625   0.507   3.615  0.2952  0.0230 -0.6182
14920TIP3    H166251   0.615   0.592   3.574 -1.0598 -0.8750 -2.2558
14920TIP3    H266252   0.563   0.508   3.688  2.1084  1.3108  1.0129
14921TIP3   OH266253   4.715   2.190   5.893  0.4092  0.2101  0.2674
14921TIP3    H166254   4.764   2.262   5.933 -1.9492  0.5074  3.0179
14921TIP3    H266255   4.765   2.111   5.915  1.2596  0.7281  0.2166
14922TIP3   OH266256   0.867   6.691   0.980  0.0119 -0.3717  0.2227
14922TIP3    H166257   0.886   6.650   1.065 -0.3993 -0.0988  0.4480
14922TIP3    H266258   0.772   6.706   0.982  0.4048  2.6551  1.0796
14923TIP3   OH266259   4.460   0.238   2.305 -0.0607 -0.0293 -0.1709
14923TIP3    H166260   4.487   0.272   2.220 -0.1220 -0.8597 -0.5279
14923TIP3    H266261   4.473   0.311   2.365 -1.3817  1.0376 -1.1265
14924TIP3   OH266262   6.664   5.819   1.931 -0.0677  0.1413  0.7206
14924TIP3    H166263   6.758   5.809   1.915  0.8154  1.6692  3.9621
14924TIP3    H266264   6.658   5.894   1.990 -3.3995  0.2746  0.4090
14925TIP3   OH266265   4.125   4.443  13.377 -0.7668 -0.4487  0.0365
14925TIP3    H166266   4.100   4.394  13.298 -0.7068 -0.7629  0.2136
14925TIP3    H266267   4.213   4.411  13.398  0.2270  1.3357 -1.1404
14926TIP3   OH266268   4.219   5.778  14.984  0.7790  0.2589 -0.3664
14926TIP3    H166269   4.300   5.826  14.965  0.7006 -0.0147 -1.4610
14926TIP3    H266270   4.151   5.826  14.938  0.1112  1.0740  1.3753
14927TIP3   OH266271   5.265   6.206  11.891  0.1092  0.1836  0.1619
14927TIP3    H166272   5.280   6.264  11.817  1.4002  1.1792  1.1378
14927TIP3    H266273   5.340   6.222  11.949 -0.8076 -0.6154  1.6320
14928TIP3   OH266274   3.680   1.061  14.579  0.0170  0.2501  0.2983
14928TIP3    H166275   3.628   1.052  14.658 -0.0769 -1.6076  0.0794
14928TIP3    H266276   3.769   1.037  14.606  0.1039  0.2077 -0.0173
14929TIP3   OH266277   1.821   3.444   1.106  0.4280  0.2195  0.1812
14929TIP3    H166278   1.745   3.424   1.162 -0.5167  0.7935 -0.8480
14929TIP3    H266279   1.831   3.539   1.115 -0.5487  0.5277 -1.5722
14930TIP3   OH266280   2.258   5.343   3.598  0.8457  0.5812  0.4985
14930TIP3    H166281   2.348   5.376   3.597  0.9751  0.2620  0.9095
14930TIP3    H266282   2.244   5.316   3.689  0.8737 -0.7924  0.1204
14931TIP3   OH266283   2.948   2.876  15.326  0.8300 -0.1422 -0.5929
14931TIP3    H166284   2.928   2.797  15.375 -0.1359  1.3252  1.5317
14931TIP3    H266285   2.995   2.845  15.248  2.4106 -2.6151  1.2075
14932TIP3   OH266286   3.827   0.167  13.031  0.3223 -0.2906  0.0949
14932TIP3    H166287   3.831   0.258  13.002  0.8315 -0.6416 -0.9783
14932TIP3    H266288   3.897   0.159  13.096 -0.3878  0.3331  0.9595
14933TIP3   OH266289   5.883   3.690   4.250  0.6192  0.1953  0.4344
14933TIP3    H166290   5.969   3.723   4.277  0.8976  0.5448 -0.8417
14933TIP3    H266291   5.825   3.766   4.260  1.0566  0.8368 -1.4968
14934TIP3   OH266292   6.293   6.637  11.726 -0.4302 -0.4722 -0.3193
14934TIP3    H166293   6.301   6.634  11.821  0.2853  0.8294 -0.3127
14934TIP3    H266294   6.376   6.601  11.694 -0.3535 -0.2048 -0.4293
14935TIP3   OH266295   5.178   1.776  15.404 -0.1291 -0.1836 -0.6976
14935TIP3    H166296   5.175   1.804  15.495 -0.4000  0.8395 -1.0127
14935TIP3    H266297   5.240   1.702  15.404  0.8136  0.5812  0.1160
14936TIP3   OH266298   2.719   5.053  14.788 -0.2106 -0.4648 -0.4481
14936TIP3    H166299   2.748   5.099  14.710 -0.7827  1.0489  0.2032
14936TIP3    H266300   2.624   5.045  14.778 -0.1993 -0.9019 -0.2312
14937TIP3   OH266301   0.923   1.921   4.218 -0.1896  0.2176  0.2569
14937TIP3    H166302   0.891   1.997   4.170 -0.7860  0.0710  0.4181
14937TIP3    H266303   0.996   1.888   4.165 -1.2539 -0.3452 -0.9073
14938TIP3   OH266304   5.815   6.451   5.579 -0.1243 -0.3402  0.0691
14938TIP3    H166305   5.851   6.460   5.667  0.3948 -1.5567 -0.0001
14938TIP3    H266306   5.891   6.451   5.521 -0.4501  0.2847 -0.3708
14939TIP3   OH266307   4.756   2.950   1.903  0.7958 -0.7226 -0.1972
14939TIP3    H166308   4.688   2.997   1.951  1.3901 -0.3476  0.2716
14939TIP3    H266309   4.720   2.861   1.893  0.6150 -0.7694  0.8159
14940TIP3   OH266310   1.286   3.036   0.216 -0.2552  0.8380 -0.7766
14940TIP3    H166311   1.289   3.047   0.121  0.3828 -0.9931 -1.0194
14940TIP3    H266312   1.203   2.990   0.232  0.1889  0.0630 -0.6152
14941TIP3   OH266313   4.606   1.262  15.673  0.0148 -0.7769  0.0460
14941TIP3    H166314   4.576   1.352  15.660  1.7551 -0.1859 -0.1756
14941TIP3    H266315   4.622   1.228  15.584 -0.0415 -1.0815  0.1499
14942TIP3   OH266316   1.556   5.240   0.674  0.2375  0.3930  0.2836
14942TIP3    H166317   1.484   5.293   0.709  0.9052  0.0973  2.2239
14942TIP3    H266318   1.513   5.161   0.641 -0.3053 -0.1638  2.1912
14943TIP3   OH266319   1.695   3.843   3.884  0.2765 -0.4079  0.0742
14943TIP3    H166320   1.611   3.852   3.928  0.5107 -1.6221  0.8052
14943TIP3    H266321   1.744   3.781   3.938  0.0956 -3.0333 -2.5103
14944TIP3   OH266322   0.813   3.765   3.880  0.0060 -0.5471  0.2977
14944TIP3    H166323   0.870   3.792   3.809 -1.1608  0.9817 -0.0915
14944TIP3    H266324   0.763   3.843   3.903 -4.5704 -2.4895 -1.8071
14945TIP3   OH266325   5.733   2.792  15.817  0.2687  0.7547 -0.3653
14945TIP3    H166326   5.788   2.726  15.858 -0.4241  0.8508  0.7580
14945TIP3    H266327   5.668   2.741  15.768  0.1014  0.6131  0.0018
14946TIP3   OH266328   3.482   1.051   0.166  0.0307 -0.0054  0.1593
14946TIP3    H166329   3.449   1.128   0.120 -0.2657 -0.6779 -0.7904
14946TIP3    H266330   3.411   1.027   0.226 -0.9366 -0.9729 -1.3077
14947TIP3   OH266331   1.049   6.169   0.049 -0.3673 -0.2467  0.1026
14947TIP3    H166332   1.004   6.085   0.044  0.3505 -0.6154 -0.3588
14947TIP3    H266333   1.051   6.201  -0.042  0.8428 -0.5448  0.0053
14948TIP3   OH266334   5.588   5.435  11.933  0.0469  0.3244 -0.0767
14948TIP3    H166335   5.599   5.501  11.864  1.4759  0.0149 -0.1627
14948TIP3    H266336   5.586   5.486  12.014 -1.5680  0.6851 -0.2987
14949TIP3   OH266337   2.686   2.360  12.498 -0.2896 -0.1326  0.3642
14949TIP3    H166338   2.656   2.440  12.455  0.9269  0.2556  0.1947
14949TIP3    H266339   2.757   2.388  12.556  0.2059 -1.0866  0.2512
14950TIP3   OH266340   3.907   2.101   3.160  0.1486 -0.2997 -0.0165
14950TIP3    H166341   3.831   2.093   3.102 -1.2726  0.0308  1.6956
14950TIP3    H266342   3.901   2.024   3.217  0.2449  0.4779  1.0663
14951TIP3   OH266343   2.740   1.205  13.695  0.3199 -0.0713  0.3956
14951TIP3    H166344   2.662   1.217  13.749 -0.8242 -0.4046 -1.1243
14951TIP3    H266345   2.728   1.266  13.622  1.4678 -0.1707  0.1075
14952TIP3   OH266346   3.268   5.626   0.873  0.1249  0.0197  0.1773
14952TIP3    H166347   3.305   5.659   0.791  3.4787 -2.3200  0.5369
14952TIP3    H266348   3.336   5.643   0.938 -0.2365 -2.6835  1.3930
14953TIP3   OH266349   0.412   5.207  13.259 -0.2948  0.8621 -0.7428
14953TIP3    H166350   0.504   5.206  13.287  0.1194 -2.0553 -1.9046
14953TIP3    H266351   0.416   5.201  13.164 -1.5748 -2.5409 -0.7107
14954TIP3   OH266352   5.629   1.042  11.359 -0.0598  0.3800 -0.1085
14954TIP3    H166353   5.536   1.031  11.343  0.0031  1.7410 -1.7366
14954TIP3    H266354   5.661   1.089  11.282  1.6242  1.6051  1.2499
14955TIP3   OH266355   0.677   5.914  13.155 -0.2257 -0.3755  0.0186
14955TIP3    H166356   0.644   5.831  13.120  0.3342  0.0558 -1.6057
14955TIP3    H266357   0.773   5.905  13.153 -0.1656  0.0908  0.4213
14956TIP3   OH266358   1.802   2.244   4.559 -0.0527 -0.0592  0.3129
14956TIP3    H166359   1.748   2.183   4.508 -0.6535  1.0939 -0.4662
14956TIP3    H266360   1.744   2.318   4.578  1.7873  2.3479 -2.5800
14957TIP3   OH266361   0.639   1.370   3.592  0.0953  0.2988 -0.0126
14957TIP3    H166362   0.705   1.307   3.564  1.6477  0.9673  1.9003
14957TIP3    H266363   0.572   1.367   3.524  0.8561 -2.2601 -0.7354
14958TIP3   OH266364   3.259   4.201  16.496  0.0544  0.0028  0.1602
14958TIP3    H166365   3.168   4.232  16.491 -0.6951 -1.7251  1.9127
14958TIP3    H266366   3.307   4.274  16.534 -0.2211  1.5231 -2.1964
14959TIP3   OH266367   4.089   0.260  16.226  0.1397 -0.1128 -0.1649
14959TIP3    H166368   4.056   0.172  16.246  1.6980 -0.6564  0.1570
14959TIP3    H266369   4.044   0.318  16.287 -1.8491 -0.4712 -1.2105
14960TIP3   OH266370   3.834   2.572   1.860 -0.0598 -0.5698 -0.0479
14960TIP3    H166371   3.798   2.612   1.939  1.1977  1.0366 -0.2209
14960TIP3    H266372   3.796   2.484   1.858 -2.0776  0.1973  0.9900
14961TIP3   OH266373   2.094   5.986  11.593  0.8259 -0.1016 -0.2024
14961TIP3    H166374   2.034   6.001  11.519  0.0976  1.5175  0.6602
14961TIP3    H266375   2.074   5.898  11.623  1.3632 -0.9162 -2.1232
14962TIP3   OH266376   5.761   1.074   2.282  0.1599  0.2012 -0.1057
14962TIP3    H166377   5.766   1.147   2.220  0.7258 -0.2027 -0.5520
14962TIP3    H266378   5.762   0.995   2.227  1.0831 -0.1776  0.4110
14963TIP3   OH266379   2.144   2.277   2.360 -0.1587 -0.2870 -0.5445
14963TIP3    H166380   2.149   2.232   2.276 -0.9911  1.0541 -1.3625
14963TIP3    H266381   2.082   2.349   2.345  0.8555  0.9295  0.7562
14964TIP3   OH266382   0.329   5.541  17.059 -0.0551 -0.0164 -0.3707
14964TIP3    H166383   0.292   5.559  17.146 -1.0105  0.7381 -0.9121
14964TIP3    H266384   0.283   5.462  17.030  0.3912 -0.3719 -0.1353
14965TIP3   OH266385   1.317   5.236   0.317 -0.4878 -0.2294  0.1482
14965TIP3    H166386   1.292   5.325   0.338 -0.1840 -0.2864  0.7944
14965TIP3    H266387   1.388   5.245   0.254 -1.8054 -0.0643 -1.3740
14966TIP3   OH266388   1.224   2.632  11.276 -0.4408  0.4820 -0.3481
14966TIP3    H166389   1.144   2.590  11.244 -0.7073  0.2106  0.6502
14966TIP3    H266390   1.287   2.560  11.286  0.1147  0.7563 -1.6095
14967TIP3   OH266391   5.756   4.908   4.055  0.4109 -0.4116 -0.2215
14967TIP3    H166392   5.769   4.884   4.147  0.9580 -0.6961 -0.3734
14967TIP3    H266393   5.769   5.003   4.054  0.1378 -0.3671  0.0385
14968TIP3   OH266394   4.536   2.779   6.004  0.0525 -0.7078 -0.4421
14968TIP3    H166395   4.562   2.871   5.996  0.6765 -0.8876 -0.5225
14968TIP3    H266396   4.524   2.765   6.098 -3.7670  0.4437 -0.5696
14969TIP3   OH266397   1.098   0.748   3.121 -0.3607  0.0661 -0.0163
14969TIP3    H166398   1.122   0.822   3.066  1.6424  0.3001  1.1086
14969TIP3    H266399   1.058   0.787   3.198 -0.5511 -0.1080 -0.0252
14970TIP3   OH266400   4.019   1.762   2.017 -0.0465  0.7870  0.4106
14970TIP3    H166401   3.980   1.810   2.090 -0.0573  1.9816 -0.3592
14970TIP3    H266402   4.034   1.674   2.052 -0.2661  1.2644  1.7771
14971TIP3   OH266403   3.420   6.806  16.805 -0.1653 -0.2990  0.1139
14971TIP3    H166404   3.458   6.731  16.760  0.6385  0.0731  0.1686
14971TIP3    H266405   3.461   6.882  16.765 -0.9043  0.1123  0.1257
14972TIP3   OH266406   3.099   1.570   4.846  0.9764  0.2895  0.8180
14972TIP3    H166407   3.096   1.649   4.900 -2.4435  0.8565  0.0231
14972TIP3    H266408   3.063   1.502   4.903  0.8908  0.0398  0.4637
14973TIP3   OH266409   6.136   1.327   2.917  0.0955 -0.3125  0.1320
14973TIP3    H166410   6.196   1.320   2.842 -0.3671  1.3051 -0.4416
14973TIP3    H266411   6.181   1.386   2.978  0.3197 -1.3536  1.0068
14974TIP3   OH266412   0.032   6.104   3.419  0.3343  0.4161  0.5698
14974TIP3    H166413  -0.035   6.062   3.473 -0.6748 -0.1256 -1.0452
14974TIP3    H266414   0.016   6.197   3.430 -1.4945  0.3055 -0.6804
14975TIP3   OH266415   2.780   3.841   2.617  0.5666  0.1008 -0.4315
14975TIP3    H166416   2.787   3.905   2.547  0.1031  1.3266  0.6116
14975TIP3    H266417   2.686   3.821   2.622  0.1657  2.0393  1.5201
14976TIP3   OH266418   4.904   3.231   5.839  0.6816 -0.0573 -0.2609
14976TIP3    H166419   4.879   3.305   5.784  1.9724  1.8920  1.6246
14976TIP3    H266420   4.919   3.269   5.925  1.9100 -2.4472  0.6687
14977TIP3   OH266421   5.416   2.074   6.231  0.6497 -0.6171 -0.0092
14977TIP3    H166422   5.325   2.102   6.232  0.9930  0.5443  1.2532
14977TIP3    H266423   5.425   2.021   6.310  1.6241  1.2896  1.2350
14978TIP3   OH266424   6.462   2.461  12.509 -0.0495  0.5190 -0.1248
14978TIP3    H166425   6.531   2.499  12.563 -0.1062  2.3591 -1.2544
14978TIP3    H266426   6.382   2.475  12.559  0.2856 -1.2857  1.0190
14979TIP3   OH266427   0.627   3.556   6.616 -0.4931 -0.1074  0.3280
14979TIP3    H166428   0.552   3.509   6.651  0.6911 -2.3009  0.1489
14979TIP3    H266429   0.652   3.617   6.685 -0.8622 -1.2198  1.4871
14980TIP3   OH266430   6.765   0.591   2.789  0.4214 -0.4011  0.6081
14980TIP3    H166431   6.854   0.624   2.775 -0.5890  1.4529 -2.3689
14980TIP3    H266432   6.731   0.645   2.861  0.6018  1.4342 -0.6098
14981TIP3   OH266433   5.116   5.382   3.700  0.2773 -0.0585  0.6589
14981TIP3    H166434   5.142   5.312   3.761 -0.3177  0.4517  1.5254
14981TIP3    H266435   5.023   5.394   3.715  0.5448  1.5961  1.2637
14982TIP3   OH266436   5.915   2.871  16.087  0.1697 -0.0744 -0.1229
14982TIP3    H166437   5.833   2.918  16.101  0.0937 -0.0606 -0.5904
14982TIP3    H266438   5.981   2.939  16.075 -0.0366 -0.0719 -1.3509
14983TIP3   OH266439   3.612   0.004  12.681 -0.4165  0.1512  0.1460
14983TIP3    H166440   3.643  -0.020  12.594 -0.8412 -1.3980  0.3910
14983TIP3    H266441   3.541   0.066  12.665  0.7338  1.3540 -0.5154
14984TIP3   OH266442   0.956   1.160   5.774 -0.2063  0.0069  0.0700
14984TIP3    H166443   0.957   1.244   5.819  0.8719  0.2956 -0.4535
14984TIP3    H266444   0.876   1.117   5.803 -0.2991  0.8324  1.0511
14985TIP3   OH266445   3.866   3.355   0.830  0.1336 -0.3468  0.4966
14985TIP3    H166446   3.923   3.399   0.892 -0.8274  2.0507 -0.1994
14985TIP3    H266447   3.792   3.325   0.882  0.0355  0.3216  0.7456
14986TIP3   OH266448   0.749   6.237  11.686  0.3949 -0.5875  0.2465
14986TIP3    H166449   0.815   6.228  11.617 -0.5161 -1.0674 -0.5819
14986TIP3    H266450   0.789   6.296  11.750  1.5884 -0.8051 -0.2768
14987TIP3   OH266451   2.223   2.575  15.221 -0.0177 -0.0733  0.0242
14987TIP3    H166452   2.163   2.588  15.147 -1.1778 -0.6565  0.8340
14987TIP3    H266453   2.178   2.512  15.277  1.3439 -0.4827  0.6921
14988TIP3   OH266454   6.419   1.828  13.291  0.5116 -0.0894 -0.4972
14988TIP3    H166455   6.373   1.868  13.217 -0.1198 -2.4008 -1.4609
14988TIP3    H266456   6.506   1.869  13.290 -0.5781  2.3971 -0.3355
14989TIP3   OH266457   0.355   6.723   3.906  0.2444  0.1638 -0.0230
14989TIP3    H166458   0.283   6.737   3.844  0.9757 -0.8281 -1.1578
14989TIP3    H266459   0.425   6.685   3.852  1.5699  0.9679  1.0735
14990TIP3   OH266460   3.676   0.169   3.699 -0.2068 -0.4559 -0.2633
14990TIP3    H166461   3.627   0.090   3.722 -0.6802 -0.2219 -0.4601
14990TIP3    H266462   3.623   0.241   3.732  1.3381 -0.2713  2.0105
14991TIP3   OH266463   4.591   4.765   4.396 -0.0498  0.4111 -0.1395
14991TIP3    H166464   4.518   4.822   4.420  0.0005 -0.3521  2.0128
14991TIP3    H266465   4.611   4.789   4.305 -0.3030  3.4821  0.5059
14992TIP3   OH266466   6.457   2.348   0.780 -0.0778 -0.3822 -0.0103
14992TIP3    H166467   6.448   2.433   0.736 -1.1745 -0.8915 -0.8221
14992TIP3    H266468   6.522   2.363   0.849  0.7250  0.7751 -0.9827
14993TIP3   OH266469   4.502   5.059   1.249  0.2240  0.1572  0.1431
14993TIP3    H166470   4.491   5.013   1.166  0.1182  0.3891  0.0285
14993TIP3    H266471   4.581   5.022   1.287  0.8244  0.7382 -0.5131
14994TIP3   OH266472   4.596   1.131  11.873  0.1004  0.0275 -0.1405
14994TIP3    H166473   4.560   1.155  11.959  1.4612  1.3844  0.1019
14994TIP3    H266474   4.520   1.123  11.816 -0.7552  0.1556  0.9462
14995TIP3   OH266475   5.296   5.611  11.382  0.1996 -0.0018  0.0562
14995TIP3    H166476   5.235   5.614  11.456 -1.5838  2.3967 -1.3538
14995TIP3    H266477   5.251   5.659  11.312  2.3395 -1.0651 -2.1903
14996TIP3   OH266478   3.751   2.441  11.262 -0.7304  0.1221 -0.7816
14996TIP3    H166479   3.668   2.393  11.259 -0.4042 -0.4063 -1.8193
14996TIP3    H266480   3.809   2.392  11.204  0.5778  0.0042  0.5789
14997TIP3   OH266481   6.008   4.761   5.921  0.0919  0.0480  0.3354
14997TIP3    H166482   6.080   4.789   5.865  0.5108 -0.5110  0.5722
14997TIP3    H266483   6.028   4.799   6.007 -0.1696  0.3196  0.2756
14998TIP3   OH266484   0.870   2.183   1.614 -0.2173  0.0673 -0.1770
14998TIP3    H166485   0.910   2.247   1.555 -0.0239 -0.8694 -1.0758
14998TIP3    H266486   0.925   2.105   1.607 -0.8809 -0.4617  0.3355
14999TIP3   OH266487   2.211   0.226   3.908  0.4011  0.2083 -0.2657
14999TIP3    H166488   2.208   0.152   3.969  1.4821 -1.4023 -2.0595
14999TIP3    H266489   2.120   0.256   3.903 -0.1133 -1.1656  0.3356
15000TIP3   OH266490   4.904   3.748  14.385 -0.5019  0.0653 -0.2566
15000TIP3    H166491   4.841   3.784  14.447  0.0242  0.1136  0.2558
15000TIP3    H266492   4.989   3.777  14.417 -0.1586 -0.6267 -0.5158
15001TIP3   OH266493   3.284   2.359   4.723 -0.9545 -0.3176 -0.1932
15001TIP3    H166494   3.360   2.313   4.687 -0.9607 -0.7833  0.3551
15001TIP3    H266495   3.320   2.440   4.759 -0.6692 -0.6312  0.2489
15002TIP3   OH266496   5.627   6.803   1.909 -0.2999  0.2474  0.0818
15002TIP3    H166497   5.596   6.801   1.999 -3.0409  0.9267 -0.7667
15002TIP3    H266498   5.674   6.886   1.901 -0.6605  0.5156  0.7056
15003TIP3   OH266499   4.025   5.303  11.982 -0.6443  0.3337  0.1048
15003TIP3    H166500   4.112   5.341  11.999 -1.0366  0.9443  0.7884
15003TIP3    H266501   4.001   5.336  11.896 -1.3380  2.4020  1.0183
15004TIP3   OH266502   1.657   1.068  14.458 -0.2789 -0.0156  0.0183
15004TIP3    H166503   1.636   1.145  14.510  1.0888  0.3521  0.0752
15004TIP3    H266504   1.723   1.022  14.509  0.3534 -0.1753 -0.9128
15005TIP3   OH266505   5.964   1.833  15.248  0.2436  0.2459 -0.0429
15005TIP3    H166506   5.951   1.927  15.261 -0.0685  0.1829  0.1040
15005TIP3    H266507   6.018   1.828  15.169 -1.0645  0.5119 -1.0035
15006TIP3   OH266508   0.400   4.034   3.256  0.1182 -0.2134  0.0001
15006TIP3    H166509   0.417   3.954   3.206 -0.7909 -0.4394  0.0272
15006TIP3    H266510   0.482   4.082   3.253  0.8087 -1.3232  0.3014
15007TIP3   OH266511   4.183   3.185  14.915  0.4872  0.9198  0.8190
15007TIP3    H166512   4.220   3.106  14.956  0.5482  0.5812  0.1201
15007TIP3    H266513   4.147   3.235  14.989 -0.6417 -0.3301  1.1731
15008TIP3   OH266514   6.083   2.086   1.797  0.7936  0.3025 -0.0784
15008TIP3    H166515   6.067   2.026   1.725 -0.3305 -0.4914  0.7943
15008TIP3    H266516   6.051   2.171   1.766 -0.6180 -0.2359 -0.1788
15009TIP3   OH266517   6.000   0.338  12.207  0.1222  0.0475  0.6040
15009TIP3    H166518   6.082   0.355  12.253  0.9834 -0.4603 -0.6883
15009TIP3    H266519   5.992   0.243  12.205 -1.2400  0.1044  1.9422
15010TIP3   OH266520   3.488   0.096   1.872  0.0903  0.2116 -0.2934
15010TIP3    H166521   3.556   0.160   1.848  0.2817  1.0387  2.1390
15010TIP3    H266522   3.534   0.012   1.875  1.2971  0.8467  1.9356
15011TIP3   OH266523   0.124   6.266  16.203  0.3608  0.2441 -0.3472
15011TIP3    H166524   0.032   6.253  16.180  0.0330  0.6943  0.6604
15011TIP3    H266525   0.141   6.358  16.185  0.7618  0.0490 -0.9986
15012TIP3   OH266526   2.465   2.101  13.507 -0.2883 -0.1228  0.5957
15012TIP3    H166527   2.511   2.140  13.582  0.3275 -1.5891  1.0244
15012TIP3    H266528   2.517   2.127  13.431  0.5413 -0.6726  0.9523
15013TIP3   OH266529   3.174   3.471   3.184 -0.9597 -0.3371  0.1558
15013TIP3    H166530   3.149   3.537   3.120  0.2212  0.8366  0.8347
15013TIP3    H266531   3.170   3.388   3.136 -0.7307  0.4270 -1.2516
15014TIP3   OH266532   1.304   6.395  16.723 -0.4562  0.2325 -0.7470
15014TIP3    H166533   1.226   6.405  16.776 -0.1282 -1.0500  0.0067
15014TIP3    H266534   1.337   6.485  16.712 -1.6124  0.7047 -0.4657
15015TIP3   OH266535   3.500   2.151  14.856 -0.7342 -0.4838 -0.1410
15015TIP3    H166536   3.531   2.204  14.930  0.4178  0.1496 -1.0313
15015TIP3    H266537   3.448   2.082  14.896 -2.0217  1.1079  1.1121
15016TIP3   OH266538   1.667   0.126  12.443  0.6874  0.6984 -0.4230
15016TIP3    H166539   1.735   0.174  12.395 -0.0071 -0.0955 -2.2965
15016TIP3    H266540   1.590   0.133  12.387 -1.1760  2.4875  2.1146
15017TIP3   OH266541   1.383   0.901  10.753  0.3215 -0.1799  0.3707
15017TIP3    H166542   1.369   0.995  10.740 -0.0566 -0.3142 -0.2284
15017TIP3    H266543   1.406   0.893  10.846 -0.9862  0.3518  0.7626
15018TIP3   OH266544   2.384   6.281  15.768  0.2231  0.8045 -0.9145
15018TIP3    H166545   2.442   6.226  15.822 -0.5379  0.6143 -0.2737
15018TIP3    H266546   2.444   6.327  15.709  1.0758  0.9190  0.0048
15019TIP3   OH266547   5.717   3.572  15.242  0.0731 -0.1730 -0.4007
15019TIP3    H166548   5.694   3.637  15.308  0.6132 -0.6205  0.2390
15019TIP3    H266549   5.762   3.622  15.174  0.7944  0.0796  0.2477
15020TIP3   OH266550   4.815   0.909  16.061  0.1331  0.2901 -0.5346
15020TIP3    H166551   4.886   0.963  16.096 -0.5751  0.2496  1.0459
15020TIP3    H266552   4.737   0.939  16.108 -0.4534 -1.3749 -0.3873
15021TIP3   OH266553   5.434   4.312   5.898  0.2440 -0.0970 -0.1726
15021TIP3    H166554   5.515   4.262   5.911 -0.3773 -0.9694  0.4311
15021TIP3    H266555   5.458   4.401   5.924  0.4445 -0.7705  2.2536
15022TIP3   OH266556   0.619   5.597   2.978 -0.2673 -0.2166  0.0521
15022TIP3    H166557   0.577   5.662   2.922  0.5687  1.2435  1.0373
15022TIP3    H266558   0.689   5.560   2.924 -1.8922 -1.6979 -1.1380
15023TIP3   OH266559   1.980   3.108  12.999  0.6465  0.2770 -0.2549
15023TIP3    H166560   1.978   3.096  12.904 -0.9651 -0.0782 -0.1966
15023TIP3    H266561   1.941   3.028  13.034  1.3794  0.3275  0.7282
15024TIP3   OH266562   3.556   6.723   2.183  0.1175  0.1131  0.0548
15024TIP3    H166563   3.630   6.762   2.230  1.4896 -1.2519 -0.8890
15024TIP3    H266564   3.592   6.645   2.142 -2.0029 -0.9344  0.0436
15025TIP3   OH266565   2.058   5.474  11.481 -0.6881 -0.5887 -0.2651
15025TIP3    H166566   2.097   5.409  11.422 -0.3414 -0.8302  0.2153
15025TIP3    H266567   2.022   5.541  11.424 -0.0256 -0.6298 -0.7420
15026TIP3   OH266568   1.032   6.027  15.963 -0.0763  0.4798 -0.7557
15026TIP3    H166569   1.010   5.935  15.978 -2.1304  0.9559 -0.5362
15026TIP3    H266570   1.090   6.025  15.887 -0.7221 -0.9561 -1.2584
15027TIP3   OH266571   3.019   1.680   5.296 -0.3833 -0.3166 -0.0083
15027TIP3    H166572   3.027   1.585   5.311  0.4407 -0.4013 -0.8796
15027TIP3    H266573   2.929   1.692   5.265 -0.4808 -0.8237  0.0679
15028TIP3   OH266574   0.136   2.492   2.747  0.3101  0.2188  0.5359
15028TIP3    H166575   0.210   2.508   2.689 -0.4970  1.9771 -0.0737
15028TIP3    H266576   0.174   2.489   2.835  1.0789  1.4078  0.2594
15029TIP3   OH266577   3.707   2.206   0.052  0.5773 -0.7289  0.3841
15029TIP3    H166578   3.773   2.275   0.060  2.4284 -2.4521  0.7677
15029TIP3    H266579   3.752   2.126   0.079 -1.6357 -2.0361  0.4759
15030TIP3   OH266580   3.932   4.105   2.547 -0.2892 -0.0627 -0.0678
15030TIP3    H166581   4.006   4.093   2.607 -0.1537 -0.6946 -0.3542
15030TIP3    H266582   3.864   4.146   2.600  0.1101  0.1173  0.3095
15031TIP3   OH266583   5.141   2.125  15.575 -0.4208  0.1372 -0.2640
15031TIP3    H166584   5.191   2.204  15.592  0.3054  0.1697 -2.3257
15031TIP3    H266585   5.207   2.057  15.561 -1.0206 -0.5158 -0.0144
15032TIP3   OH266586   3.304   1.839  17.174 -0.0732 -0.9609 -0.4510
15032TIP3    H166587   3.229   1.886  17.210  0.1890 -1.0947  0.2958
15032TIP3    H266588   3.321   1.880  17.089  0.5363  0.7279  0.4259
15033TIP3   OH266589   5.962   6.447   0.523  0.4568 -0.2101 -0.0816
15033TIP3    H166590   5.997   6.443   0.612  3.0319  0.0540 -0.9926
15033TIP3    H266591   5.987   6.533   0.491 -1.4840  0.1621 -0.7087
15034TIP3   OH266592   4.193   0.956  15.592  0.0824  0.9862  0.1147
15034TIP3    H166593   4.248   0.879  15.577  1.3110  2.0061 -0.9018
15034TIP3    H266594   4.103   0.924  15.581  0.5444 -0.3659  0.0818
15035TIP3   OH266595   3.238   0.066   2.658  0.6404  0.2121 -0.1754
15035TIP3    H166596   3.254  -0.021   2.621  0.0174  0.1710 -0.3534
15035TIP3    H266597   3.244   0.054   2.753 -1.2578 -0.4179 -0.1003
15036TIP3   OH266598   1.616   1.389  14.999 -0.2518 -0.3153  0.1008
15036TIP3    H166599   1.703   1.419  15.024 -1.3060  1.0753  2.4389
15036TIP3    H266600   1.586   1.455  14.935  0.4342 -0.8921 -0.8375
15037TIP3   OH266601   1.431   3.482  16.874  0.0986 -0.2555  0.1039
15037TIP3    H166602   1.396   3.417  16.935 -0.5463 -0.5552 -0.5583
15037TIP3    H266603   1.400   3.566  16.908 -1.5226 -0.5253 -0.5805
15038TIP3   OH266604   2.375   4.077   2.101 -0.0519 -0.3158  0.2102
15038TIP3    H166605   2.353   3.988   2.076  1.5347 -0.4268 -0.9686
15038TIP3    H266606   2.460   4.094   2.059  1.2855  0.6133  2.9992
15039TIP3   OH266607   1.536   4.906  13.881  0.2677 -0.0591 -0.3582
15039TIP3    H166608   1.480   4.983  13.882 -0.7422 -0.7178  2.4598
15039TIP3    H266609   1.616   4.934  13.838 -0.9847  1.8312 -1.5759
15040TIP3   OH266610   1.396   2.544  16.668  0.0993  0.2533  0.1236
15040TIP3    H166611   1.481   2.509  16.639  0.2925  0.5441  0.3283
15040TIP3    H266612   1.396   2.531  16.763  1.6762  3.8663  0.7763
15041TIP3   OH266613   3.753   0.766  12.734 -0.4996  0.0098 -0.0361
15041TIP3    H166614   3.826   0.732  12.786 -0.2071  0.5849 -0.0643
15041TIP3    H266615   3.676   0.721  12.769 -0.1725 -0.3849  0.1924
15042TIP3   OH266616   3.638   0.677  15.615 -0.1478  0.1240  0.0736
15042TIP3    H166617   3.640   0.693  15.709  0.2219  2.0767 -0.2376
15042TIP3    H266618   3.728   0.690  15.586 -0.2278 -0.6093 -0.5502
15043TIP3   OH266619   2.109   4.160  14.474 -0.2270  0.0191 -0.3073
15043TIP3    H166620   2.174   4.227  14.453 -1.6419  1.0936 -1.4939
15043TIP3    H266621   2.109   4.102  14.398 -1.3389  0.6210 -0.7937
15044TIP3   OH266622   0.250   5.618  16.782 -0.1943 -0.1778  0.3129
15044TIP3    H166623   0.170   5.565  16.775  0.1173 -0.4893 -1.5107
15044TIP3    H266624   0.269   5.619  16.876 -1.9112 -0.7224  0.7209
15045TIP3   OH266625   1.395   0.476  11.474  0.1239  0.1143  0.2173
15045TIP3    H166626   1.379   0.490  11.567 -1.9086  1.7352 -0.3164
15045TIP3    H266627   1.345   0.544  11.430  1.4450 -0.2868 -2.0709
15046TIP3   OH266628   0.326   4.874  15.662  0.2740 -0.4312  0.0163
15046TIP3    H166629   0.368   4.852  15.745  1.8760  0.5918 -0.4795
15046TIP3    H266630   0.290   4.791  15.630 -0.7790 -0.7727  1.9003
15047TIP3   OH266631   6.232   1.661   5.965  0.2447 -0.1835 -0.3187
15047TIP3    H166632   6.309   1.706   6.000 -0.6117  1.6784 -0.7182
15047TIP3    H266633   6.217   1.589   6.026  0.4724  1.2742  1.5470
15048TIP3   OH266634   0.409   1.376   2.012 -0.2917  0.0042 -0.3185
15048TIP3    H166635   0.426   1.470   2.002 -2.0738  0.4275  0.3413
15048TIP3    H266636   0.362   1.352   1.932 -0.0352 -0.2826 -0.3838
15049TIP3   OH266637   4.239   4.489   2.675 -0.1471 -0.3990 -0.3811
15049TIP3    H166638   4.335   4.492   2.677 -0.0064 -2.8407 -0.1718
15049TIP3    H266639   4.219   4.442   2.594 -1.0741 -1.4290  0.4221
15050TIP3   OH266640   0.552   5.119  11.377 -0.1484 -0.6733  0.3556
15050TIP3    H166641   0.601   5.066  11.313 -0.6527  0.4154 -0.9763
15050TIP3    H266642   0.464   5.082  11.375 -1.1940  1.6050 -2.4169
15051TIP3   OH266643   0.657   4.006   4.203  0.3234 -0.1003 -0.1397
15051TIP3    H166644   0.748   3.993   4.230  0.0462 -2.2127 -0.1187
15051TIP3    H266645   0.653   4.099   4.181  1.6463  0.8256  2.9409
15052TIP3   OH266646   1.140   3.179   0.555  0.3897 -0.0224 -0.6165
15052TIP3    H166647   1.156   3.235   0.631  0.6098  0.7631 -1.2301
15052TIP3    H266648   1.166   3.232   0.480 -0.5844 -0.4873 -1.3041
15053TIP3   OH266649   1.983   1.672  11.240  0.3543 -0.2846  0.1616
15053TIP3    H166650   1.923   1.607  11.202 -0.5680  1.2657 -1.1643
15053TIP3    H266651   1.925   1.736  11.283  1.1264  0.5390  0.0082
15054TIP3   OH266652   3.597   3.526  12.312  0.0744  0.7642  0.0820
15054TIP3    H166653   3.628   3.615  12.296 -1.2061  1.0493 -0.9314
15054TIP3    H266654   3.574   3.492  12.226  0.8387 -0.6859  0.4135
15055TIP3   OH266655   4.698   0.602   4.880  0.0937  0.0454 -0.0623
15055TIP3    H166656   4.635   0.650   4.826  0.0731 -2.0262 -2.0076
15055TIP3    H266657   4.654   0.521   4.904  0.7131  0.1968  1.7812
15056TIP3   OH266658   0.875   6.458   0.486  0.7291  0.1628 -0.9278
15056TIP3    H166659   0.820   6.460   0.407 -0.4959 -1.2266 -0.1582
15056TIP3    H266660   0.879   6.365   0.509  1.6891  0.4766  0.2440
15057TIP3   OH266661   1.687   0.966  13.710 -0.6010  0.4471 -0.1617
15057TIP3    H166662   1.687   1.005  13.623 -0.1986  1.2048  0.1661
15057TIP3    H266663   1.780   0.958  13.733 -0.6353 -1.5313 -0.5688
15058TIP3   OH266664   5.428   2.646   0.204 -0.7262  0.3274  0.5753
15058TIP3    H166665   5.485   2.641   0.280 -0.1976  0.3994  0.1913
15058TIP3    H266666   5.379   2.564   0.204 -0.1662 -0.0135  0.5576
15059TIP3   OH266667   0.530   5.487  16.258  0.3972 -0.2451 -0.1734
15059TIP3    H166668   0.553   5.396  16.239  1.1071 -0.4203  1.3718
15059TIP3    H266669   0.608   5.523  16.300 -0.6527  0.4050  1.2965
15060TIP3   OH266670   0.040   1.422  15.646  0.0049  0.5493  0.0855
15060TIP3    H166671   0.048   1.388  15.735 -0.8107  1.2751  0.4498
15060TIP3    H266672  -0.026   1.366  15.605  0.8228 -0.1781 -0.2783
15061TIP3   OH266673   5.228   1.100  16.639 -0.5770  0.0761 -0.3541
15061TIP3    H166674   5.236   1.077  16.732 -0.4961 -0.1962 -0.4246
15061TIP3    H266675   5.134   1.113  16.625 -0.4348  1.8685  0.1647
15062TIP3   OH266676   2.082   1.930   1.688 -0.6945 -0.4080 -0.2305
15062TIP3    H166677   2.023   1.887   1.626  2.3079 -0.2826 -3.4609
15062TIP3    H266678   2.086   2.021   1.659  2.1623 -0.7409 -1.1406
15063TIP3   OH266679   5.173   4.598   5.991 -0.2634 -0.2971 -0.2595
15063TIP3    H166680   5.266   4.602   5.966  0.0283  0.2551  0.8553
15063TIP3    H266681   5.153   4.504   5.993  0.5371 -0.4601  0.4208
15064TIP3   OH266682   3.354   0.416   2.150  0.0129 -0.1999  1.2522
15064TIP3    H166683   3.386   0.327   2.136  1.5100  0.2026  1.9578
15064TIP3    H266684   3.431   0.471   2.142 -0.6673  0.9139  2.0639
15065TIP3   OH266685   5.876   3.577  15.012 -0.2493  0.0314  0.2437
15065TIP3    H166686   5.930   3.628  15.073 -0.1683  1.3209 -0.8475
15065TIP3    H266687   5.920   3.588  14.928 -0.8123 -1.0354 -0.1980
15066TIP3   OH266688   5.612   1.643  11.436  0.5083 -0.2973  0.0476
15066TIP3    H166689   5.661   1.723  11.455  0.0732  0.3925 -1.5355
15066TIP3    H266690   5.553   1.632  11.510  1.4886  0.0940  0.9208
15067TIP3   OH266691   2.155   4.029   6.559 -0.0095 -0.6034 -0.3180
15067TIP3    H166692   2.138   3.986   6.643 -2.1648  1.2590  0.3056
15067TIP3    H266693   2.215   3.970   6.513  1.2570 -1.6895  2.4964
15068TIP3   OH266694   3.594   5.012  15.657 -0.0536  0.2017  0.6000
15068TIP3    H166695   3.510   5.011  15.703 -0.6201  0.0218 -0.4163
15068TIP3    H266696   3.609   5.104  15.636 -1.4632 -0.0099 -1.7645
15069TIP3   OH266697   2.048   6.610  12.044 -0.1848  0.6363 -0.2013
15069TIP3    H166698   1.999   6.661  11.980 -0.7509  0.5106  0.1215
15069TIP3    H266699   2.129   6.585  11.999 -0.2830  1.0982 -0.6426
15070TIP3   OH266700   4.205   6.029  10.922  0.0333 -0.0172  0.2693
15070TIP3    H166701   4.231   6.027  11.014  1.1319 -0.2926 -0.0274
15070TIP3    H266702   4.187   6.121  10.904  1.1485  0.2532  0.4264
15071TIP3   OH266703   2.923   3.160   1.081  0.5200 -0.0536  0.2660
15071TIP3    H166704   2.839   3.201   1.097 -1.4574 -3.5677 -0.1350
15071TIP3    H266705   2.957   3.139   1.168 -0.6360 -1.4534  0.4178
15072TIP3   OH266706   1.685   4.586  14.427 -0.1302 -0.0246  0.4201
15072TIP3    H166707   1.643   4.663  14.389 -1.2106 -0.7557  0.1037
15072TIP3    H266708   1.702   4.611  14.518 -2.0107  0.0322  0.7941
15073TIP3   OH266709   3.123   1.652   0.091  0.0823  0.1547  0.0931
15073TIP3    H166710   3.030   1.673   0.098  0.5726  2.9488 -0.5500
15073TIP3    H266711   3.129   1.594   0.015 -1.2185 -1.0068  0.8443
15074TIP3   OH266712   4.235   5.081   4.646 -0.1580 -0.1603  0.3804
15074TIP3    H166713   4.268   5.149   4.706 -0.5538  0.2859  0.0954
15074TIP3    H266714   4.184   5.023   4.702 -2.7625  1.6900  0.1172
15075TIP3   OH266715   6.725   0.502  13.837  0.4303  0.4297  0.5540
15075TIP3    H166716   6.701   0.410  13.837  2.3061 -0.1125 -0.3796
15075TIP3    H266717   6.642   0.549  13.841 -0.5205 -1.2725  2.3358
15076TIP3   OH266718   4.804   5.061  12.062  0.1293 -0.0036  0.7564
15076TIP3    H166719   4.843   5.144  12.091  2.0280 -0.9897  1.1874
15076TIP3    H266720   4.878   5.010  12.028 -1.1755 -1.0868 -0.5991
15077TIP3   OH266721   1.868   3.092  13.360 -0.0079  0.0901  0.3578
15077TIP3    H166722   1.941   3.053  13.407 -0.8064 -0.2014  1.3920
15077TIP3    H266723   1.908   3.162  13.308  0.9658  0.1493  1.1479
15078TIP3   OH266724   6.425   3.982  16.236 -0.1137 -0.7678  0.0291
15078TIP3    H166725   6.450   4.030  16.315  0.5798  0.7474 -1.0730
15078TIP3    H266726   6.336   4.011  16.218  0.9240  1.6890 -1.6802
15079TIP3   OH266727   6.080   3.864   2.144 -0.3999  0.3716 -0.4072
15079TIP3    H166728   6.068   3.914   2.225  3.6233  1.4400 -0.2290
15079TIP3    H266729   6.055   3.925   2.074 -2.2507  0.0313 -0.1026
15080TIP3   OH266730   1.688   1.274  16.814 -0.3016 -0.5403 -0.1236
15080TIP3    H166731   1.751   1.220  16.766 -1.2858 -1.7512 -0.1012
15080TIP3    H266732   1.731   1.359  16.821  0.6772 -0.8818 -1.4540
15081TIP3   OH266733   1.996   4.541   2.262 -0.2464  0.1124  0.3587
15081TIP3    H166734   1.971   4.493   2.184 -0.8972 -0.0954  0.6899
15081TIP3    H266735   2.091   4.526   2.270 -0.1830  0.0971 -0.3522
15082TIP3   OH266736   2.095   6.579  11.484  0.2258  0.0463  0.1734
15082TIP3    H166737   2.150   6.544  11.413 -1.1179 -0.9832 -0.4008
15082TIP3    H266738   2.124   6.532  11.562  2.1067  1.5873  0.4975
15083TIP3   OH266739   3.331   6.166  12.358 -0.4977  0.1094 -0.3406
15083TIP3    H166740   3.396   6.203  12.298 -0.1342 -0.2203 -0.1488
15083TIP3    H266741   3.274   6.240  12.379 -0.6856  0.2100 -1.1620
15084TIP3   OH266742   0.867   3.274   1.607  0.2124 -0.4179  0.1318
15084TIP3    H166743   0.795   3.300   1.665 -0.0322  0.5909 -0.6092
15084TIP3    H266744   0.870   3.342   1.540 -0.0968 -2.0164 -1.5756
15085TIP3   OH266745   5.230   1.224  14.337  0.2607  0.3356 -0.3409
15085TIP3    H166746   5.265   1.311  14.318 -1.0519  1.1816  0.8623
15085TIP3    H266747   5.181   1.200  14.258 -1.5398  1.8816  0.2396
15086TIP3   OH266748   2.652   2.141   4.946  0.3605 -0.1146 -0.3499
15086TIP3    H166749   2.710   2.166   4.875 -1.5546  0.6210 -1.7265
15086TIP3    H266750   2.605   2.064   4.913 -1.8391  1.2775 -0.7094
15087TIP3   OH266751   0.239   3.332  15.140 -0.2579  0.1752  0.6037
15087TIP3    H166752   0.149   3.364  15.137  0.3169  1.8638  0.6897
15087TIP3    H266753   0.293   3.411  15.146  1.2674 -0.7754 -0.0615
15088TIP3   OH266754   2.374   1.283   5.492 -0.4283  0.3738 -0.7209
15088TIP3    H166755   2.355   1.374   5.514 -1.0783  0.7241 -2.6156
15088TIP3    H266756   2.320   1.232   5.553  0.4973  1.1885  0.8575
15089TIP3   OH266757   1.847   3.399   3.294 -0.0227 -0.1736  0.0582
15089TIP3    H166758   1.786   3.330   3.319 -0.5926 -0.3318 -1.6318
15089TIP3    H266759   1.808   3.479   3.328 -2.6612  0.0944 -3.1705
15090TIP3   OH266760   4.917   0.702   1.948  0.2781 -0.0479  0.4131
15090TIP3    H166761   4.835   0.689   1.996  0.5299 -0.6466  0.6962
15090TIP3    H266762   4.982   0.652   1.997  0.9066  0.7671  0.4246
15091TIP3   OH266763   1.572   4.949  12.605 -0.2713 -0.5093  0.2851
15091TIP3    H166764   1.610   4.949  12.517 -0.5214  0.9538  0.1655
15091TIP3    H266765   1.644   4.978  12.661 -1.3478  3.2926 -0.0651
15092TIP3   OH266766   4.141   5.268   3.159 -0.1423  0.3800 -0.4376
15092TIP3    H166767   4.187   5.302   3.083  1.0380  1.4961  0.7109
15092TIP3    H266768   4.074   5.333   3.179 -0.1544  0.3139 -0.2587
15093TIP3   OH266769   6.646   3.271  12.418 -0.3463  0.2257 -0.1766
15093TIP3    H166770   6.716   3.214  12.449 -0.1456  1.0836  1.0032
15093TIP3    H266771   6.655   3.270  12.323  0.4271 -0.7150 -0.1121
15094TIP3   OH266772   1.775   6.295   1.896 -0.2326  0.5278 -0.2889
15094TIP3    H166773   1.725   6.215   1.912  1.5376 -0.5306  0.2401
15094TIP3    H266774   1.789   6.295   1.801 -1.0440  0.7403 -0.4188
15095TIP3   OH266775   0.727   2.154  17.271  0.2305 -0.5218  0.7879
15095TIP3    H166776   0.647   2.154  17.322 -0.1554 -1.6525  0.2268
15095TIP3    H266777   0.698   2.151  17.180  0.8684  2.9176  0.3479
15096TIP3   OH266778   0.687   2.450   3.785 -0.1156 -0.0060 -0.2792
15096TIP3    H166779   0.756   2.511   3.812 -0.6936  0.0620  1.1469
15096TIP3    H266780   0.609   2.504   3.777 -0.4130 -0.3870 -0.0068
15097TIP3   OH266781   6.699   4.675   1.055  0.0928  0.4805 -0.2437
15097TIP3    H166782   6.770   4.717   1.103  0.6512  1.3942 -1.7827
15097TIP3    H266783   6.702   4.716   0.968 -1.3620 -0.5415 -0.8100
15098TIP3   OH266784   4.785   2.912   1.192 -0.4029 -0.1358 -0.7275
15098TIP3    H166785   4.829   2.992   1.220  1.0789 -1.1416 -0.0232
15098TIP3    H266786   4.809   2.903   1.100  1.5323 -1.0066 -0.2052
15099TIP3   OH266787   1.794   4.762  13.707  0.1966  0.3393  0.4686
15099TIP3    H166788   1.727   4.746  13.641  1.8754 -0.0276 -1.2547
15099TIP3    H266789   1.794   4.857  13.720  0.1508  0.4679 -0.4281
15100TIP3   OH266790   3.038   4.665   0.182  0.0980  0.6779 -0.6209
15100TIP3    H166791   2.985   4.711   0.248 -0.1768 -1.9610  1.1883
15100TIP3    H266792   2.996   4.687   0.099 -1.3988  1.8188  0.3625
15101TIP3   OH266793   5.765   1.432   1.863  0.8062 -0.1648 -0.4767
15101TIP3    H166794   5.839   1.478   1.824 -0.2913  1.1970 -1.0387
15101TIP3    H266795   5.789   1.420   1.955  2.0620 -0.5139 -0.8354
15102TIP3   OH266796   2.262   6.045  15.666  0.2870  0.6808 -0.0727
15102TIP3    H166797   2.296   5.994  15.739  0.6176  0.7774 -0.1597
15102TIP3    H266798   2.264   6.136  15.697  0.0293  0.6787 -0.0467
15103TIP3   OH266799   3.626   5.436   0.819 -0.0294  0.5276 -0.2685
15103TIP3    H166800   3.720   5.451   0.830 -0.2497  0.4293  2.1855
15103TIP3    H266801   3.595   5.513   0.771  1.0938  1.2133  0.0567
15104TIP3   OH266802   2.013   0.540   2.294  0.0828  0.0215 -0.2623
15104TIP3    H166803   2.105   0.567   2.307  0.1038  0.3060 -0.9321
15104TIP3    H266804   2.008   0.454   2.334  0.4032  0.3920  0.6158
15105TIP3   OH266805   4.505   3.692   1.426 -0.6907 -0.3056 -0.0350
15105TIP3    H166806   4.490   3.630   1.355  0.7852 -0.4760 -0.2138
15105TIP3    H266807   4.509   3.638   1.505 -0.4511 -0.3260 -0.0604
15106TIP3   OH266808   6.542   5.640   5.202  0.4137 -0.0267 -0.2591
15106TIP3    H166809   6.527   5.733   5.219  0.0371  0.0291 -0.8690
15106TIP3    H266810   6.613   5.639   5.137  2.4319 -0.2586  1.8176
15107TIP3   OH266811   6.246   1.234   1.406 -0.1242  0.3559  0.1689
15107TIP3    H166812   6.291   1.264   1.327  0.2873 -4.3411 -1.7374
15107TIP3    H266813   6.166   1.193   1.373 -1.2097  0.4150  2.5383
15108TIP3   OH266814   1.965   0.904   1.768  0.0373 -0.6337  0.1517
15108TIP3    H166815   1.951   0.890   1.861  1.2364  0.0440  0.4623
15108TIP3    H266816   1.935   0.994   1.752  0.1582 -0.6257 -0.0421
15109TIP3   OH266817   4.701   3.831   1.084  0.2915  0.7953 -0.8434
15109TIP3    H166818   4.749   3.821   1.003  1.3104 -1.6006 -0.0282
15109TIP3    H266819   4.762   3.876   1.143 -0.5232  2.7338 -1.3698
15110TIP3   OH266820   4.682   6.169   0.542 -0.0791 -0.5743  0.2739
15110TIP3    H166821   4.651   6.087   0.578  0.6755 -0.4570  1.2106
15110TIP3    H266822   4.707   6.222   0.618  0.8861 -0.0609 -0.3793
15111TIP3   OH266823   6.767   2.073  14.179  0.1439 -0.9189 -0.2250
15111TIP3    H166824   6.827   2.106  14.112 -2.9805  1.2076 -2.2138
15111TIP3    H266825   6.708   2.014  14.132 -1.2336 -0.5219  0.9190
15112TIP3   OH266826   0.943   5.669   2.637 -0.6020  0.0456 -0.0240
15112TIP3    H166827   0.959   5.595   2.695 -2.9401  0.3082  1.0849
15112TIP3    H266828   0.910   5.630   2.557 -0.5231 -0.1838  0.0548
15113TIP3   OH266829   4.555   3.164  15.056  0.1553 -0.1210  0.1393
15113TIP3    H166830   4.468   3.128  15.074  0.2171 -0.0858  0.5157
15113TIP3    H266831   4.602   3.156  15.139 -0.5028  2.7863  0.8784
15114TIP3   OH266832   2.498   3.992   2.353 -0.1486  0.0728  0.1490
15114TIP3    H166833   2.478   4.055   2.284  1.2618 -1.0868 -1.3752
15114TIP3    H266834   2.560   4.039   2.410 -1.8575  1.2818  1.1045
15115TIP3   OH266835   5.703   2.468   0.456 -0.6765 -0.0653 -0.7324
15115TIP3    H166836   5.748   2.541   0.413  0.2949 -0.9477 -1.2500
15115TIP3    H266837   5.613   2.498   0.465 -0.3228  1.1513 -1.0491
15116TIP3   OH266838   0.625   6.141  16.839 -0.1917  0.2035  0.0348
15116TIP3    H166839   0.606   6.189  16.758 -1.6784  0.2686  0.4053
15116TIP3    H266840   0.577   6.189  16.907  0.2141 -0.4496  0.7952
15117TIP3   OH266841   5.704   0.740  12.986  0.0533 -0.0690 -0.3654
15117TIP3    H166842   5.676   0.802  13.052 -0.0749 -0.1661 -0.3290
15117TIP3    H266843   5.672   0.655  13.016 -1.2485  0.0781 -1.2535
15118TIP3   OH266844   0.461   0.436  15.245 -0.3376  0.6349 -0.7879
15118TIP3    H166845   0.510   0.470  15.320 -0.1944  1.2555 -1.1546
15118TIP3    H266846   0.526   0.390  15.192 -0.5807 -0.4532 -0.1590
15119TIP3   OH266847   3.843   1.209   3.703 -0.0678 -0.0392  0.2867
15119TIP3    H166848   3.804   1.237   3.786 -1.0857  0.1887 -0.2626
15119TIP3    H266849   3.796   1.129   3.679 -0.4448  0.4189 -0.5415
15120TIP3   OH266850   4.943   4.073  16.583 -0.0420 -0.4456  0.0911
15120TIP3    H166851   4.947   4.159  16.541 -0.4396 -0.5738 -0.2096
15120TIP3    H266852   5.030   4.036  16.569 -0.0155 -0.2843 -0.1868
15121TIP3   OH266853   0.595   2.449  17.171 -0.3043 -0.5426  0.1581
15121TIP3    H166854   0.685   2.420  17.186 -1.0215 -2.4208  1.1308
15121TIP3    H266855   0.562   2.470  17.258 -1.2694 -1.3560  0.0066
15122TIP3   OH266856   5.690   6.677  17.070  0.3835  0.1034  0.1756
15122TIP3    H166857   5.649   6.711  16.991 -0.9772 -1.9826 -0.0859
15122TIP3    H266858   5.776   6.648  17.042  0.1505 -0.0398 -0.4060
15123TIP3   OH266859   4.519   0.689  15.352  0.2530 -0.0453  0.1971
15123TIP3    H166860   4.460   0.740  15.297  0.4609  0.8598  0.7947
15123TIP3    H266861   4.593   0.669  15.295  2.1859  3.9007  0.9702
15124TIP3   OH266862   0.707   3.558   1.638 -0.2406 -0.2596 -0.7733
15124TIP3    H166863   0.692   3.600   1.554 -1.3933  1.0607  0.0473
15124TIP3    H266864   0.656   3.477   1.635  0.1702 -0.4968 -1.5231
15125TIP3   OH266865   5.339   4.331   0.255  0.0870  0.4360 -0.6645
15125TIP3    H166866   5.262   4.380   0.226  0.7547  1.9157  0.0151
15125TIP3    H266867   5.380   4.301   0.174 -0.4490  0.7963 -1.0767
15126TIP3   OH266868   4.949   2.459   1.060  0.2622  0.2533  0.2549
15126TIP3    H166869   4.960   2.465   0.965  0.6022  1.8383  0.3612
15126TIP3    H266870   4.899   2.379   1.073 -0.5325  0.4435 -1.3389
15127TIP3   OH266871   4.575   4.613   1.733  0.0239 -0.5052 -0.2406
15127TIP3    H166872   4.616   4.689   1.775 -0.6106 -0.3100  0.0302
15127TIP3    H266873   4.502   4.590   1.790 -0.8708 -0.2133 -1.2451
15128TIP3   OH266874   4.257   0.913  17.011 -0.2203  0.3059 -0.4251
15128TIP3    H166875   4.322   0.941  16.947 -0.5912  0.2610 -0.8302
15128TIP3    H266876   4.290   0.945  17.095 -1.0977  2.8705 -0.9687
15129TIP3   OH266877   5.241   1.249  11.513  0.1030  0.0768  0.0450
15129TIP3    H166878   5.320   1.197  11.529  1.0730  0.2566 -3.4050
15129TIP3    H266879   5.170   1.184  11.515  0.2435 -0.1310  2.8822
15130TIP3   OH266880   4.354   5.222   0.673 -0.7580 -0.2576 -0.4082
15130TIP3    H166881   4.409   5.205   0.749  1.3134  0.4804 -1.6468
15130TIP3    H266882   4.400   5.181   0.600 -1.1820  1.4141 -1.6993
15131TIP3   OH266883   5.357   6.356  13.687  0.3748 -0.5040  0.1372
15131TIP3    H166884   5.431   6.381  13.632 -0.5633  1.7865 -0.1937
15131TIP3    H266885   5.371   6.402  13.770 -0.0263 -1.0810  0.5341
15132TIP3   OH266886   3.577   0.098  16.072  0.6263  0.5257  0.2555
15132TIP3    H166887   3.498   0.063  16.113  1.2326 -1.6814 -0.3424
15132TIP3    H266888   3.639   0.110  16.145  0.4823  0.1429  0.4369
15133TIP3   OH266889   3.563   0.943  14.201 -0.4557  0.0750  0.2499
15133TIP3    H166890   3.580   0.980  14.114 -3.7123 -0.7074 -0.8861
15133TIP3    H266891   3.468   0.936  14.205 -0.3128 -1.8180  3.1244
15134TIP3   OH266892   1.833   1.798   2.255  0.3639  0.2179  0.0212
15134TIP3    H166893   1.751   1.762   2.221 -0.8333  0.9774  1.8935
15134TIP3    H266894   1.901   1.755   2.204 -1.1839 -0.4338 -1.6228
15135TIP3   OH266895   6.422   0.601  11.620 -0.6415  0.0396  1.0578
15135TIP3    H166896   6.338   0.609  11.665 -1.4724  1.2345 -0.5855
15135TIP3    H266897   6.414   0.523  11.567 -0.6198  0.0292  1.0697
15136TIP3   OH266898   1.614   3.407  16.419  0.4395 -0.4508 -0.0723
15136TIP3    H166899   1.648   3.348  16.352  3.1545  0.1101  0.6876
15136TIP3    H266900   1.617   3.356  16.500 -3.0493 -1.2061 -0.2373
15137TIP3   OH266901   2.310   5.571  14.690  0.0344 -0.2409  0.1561
15137TIP3    H166902   2.264   5.541  14.612 -0.5291 -1.8396  1.0512
15137TIP3    H266903   2.259   5.646  14.721  0.4167  0.5791 -1.1230
15138TIP3   OH266904   3.834   6.497  17.184  0.7099  0.2456 -0.2544
15138TIP3    H166905   3.850   6.402  17.182 -0.8371 -0.1199  1.6206
15138TIP3    H266906   3.868   6.529  17.100  3.5098 -1.5661  0.0500
15139TIP3   OH266907   3.848   6.822  10.667  0.2975 -0.1680 -0.0444
15139TIP3    H166908   3.834   6.765  10.591  0.9696  0.7192 -0.8411
15139TIP3    H266909   3.812   6.907  10.641  2.7595  0.8522 -0.3508
15140TIP3   OH266910   1.423   0.142  10.822 -0.4799 -0.1169  0.0115
15140TIP3    H166911   1.466   0.217  10.864 -0.0772 -0.2141 -0.2235
15140TIP3    H266912   1.460   0.140  10.734  0.4500 -1.3303  0.3994
15141TIP3   OH266913   1.322   4.653   2.572 -0.8141  0.1351 -0.3960
15141TIP3    H166914   1.248   4.702   2.536  0.6636  2.5111 -0.3890
15141TIP3    H266915   1.399   4.697   2.537  0.6422 -1.0710  1.1384
15142TIP3   OH266916   5.158   4.197   1.910  0.1951  0.4326 -0.2472
15142TIP3    H166917   5.123   4.142   1.980 -0.1222 -1.7251 -2.0118
15142TIP3    H266918   5.235   4.150   1.878  0.9155  1.8786 -0.7304
15143TIP3   OH266919   3.243   2.023  14.897 -0.1217  0.4096  0.0068
15143TIP3    H166920   3.166   1.995  14.946 -0.6499  1.1970 -0.3434
15143TIP3    H266921   3.264   1.948  14.841  0.5598 -0.5420  1.4726
15144TIP3   OH266922   6.493   2.816   0.348  0.2018  0.1034 -0.6149
15144TIP3    H166923   6.533   2.881   0.406  1.7344 -1.9685  0.8304
15144TIP3    H266924   6.525   2.838   0.261  0.0330  1.7256 -0.2879
15145TIP3   OH266925   0.769   4.560   1.106 -0.5166 -0.3605 -0.5332
15145TIP3    H166926   0.713   4.607   1.167 -2.3897 -0.5363 -2.0391
15145TIP3    H266927   0.716   4.549   1.027  2.0195  0.5100 -2.5178
15146TIP3   OH266928   1.475   1.550  15.927 -0.2664  0.2284  0.2672
15146TIP3    H166929   1.393   1.587  15.893 -0.6471  1.2694  2.1894
15146TIP3    H266930   1.448   1.493  15.999  0.5972 -0.8815 -0.2621
15147TIP3   OH266931   0.975   4.330   0.710 -0.4299  0.1308 -0.2440
15147TIP3    H166932   0.899   4.279   0.682  0.4996 -1.0859 -0.6542
15147TIP3    H266933   0.953   4.421   0.688 -1.8441 -0.1693 -0.1286
15148TIP3   OH266934   5.574   5.962  16.351  0.3993 -0.2896  0.3749
15148TIP3    H166935   5.533   6.039  16.312 -0.4849 -0.6253  0.6053
15148TIP3    H266936   5.525   5.888  16.315  1.8255 -0.8091 -0.5435
15149TIP3   OH266937   5.742   0.002   2.754  0.7881 -0.3243 -0.4103
15149TIP3    H166938   5.684   0.031   2.684  1.0919 -1.1237 -1.0030
15149TIP3    H266939   5.728  -0.092   2.760 -0.1262 -0.1210  1.4336
15150TIP3   OH266940   6.226   0.827   4.379  0.1373  0.1945 -0.0490
15150TIP3    H166941   6.142   0.835   4.424  0.4645  0.3839  0.5403
15150TIP3    H266942   6.222   0.743   4.334 -0.6030  0.4769 -0.5284
15151TIP3   OH266943   3.610   6.432   6.260 -0.4810  0.2355  0.2303
15151TIP3    H166944   3.617   6.346   6.301 -0.6036  0.4868  0.8003
15151TIP3    H266945   3.530   6.429   6.209 -0.0151 -0.2818 -0.4849
15152TIP3   OH266946   3.997   5.749  12.939 -0.1378  0.0156 -0.4206
15152TIP3    H166947   4.058   5.788  13.002  0.4561  0.5021 -1.2800
15152TIP3    H266948   4.010   5.654  12.948  1.0189  0.1126 -0.8341
15153TIP3   OH266949   6.070   2.358   0.424 -0.2176 -0.1524  0.7538
15153TIP3    H166950   5.989   2.348   0.375  1.0939  0.5318 -1.7306
15153TIP3    H266951   6.084   2.273   0.465 -0.8723 -1.1575 -1.0022
15154TIP3   OH266952   0.192   5.229  10.999 -0.6118 -0.6159 -0.0233
15154TIP3    H166953   0.167   5.171  11.071  1.4677 -0.2764  1.0501
15154TIP3    H266954   0.221   5.309  11.042 -0.5188  0.0719 -1.3301
15155TIP3   OH266955   3.038   3.575   2.719 -0.5599 -0.3673 -0.1484
15155TIP3    H166956   2.955   3.531   2.705  0.0647 -1.1379 -1.7568
15155TIP3    H266957   3.037   3.649   2.658 -0.0944 -0.3379 -0.1243
15156TIP3   OH266958   0.221   5.743   0.174  0.9480 -0.2848 -0.1232
15156TIP3    H166959   0.291   5.783   0.122 -0.8928  0.4243 -2.1802
15156TIP3    H266960   0.164   5.817   0.197  1.1687 -0.7382  2.1262
15157TIP3   OH266961   4.954   4.033  12.715  0.3931  0.2663 -0.0765
15157TIP3    H166962   5.030   4.004  12.765  0.1452  1.2938  0.9489
15157TIP3    H266963   4.979   4.024  12.623  0.9057 -1.5757  0.2098
15158TIP3   OH266964   5.563   0.436  11.952  0.3331 -0.7892 -0.2604
15158TIP3    H166965   5.657   0.422  11.958  0.7903  2.1639  1.1988
15158TIP3    H266966   5.528   0.394  12.031  1.0469  1.5380  1.4165
15159TIP3   OH266967   3.016   2.124   2.977 -0.3726  0.3339  0.0446
15159TIP3    H166968   3.027   2.153   3.067  0.5633  0.4660 -0.1017
15159TIP3    H266969   2.941   2.064   2.980 -0.0310 -0.0743  1.0059
15160TIP3   OH266970   6.784   4.728   6.569  0.5887 -0.1687  0.4690
15160TIP3    H166971   6.756   4.787   6.639  0.9856 -0.8009  1.1786
15160TIP3    H266972   6.733   4.648   6.585  1.2906 -0.6051  0.5327
15161TIP3   OH266973   3.585   0.248  15.814  0.0015  0.4475 -0.1418
15161TIP3    H166974   3.599   0.205  15.899  0.6553 -1.0665 -0.9749
15161TIP3    H266975   3.631   0.192  15.751 -1.6756  0.7178 -1.6925
15162TIP3   OH266976   2.708   1.519  16.454  0.3236 -0.1795  0.0529
15162TIP3    H166977   2.739   1.557  16.372  0.2587 -2.1436 -0.9169
15162TIP3    H266978   2.695   1.595  16.512  0.2168  1.2554 -1.7714
15163TIP3   OH266979   0.684   3.281  12.350 -0.2908 -0.7031  0.4241
15163TIP3    H166980   0.685   3.255  12.258  0.0550  1.2453 -0.1586
15163TIP3    H266981   0.721   3.206  12.396  1.1746 -1.0535 -1.2133
15164TIP3   OH266982   1.021   4.403   5.545  0.3672 -0.3839  0.1904
15164TIP3    H166983   1.074   4.337   5.500 -4.2319 -2.7610 -2.4554
15164TIP3    H266984   0.998   4.362   5.629 -0.9693 -1.4492 -0.6605
15165TIP3   OH266985   0.132   1.221   3.106 -0.4317 -0.3491  0.0157
15165TIP3    H166986   0.137   1.220   3.010 -0.4040  1.0302 -0.0223
15165TIP3    H266987   0.146   1.313   3.129  0.9650 -0.8764  1.4350
15166TIP3   OH266988   2.350   2.794  15.067  0.2884 -0.0027 -0.6239
15166TIP3    H166989   2.367   2.724  15.129  1.1128  0.3459 -0.4540
15166TIP3    H266990   2.314   2.749  14.990  0.3755 -0.5590 -0.3450
15167TIP3   OH266991   4.456   5.442   4.943 -0.8585 -0.1796 -0.8430
15167TIP3    H166992   4.517   5.504   4.904 -0.3689 -0.4799 -0.5583
15167TIP3    H266993   4.506   5.362   4.955 -1.0791 -0.1824  0.1341
15168TIP3   OH266994   0.366   0.119   0.936  0.1645  0.2289 -0.0412
15168TIP3    H166995   0.453   0.153   0.914  1.0359 -1.4375  0.6122
15168TIP3    H266996   0.308   0.157   0.870  1.3116  1.6325 -0.3093
15169TIP3   OH266997   3.077   0.202  12.983 -0.1956  0.4870 -0.1651
15169TIP3    H166998   3.166   0.235  12.979 -0.2643  1.1946  2.4670
15169TIP3    H266999   3.023   0.275  12.953  0.0504  0.2627 -1.1822
15170TIP3   OH267000   2.119   4.199  15.361  0.7071 -0.7487 -0.1005
15170TIP3    H167001   2.034   4.190  15.317  0.3205  0.4540  0.3459
15170TIP3    H267002   2.128   4.293  15.376  1.5101 -0.9875  1.0532
15171TIP3   OH267003   1.120   1.361  13.805  0.2778  0.2616 -0.0743
15171TIP3    H167004   1.125   1.389  13.897  1.6629 -0.3308  0.0610
15171TIP3    H267005   1.135   1.442  13.755 -0.6795  0.6212  0.2116
15172TIP3   OH267006   4.710   2.616  17.284 -0.4085 -0.3828 -0.1940
15172TIP3    H167007   4.700   2.546  17.220 -0.3029 -1.9627  1.4221
15172TIP3    H267008   4.621   2.647  17.300 -0.5660 -0.8329 -0.1997
15173TIP3   OH267009   3.128   0.506   2.579  0.6505 -0.5323  0.2899
15173TIP3    H167010   3.170   0.534   2.659 -0.8544  0.5377  0.7539
15173TIP3    H267011   3.199   0.473   2.524  2.0361  0.9170  1.1339
15174TIP3   OH267012   6.036   0.559  17.297 -0.0221  0.0741  0.6898
15174TIP3    H167013   6.025   0.478  17.346  1.0237 -1.2750 -1.2141
15174TIP3    H267014   6.067   0.622  17.362 -0.3376 -1.1779  2.0965
15175TIP3   OH267015   4.839   2.025   1.997 -0.1740 -0.2129 -0.1561
15175TIP3    H167016   4.856   2.059   1.909 -1.0231  3.2191  0.8280
15175TIP3    H267017   4.925   2.002   2.031  0.2375 -0.9158 -1.6085
15176TIP3   OH267018   1.426   6.049  13.350  0.6764 -0.4483  0.1316
15176TIP3    H167019   1.377   6.022  13.272 -0.3841 -2.5992  1.4380
15176TIP3    H267020   1.505   6.090  13.316  0.2094 -1.2625 -2.0862
15177TIP3   OH267021   3.565   5.928   4.822 -0.1082 -0.5346 -0.9594
15177TIP3    H167022   3.527   5.901   4.738  1.2740 -2.2242 -1.1026
15177TIP3    H267023   3.560   5.850   4.877  1.8358 -0.4021 -0.5366
15178TIP3   OH267024   5.847   1.809   0.814  0.0292 -0.1278  0.7990
15178TIP3    H167025   5.819   1.770   0.897 -0.1550 -2.6356 -0.3260
15178TIP3    H267026   5.767   1.848   0.778 -0.3896 -0.8946  0.8734
15179TIP3   OH267027   3.353   4.335   1.788 -0.0879  0.7523 -0.0246
15179TIP3    H167028   3.331   4.244   1.807 -1.9764  1.3793  1.1185
15179TIP3    H267029   3.428   4.354   1.845 -1.5309  0.6905  2.0127
15180TIP3   OH267030   0.045   4.295   3.486  0.0808 -0.0153  0.0645
15180TIP3    H167031   0.040   4.350   3.564 -0.9583  0.3168 -0.2152
15180TIP3    H267032   0.088   4.215   3.516  2.4867  1.2555  0.2736
15181TIP3   OH267033   3.812   3.126   1.186 -0.2366 -0.5508  0.0011
15181TIP3    H167034   3.744   3.061   1.207  1.2341 -1.8345  0.9963
15181TIP3    H267035   3.818   3.181   1.264 -0.1626 -0.4119 -0.1018
15182TIP3   OH267036   2.678   0.288   3.843 -0.1771  0.3212 -0.7082
15182TIP3    H167037   2.641   0.216   3.791  0.0181 -0.9580  0.8590
15182TIP3    H267038   2.764   0.256   3.870 -0.2809  0.9530  0.4142
15183TIP3   OH267039   1.971   5.827   3.008  0.5088  0.2637 -0.0502
15183TIP3    H167040   2.046   5.883   2.988  0.0204  1.6077  1.6886
15183TIP3    H267041   1.901   5.888   3.031 -0.5516 -1.0286  0.2634
15184TIP3   OH267042   3.790   6.027  16.607  0.0842 -0.4106 -0.2057
15184TIP3    H167043   3.748   6.027  16.693  0.4268  1.4585  0.0188
15184TIP3    H267044   3.850   5.953  16.609 -0.7066 -1.0484  0.7534
15185TIP3   OH267045   5.074   4.473   0.525 -0.1160 -0.3745 -0.1595
15185TIP3    H167046   5.167   4.469   0.545 -0.0528 -0.6607 -0.5064
15185TIP3    H267047   5.033   4.415   0.590 -0.2964  1.3454  1.3592
15186TIP3   OH267048   1.291   0.967  14.064 -0.0416 -0.1682  0.5902
15186TIP3    H167049   1.322   0.952  13.975 -1.8981  1.7904 -0.4819
15186TIP3    H267050   1.204   0.927  14.066 -1.0333  1.8350  0.6686
15187TIP3   OH267051   5.489   6.267   3.175  0.0483  0.2639 -0.1511
15187TIP3    H167052   5.482   6.178   3.209 -0.0108  0.7147  1.0852
15187TIP3    H267053   5.405   6.308   3.197  0.1037  0.6427 -0.6371
15188TIP3   OH267054   0.225   5.259  16.964  0.4013  0.0782  0.0617
15188TIP3    H167055   0.318   5.239  16.965  0.3910 -0.0602 -0.8711
15188TIP3    H267056   0.198   5.246  16.873 -0.1763  1.7378 -0.0524
15189TIP3   OH267057   5.350   6.071   1.766  0.2422  0.4255  0.0046
15189TIP3    H167058   5.276   6.080   1.706  0.7260  1.9485 -0.3983
15189TIP3    H267059   5.316   6.018   1.838 -1.3994  1.5157  0.0770
15190TIP3   OH267060   4.296   3.893  13.230  0.9440  0.1474 -0.4266
15190TIP3    H167061   4.211   3.850  13.220  1.1882 -1.3734  2.7324
15190TIP3    H267062   4.360   3.823  13.216  1.5523  0.5545  0.2624
15191TIP3   OH267063   5.052   4.123  10.668 -0.1231  0.3514  0.6675
15191TIP3    H167064   4.997   4.142  10.592 -0.6170 -1.0637  0.6406
15191TIP3    H267065   4.993   4.082  10.731  0.7882 -0.8437  0.7828
15192TIP3   OH267066   5.849   3.703  13.114  0.0897  0.1133  0.0331
15192TIP3    H167067   5.831   3.656  13.195  0.5776 -0.6000 -0.2622
15192TIP3    H267068   5.943   3.691  13.099 -0.2332 -0.9784 -1.3729
15193TIP3   OH267069   4.701   5.460  14.062  0.5492 -0.6398 -0.0297
15193TIP3    H167070   4.614   5.497  14.045  0.5899  0.4354  1.8230
15193TIP3    H267071   4.692   5.416  14.146  1.8928 -0.2214  0.3501
15194TIP3   OH267072   0.575   5.676  16.981 -0.8497 -0.2363  0.5340
15194TIP3    H167073   0.489   5.633  16.986 -0.8052 -0.4355 -0.2846
15194TIP3    H267074   0.634   5.607  16.952 -0.4510 -0.0437  0.8858
15195TIP3   OH267075   5.904   4.516   0.069 -0.2808 -0.2501  0.4618
15195TIP3    H167076   5.915   4.454  -0.002 -2.1458  1.3187 -1.3236
15195TIP3    H267077   5.810   4.517   0.087 -0.0807  0.7708  1.6469
15196TIP3   OH267078   3.422   1.020  14.482  0.0683  0.1682 -0.6101
15196TIP3    H167079   3.518   1.014  14.479  0.1437  1.3507 -1.1993
15196TIP3    H267080   3.394   1.012  14.391 -0.3725  0.1234 -0.4732
15197TIP3   OH267081   6.576   2.588   4.837  0.3133 -0.5903  0.0775
15197TIP3    H167082   6.664   2.604   4.803  0.1841 -0.5889 -0.2677
15197TIP3    H267083   6.557   2.664   4.892 -0.3798  0.6113 -1.7199
15198TIP3   OH267084   3.461   6.125  12.643 -0.1786  0.3989  0.2090
15198TIP3    H167085   3.385   6.164  12.601 -0.0676  1.5475  1.0180
15198TIP3    H267086   3.511   6.085  12.572 -1.6898 -0.6866 -0.2860
15199TIP3   OH267087   0.097   4.686   3.353 -0.4478 -0.7145  0.6512
15199TIP3    H167088   0.181   4.661   3.391 -0.0442 -0.6759 -0.1947
15199TIP3    H267089   0.070   4.609   3.302 -1.2232 -0.9541  1.3971
15200TIP3   OH267090   3.316   6.679  11.096 -0.3598 -0.7057  0.2232
15200TIP3    H167091   3.296   6.598  11.142 -0.8670  0.1219  1.5175
15200TIP3    H267092   3.345   6.651  11.009 -1.1770 -2.2353  0.4089
15201TIP3   OH267093   5.988   6.434   5.374  0.1382 -0.3372 -0.0623
15201TIP3    H167094   6.064   6.375   5.370  0.5674  0.2860 -2.3025
15201TIP3    H267095   6.000   6.494   5.300 -1.5263  1.0611  0.7302
15202TIP3   OH267096   1.782   6.293   5.414 -0.8913 -0.3798 -0.5006
15202TIP3    H167097   1.869   6.274   5.450 -0.5620  0.1964 -0.9616
15202TIP3    H267098   1.750   6.366   5.467 -0.1792  0.8242 -1.6846
15203TIP3   OH267099   2.155   0.526   3.171  1.0517  0.6028  0.4264
15203TIP3    H167100   2.163   0.508   3.077  0.1072 -0.9885  0.6079
15203TIP3    H267101   2.223   0.471   3.211 -0.3804 -0.9626  0.8356
15204TIP3   OH267102   3.798   0.099  15.719 -0.0199  0.3830  0.1057
15204TIP3    H167103   3.868   0.043  15.752 -0.5823 -1.9364 -2.2946
15204TIP3    H267104   3.842   0.160  15.659  0.1931  0.2597  0.1380
15205TIP3   OH267105   0.111   1.287  11.531  0.1585  0.2775  0.2994
15205TIP3    H167106   0.112   1.363  11.472 -0.6063  0.2221  0.1974
15205TIP3    H267107   0.189   1.237  11.507 -0.1470  0.2497 -0.6853
15206TIP3   OH267108   0.968   4.454  16.239 -0.5261 -0.0926 -0.3375
15206TIP3    H167109   0.954   4.509  16.162 -0.3075  0.2084 -0.1647
15206TIP3    H267110   1.012   4.511  16.302  0.0073 -0.5606 -0.2772
15207TIP3   OH267111   3.183   1.961  16.734  0.0448  0.2637  0.0627
15207TIP3    H167112   3.220   1.966  16.823 -1.2504 -1.6909  0.7860
15207TIP3    H267113   3.223   2.034  16.687 -0.3805  2.3284  2.6711
15208TIP3   OH267114   0.580   1.644   0.211  0.2572 -0.4261 -0.4169
15208TIP3    H167115   0.637   1.677   0.281 -0.3376 -0.7639  0.2384
15208TIP3    H267116   0.551   1.559   0.243 -0.4015 -0.3742 -0.8703
15209TIP3   OH267117   4.838   3.240  14.617 -0.4084 -0.2892 -0.4414
15209TIP3    H167118   4.878   3.324  14.642 -0.1028 -0.4237 -0.4860
15209TIP3    H267119   4.908   3.191  14.575  0.0739 -1.4870  1.6192
15210TIP3   OH267120   0.129   6.414   3.721 -0.2113 -0.0662 -0.3930
15210TIP3    H167121   0.084   6.330   3.721 -4.4578  1.9461 -0.5205
15210TIP3    H267122   0.104   6.455   3.804  0.2459  1.7766 -1.1089
15211TIP3   OH267123   6.734   6.191   2.609  0.2843  0.1485 -0.1368
15211TIP3    H167124   6.817   6.174   2.654  0.3203  0.7080  0.0198
15211TIP3    H267125   6.686   6.248   2.669 -1.9637 -3.3234  1.7352
15212TIP3   OH267126   5.311   6.157  13.022 -0.0360 -0.0958 -0.1964
15212TIP3    H167127   5.216   6.158  13.013 -0.0841  0.5607  0.3601
15212TIP3    H267128   5.344   6.179  12.934 -0.4540  2.6369  0.2624
15213TIP3   OH267129   4.218   4.682   1.274  0.4199  0.0229  0.1247
15213TIP3    H167130   4.141   4.737   1.270 -0.2304 -0.7540  1.3706
15213TIP3    H267131   4.287   4.738   1.309  0.1460  0.4215  0.0245
15214TIP3   OH267132   0.490   5.454  12.934 -0.4219 -0.8439  0.0737
15214TIP3    H167133   0.430   5.510  12.885  0.9903 -0.9918 -1.9575
15214TIP3    H267134   0.444   5.371  12.942 -0.0000 -1.4312 -2.7624
15215TIP3   OH267135   2.640   5.239   5.597  0.6949  0.3007  0.2006
15215TIP3    H167136   2.648   5.294   5.675 -1.4368  0.5411  0.3048
15215TIP3    H267137   2.568   5.279   5.547 -1.3826 -2.6579  0.5793
15216TIP3   OH267138   5.632   0.533  13.192  0.1009  0.3570  0.7810
15216TIP3    H167139   5.539   0.537  13.171  0.1556  0.3212  0.5338
15216TIP3    H267140   5.662   0.451  13.154  0.3846  0.7039  0.2518
15217TIP3   OH267141   1.225   1.258  15.367  1.1695  0.5692  0.1449
15217TIP3    H167142   1.284   1.274  15.294  2.0105  1.4543  0.9750
15217TIP3    H267143   1.195   1.345  15.393 -1.8155  0.0723 -1.2340
15218TIP3   OH267144   5.408   4.525  13.802 -0.1738 -0.0052  0.4225
15218TIP3    H167145   5.502   4.541  13.787 -0.3133  1.0549  0.5732
15218TIP3    H267146   5.378   4.482  13.722 -0.0413  1.8372 -0.6802
15219TIP3   OH267147   1.164   5.059   0.941 -0.4274 -0.8530  0.1085
15219TIP3    H167148   1.111   5.014   0.875 -1.1813  0.6930 -0.3838
15219TIP3    H267149   1.116   5.047   1.023 -0.6612 -0.8866 -0.0340
15220TIP3   OH267150   4.648   5.743   4.264 -0.6027  0.1098 -0.2551
15220TIP3    H167151   4.671   5.650   4.260 -0.1566  0.2613 -3.8021
15220TIP3    H267152   4.562   5.744   4.308  0.7950 -1.5343  2.8887
15221TIP3   OH267153   2.319   0.764  13.106 -0.5895  0.1985  0.3197
15221TIP3    H167154   2.341   0.849  13.066  0.2283  0.3954  1.1544
15221TIP3    H267155   2.363   0.700  13.050 -0.6674  0.3680  0.0604
15222TIP3   OH267156   0.520   3.664  10.585 -0.5471  0.1509  0.4923
15222TIP3    H167157   0.508   3.758  10.599  0.8798  0.6679 -1.3412
15222TIP3    H267158   0.604   3.644  10.625 -0.4367 -0.1410  0.1240
15223TIP3   OH267159   0.895   2.078  12.549  0.3308 -0.4286  0.6425
15223TIP3    H167160   0.867   2.023  12.477  0.4016  0.2374  0.1021
15223TIP3    H267161   0.870   2.029  12.628 -0.1773 -0.9338  0.1725
15224TIP3   OH267162   3.587   0.965   2.530  0.2907 -0.2509 -0.1125
15224TIP3    H167163   3.665   0.987   2.480 -1.0221 -0.3568 -2.3505
15224TIP3    H267164   3.543   0.898   2.477 -1.7445  0.4493  0.5949
15225TIP3   OH267165   6.764   4.870   0.875 -0.1265 -0.9786 -0.1093
15225TIP3    H167166   6.823   4.849   0.803 -0.2219 -0.2231 -0.4140
15225TIP3    H267167   6.682   4.894   0.832 -0.5973 -1.7988  0.3013
15226TIP3   OH267168   2.863   3.588  12.343 -0.0309  0.2143 -0.2441
15226TIP3    H167169   2.923   3.572  12.415  0.4267 -0.1404 -0.6983
15226TIP3    H267170   2.887   3.674  12.309 -0.0217  0.2303 -0.1971
15227TIP3   OH267171   2.459   4.764   1.370 -0.6533  0.0387 -0.2488
15227TIP3    H167172   2.364   4.764   1.360 -0.7768  0.6852  0.7678
15227TIP3    H267173   2.478   4.689   1.427 -0.6946  0.6279  0.5630
15228TIP3   OH267174   0.582   4.922   6.306 -0.3807 -0.0484  0.1472
15228TIP3    H167175   0.660   4.958   6.347 -0.1878  1.2146 -1.2409
15228TIP3    H267176   0.580   4.830   6.333  0.9813  0.1704  1.0575
15229TIP3   OH267177   5.098   5.295  15.689 -0.4907  0.3811  0.3463
15229TIP3    H167178   5.118   5.357  15.760  0.9104 -1.4231  1.6095
15229TIP3    H267179   5.171   5.304  15.628  0.3580 -0.8089  1.1372
15230TIP3   OH267180   1.188   1.939  11.180 -0.3940  0.2275  0.1987
15230TIP3    H167181   1.263   1.885  11.203 -0.6484  0.0827  0.6824
15230TIP3    H267182   1.220   1.995  11.109 -0.1570 -0.6187 -0.3822
15231TIP3   OH267183   5.998   0.243  11.255  0.4569  0.1843 -0.0125
15231TIP3    H167184   5.977   0.171  11.316 -1.3237 -0.4250 -1.2596
15231TIP3    H267185   5.950   0.221  11.175 -0.6836  3.0734 -0.2416
15232TIP3   OH267186   4.448   0.738   4.858 -0.6353  0.6346  0.0029
15232TIP3    H167187   4.400   0.798   4.801 -0.9143  0.0907 -0.3436
15232TIP3    H267188   4.426   0.651   4.824  1.5951  0.3932 -0.9865
15233TIP3   OH267189   0.792   6.382  12.857 -0.3907  0.3966  0.1531
15233TIP3    H167190   0.787   6.303  12.803  1.3974  0.1400  0.3181
15233TIP3    H267191   0.793   6.454  12.794  1.2315  0.1154 -0.1837
15234TIP3   OH267192   2.131   4.495  15.410 -0.1424 -0.1878 -0.0389
15234TIP3    H167193   2.168   4.553  15.477  0.6524 -0.6368 -0.0694
15234TIP3    H267194   2.162   4.531  15.327 -0.6134  0.0101 -0.1308
15235TIP3   OH267195   2.701   4.238   3.723 -0.0124  0.0346 -0.8293
15235TIP3    H167196   2.723   4.162   3.668  0.6770  0.0210 -0.5502
15235TIP3    H267197   2.773   4.299   3.709  1.4355 -0.9137  1.7948
15236TIP3   OH267198   4.553   0.871   5.455 -0.3233  0.1085  0.2668
15236TIP3    H167199   4.501   0.882   5.535 -0.2060  1.2310  0.2128
15236TIP3    H267200   4.538   0.952   5.407  0.0829 -0.3126 -0.5744
15237TIP3   OH267201   3.881   3.621  13.643  0.2073  0.2834  0.3473
15237TIP3    H167202   3.878   3.545  13.584 -1.8647  0.6434 -0.1071
15237TIP3    H267203   3.917   3.586  13.725 -1.3872 -1.4329  0.4072
15238TIP3   OH267204   3.668   3.777  11.007 -0.4101 -0.3649  0.3813
15238TIP3    H167205   3.706   3.689  11.016 -0.0185 -0.1222  1.1441
15238TIP3    H267206   3.731   3.834  11.050 -0.4485  0.3550 -0.4817
15239TIP3   OH267207   0.716   5.607   4.880  0.4850  0.3543  0.9408
15239TIP3    H167208   0.698   5.598   4.974 -0.0519  0.4211  0.8477
15239TIP3    H267209   0.763   5.689   4.872 -1.2906  1.4327  0.9273
15240TIP3   OH267210   3.324   2.154  14.608 -0.0025  0.4606 -1.1024
15240TIP3    H167211   3.402   2.138  14.661  0.9148  1.3368 -2.1193
15240TIP3    H267212   3.263   2.197  14.668  0.4271  0.0896 -0.3824
15241TIP3   OH267213   0.873   5.630  12.016 -0.0351  0.7569 -0.3704
15241TIP3    H167214   0.874   5.540  11.985 -0.4011 -0.3474  2.4641
15241TIP3    H267215   0.956   5.640  12.063  0.5344  2.3403 -1.6188
15242TIP3   OH267216   3.050   0.669  13.595  0.1192 -0.2827 -0.3887
15242TIP3    H167217   3.004   0.749  13.620  1.1828 -0.0275  0.8407
15242TIP3    H267218   3.110   0.696  13.525 -0.4988 -0.3077 -0.9380
15243TIP3   OH267219   1.525   3.747  15.001  0.2221 -0.2437  0.1490
15243TIP3    H167220   1.583   3.815  15.035  0.2410  0.8204 -1.8442
15243TIP3    H267221   1.508   3.773  14.910 -0.1733 -2.6298 -0.5431
15244TIP3   OH267222   6.716   2.612  14.769  0.7229 -0.0101 -0.3766
15244TIP3    H167223   6.787   2.615  14.833 -0.3158  0.7210  0.7870
15244TIP3    H267224   6.754   2.652  14.690  2.0005 -0.8703 -0.2366
15245TIP3   OH267225   0.739   6.154   4.334  0.3025  0.6096  0.6918
15245TIP3    H167226   0.794   6.232   4.323  0.2698  0.4312 -1.0251
15245TIP3    H267227   0.771   6.093   4.267 -0.6931 -0.2585  0.9796
15246TIP3   OH267228   5.678   5.246   1.314  0.8632 -0.0699  0.6365
15246TIP3    H167229   5.605   5.229   1.374  1.6501  1.1544  1.9988
15246TIP3    H267230   5.699   5.338   1.327  2.3214 -0.2696 -0.1206
15247TIP3   OH267231   1.432   0.842  14.726  0.2092 -0.3909  0.7481
15247TIP3    H167232   1.362   0.886  14.775  0.7236 -0.3031  1.4249
15247TIP3    H267233   1.433   0.886  14.641  1.3261  1.5868  1.7140
15248TIP3   OH267234   5.905   0.241  13.707  0.7149 -0.7484 -0.3512
15248TIP3    H167235   5.906   0.336  13.693  1.7369 -0.4560  1.3507
15248TIP3    H267236   5.866   0.230  13.794 -0.4392 -1.9930 -0.9899
15249TIP3   OH267237   3.272   5.842  16.462 -0.1095  0.5633 -0.1046
15249TIP3    H167238   3.336   5.891  16.410 -2.9074  2.9306 -1.6139
15249TIP3    H267239   3.287   5.873  16.552  0.2771  1.8100 -0.5643
15250TIP3   OH267240   3.888   2.807  16.815 -0.3299 -0.3021 -0.1321
15250TIP3    H167241   3.847   2.890  16.841 -2.1841 -0.5039 -2.1157
15250TIP3    H267242   3.814   2.751  16.790  1.0606 -1.2371 -2.4286
15251TIP3   OH267243   4.626   3.080   5.145  0.0104 -0.0410 -0.5030
15251TIP3    H167244   4.559   3.020   5.111  0.4190  0.0286 -1.4557
15251TIP3    H267245   4.678   3.025   5.204  0.7304 -0.7968 -1.7991
15252TIP3   OH267246   0.401   2.018  16.428  0.5572 -0.0917  0.1001
15252TIP3    H167247   0.418   2.093  16.484 -1.9053 -0.1160  0.9722
15252TIP3    H267248   0.446   1.945  16.472 -0.8693 -0.0011  1.7832
15253TIP3   OH267249   2.398   4.529  16.421 -0.0698 -0.2112  0.0412
15253TIP3    H167250   2.467   4.545  16.485 -0.1621  1.4698 -0.2315
15253TIP3    H267251   2.328   4.588  16.447 -1.6293 -2.1759  0.5604
15254TIP3   OH267252   2.436   3.223  16.047 -0.3019 -0.0950  0.5941
15254TIP3    H167253   2.348   3.240  16.014  0.0979  0.2390 -0.3091
15254TIP3    H267254   2.422   3.196  16.138 -1.3179  0.1769  0.5304
15255TIP3   OH267255   2.216   0.136  14.536  0.3883  0.0438  0.4025
15255TIP3    H167256   2.182   0.224  14.552  1.4705  0.2289  1.8204
15255TIP3    H267257   2.311   0.146  14.536  0.5253 -1.0905  0.3659
15256TIP3   OH267258   0.506   5.446  11.560 -0.3501  0.2200 -0.4298
15256TIP3    H167259   0.590   5.446  11.607  0.0717 -0.8639 -1.1397
15256TIP3    H267260   0.518   5.512  11.491 -0.3070  0.4930 -0.1671
15257TIP3   OH267261   0.653   0.065   4.859 -0.3356 -0.1947 -0.3435
15257TIP3    H167262   0.718   0.011   4.814 -0.3220  0.3137 -0.9550
15257TIP3    H267263   0.672   0.053   4.952  0.7276  0.0416 -0.5171
15258TIP3   OH267264   2.232   3.357  13.418  0.3436 -0.1594  0.1573
15258TIP3    H167265   2.263   3.436  13.374 -2.0520  1.1510  0.6311
15258TIP3    H267266   2.179   3.312  13.352 -1.9155  0.9742  1.0968
15259TIP3   OH267267   5.123   1.870  14.951  0.1305  0.0221  0.5592
15259TIP3    H167268   5.144   1.785  14.989 -0.2199 -0.7703 -0.9554
15259TIP3    H267269   5.053   1.852  14.888 -0.7336  1.6171  1.0280
15260TIP3   OH267270   3.103   1.513   5.723 -0.0295 -0.2339  0.2755
15260TIP3    H167271   3.063   1.577   5.665 -2.4031 -1.6393  0.2423
15260TIP3    H267272   3.100   1.554   5.809  1.6813  1.0508 -0.2266
15261TIP3   OH267273   0.873   2.482  15.454  0.0801 -0.2973  0.1373
15261TIP3    H167274   0.790   2.435  15.440  0.0669 -0.6160  1.2086
15261TIP3    H267275   0.929   2.453  15.382 -1.3548  1.4578 -1.8093
15262TIP3   OH267276   0.181   2.417  17.146 -0.9923  0.2816 -0.0692
15262TIP3    H167277   0.110   2.479  17.128  0.1476  1.4168 -0.7710
15262TIP3    H267278   0.249   2.439  17.082  1.2938  1.3174  2.5437
15263TIP3   OH267279   4.483   1.737  12.070 -0.0661  0.1399  1.0528
15263TIP3    H167280   4.489   1.702  12.159 -2.4847 -1.6586  0.6082
15263TIP3    H267281   4.475   1.660  12.015 -2.5765  1.2547 -0.3042
15264TIP3   OH267282   3.338   5.325   4.570 -0.2607 -1.0740 -0.0758
15264TIP3    H167283   3.332   5.235   4.603 -1.0515 -1.9299 -2.3232
15264TIP3    H267284   3.281   5.326   4.493 -1.6109  1.8320  0.8053
15265TIP3   OH267285   2.589   5.562  11.978  0.4371  0.4353  0.3235
15265TIP3    H167286   2.547   5.480  12.004  3.0154 -1.5411 -1.2623
15265TIP3    H267287   2.535   5.630  12.018 -2.5432 -1.9432  0.7263
15266TIP3   OH267288   4.455   3.146  12.689 -0.4175 -0.3065  0.5239
15266TIP3    H167289   4.387   3.115  12.628 -0.6985 -1.2362  1.2859
15266TIP3    H267290   4.536   3.107  12.656 -0.2171  0.8412 -0.4129
15267TIP3   OH267291   0.359   1.727  11.830 -0.1249 -0.3843  0.3949
15267TIP3    H167292   0.287   1.746  11.890 -0.0685  0.0980  0.3161
15267TIP3    H267293   0.317   1.714  11.745  0.0533  2.6978 -0.2723
15268TIP3   OH267294   2.488   6.313   2.512  0.1576 -0.0714  0.0546
15268TIP3    H167295   2.482   6.218   2.514  2.3688 -0.3190 -1.3095
15268TIP3    H267296   2.455   6.338   2.426  2.0101  0.0727 -0.6725
15269TIP3   OH267297   0.607   2.973  13.526 -0.6779 -0.4031  0.4936
15269TIP3    H167298   0.663   2.936  13.458  1.2335  0.4142  1.5680
15269TIP3    H267299   0.593   3.064  13.499 -1.5575 -0.6063  0.2183
15270TIP3   OH267300   3.044   3.474  11.967  0.0992 -0.6185 -0.0961
15270TIP3    H167301   3.007   3.438  11.886 -0.7329 -0.0162  0.0033
15270TIP3    H267302   3.138   3.477  11.951  0.0212 -1.2272 -0.7455
15271TIP3   OH267303   5.792   3.333  16.821  1.0795  0.6696  0.0169
15271TIP3    H167304   5.824   3.245  16.798  1.3894  0.7462  0.1466
15271TIP3    H267305   5.856   3.366  16.884  2.3950  1.9915 -1.8965
15272TIP3   OH267306   2.290   0.142  10.968  0.2211  0.6094 -0.1583
15272TIP3    H167307   2.233   0.067  10.952  0.9616 -0.6536  2.5064
15272TIP3    H267308   2.231   0.217  10.970 -0.9621 -0.2985 -0.0471
15273TIP3   OH267309   4.355   3.836  12.730  0.0385 -0.5094 -0.1263
15273TIP3    H167310   4.447   3.857  12.716  0.2709 -1.0575  0.5174
15273TIP3    H267311   4.335   3.870  12.817 -0.6158  0.3814 -0.6072
15274TIP3   OH267312   5.567   5.254   1.073 -0.1012 -0.0155 -0.8208
15274TIP3    H167313   5.482   5.290   1.098 -0.0790 -0.0317 -0.7240
15274TIP3    H267314   5.621   5.264   1.151 -0.1319 -0.3821 -0.7505
15275TIP3   OH267315   3.542   2.512   0.163  0.0728 -0.5127  0.8352
15275TIP3    H167316   3.454   2.481   0.140  0.4490 -0.3576 -0.9667
15275TIP3    H267317   3.580   2.440   0.213  0.3447 -2.3950 -1.8632
15276TIP3   OH267318   0.173   2.357  11.514  0.4551 -0.2328 -0.1881
15276TIP3    H167319   0.160   2.370  11.608  1.6167 -1.6339  0.1885
15276TIP3    H267320   0.103   2.409  11.473 -1.2613 -1.0895  1.4915
15277TIP3   OH267321   2.499   2.301   3.165 -0.4506 -0.8100 -0.1845
15277TIP3    H167322   2.426   2.360   3.185  0.9774  1.7968 -2.0412
15277TIP3    H267323   2.473   2.258   3.084  0.7582  1.6541 -2.0007
15278TIP3   OH267324   2.192   6.537  15.052  0.4685  0.4988  0.2877
15278TIP3    H167325   2.198   6.508  15.143 -1.6858 -1.7060 -0.1621
15278TIP3    H267326   2.148   6.622  15.056 -1.1592 -0.3539  1.2625
15279TIP3   OH267327   4.988   6.209  12.455 -0.0391 -0.3080 -0.0365
15279TIP3    H167328   4.960   6.170  12.538  0.2534 -0.8972 -0.2135
15279TIP3    H267329   4.980   6.138  12.391  1.2654 -0.3201 -0.2069
15280TIP3   OH267330   0.892   4.607  16.685  0.0966  0.2728  0.0048
15280TIP3    H167331   0.857   4.664  16.617 -2.2259 -0.5084  0.4616
15280TIP3    H267332   0.850   4.522  16.671  2.5155 -1.0504  0.0949
15281TIP3   OH267333   2.498   3.141   1.792 -0.8216 -0.2666 -0.1695
15281TIP3    H167334   2.418   3.156   1.842 -0.5605 -0.8587  0.4345
15281TIP3    H267335   2.480   3.180   1.706 -0.9065  1.6816  0.6682
15282TIP3   OH267336   4.216   4.476   6.027 -0.5004 -0.0898  0.0892
15282TIP3    H167337   4.298   4.517   5.998 -0.9035  2.3370  2.0515
15282TIP3    H267338   4.156   4.487   5.953 -0.3096  2.1586  0.2042
15283TIP3   OH267339   3.812   4.187   1.103  0.4657 -0.4434  0.0716
15283TIP3    H167340   3.889   4.183   1.047 -0.1168 -0.8193 -0.7145
15283TIP3    H267341   3.738   4.184   1.043 -0.1674 -0.0894  0.8152
15284TIP3   OH267342   3.899   6.635   1.144 -0.6489 -0.1498 -0.0081
15284TIP3    H167343   3.871   6.653   1.054  0.3026 -2.2813 -0.8040
15284TIP3    H267344   3.925   6.720   1.179 -0.3391  0.6294 -2.0184
15285TIP3   OH267345   2.014   5.651  12.204 -0.0774 -0.3078  0.6911
15285TIP3    H167346   1.978   5.663  12.116 -0.8393  2.3921  1.2832
15285TIP3    H267347   1.975   5.570  12.236 -0.0127 -1.1835 -1.3094
15286TIP3   OH267348   4.005   1.554  15.703 -0.6035  0.6674  0.0495
15286TIP3    H167349   4.094   1.581  15.723 -0.5942  0.8316 -0.2076
15286TIP3    H267350   4.016   1.477  15.646 -0.6088  1.4804 -1.0800
15287TIP3   OH267351   6.449   1.649  11.317  0.1043 -0.3264  0.1381
15287TIP3    H167352   6.376   1.587  11.313 -1.3276  1.2578  0.6648
15287TIP3    H267353   6.414   1.729  11.278  1.5306  0.5080  0.5147
15288TIP3   OH267354   6.418   4.869   4.313 -0.1801  0.3646 -0.0785
15288TIP3    H167355   6.374   4.837   4.392 -0.7540  2.0644  0.3310
15288TIP3    H267356   6.360   4.842   4.241  0.0538 -0.6930  0.1146
15289TIP3   OH267357   3.392   3.806   2.774 -0.1236  0.4155  0.1186
15289TIP3    H167358   3.387   3.789   2.680  1.5485  3.0508 -0.5361
15289TIP3    H267359   3.454   3.740   2.806 -0.2398 -0.1289 -0.7373
15290TIP3   OH267360   5.986   1.279  12.998 -0.7381  0.3516  0.2187
15290TIP3    H167361   5.954   1.367  13.018 -0.1981  0.7045 -0.4114
15290TIP3    H267362   6.043   1.292  12.922  0.6151 -0.3151  1.0919
15291TIP3   OH267363   0.770   4.988   0.383  0.0237 -0.4041  0.0199
15291TIP3    H167364   0.761   5.021   0.294  0.0522  1.1109  0.5505
15291TIP3    H267365   0.721   5.050   0.437  0.8563 -0.7131  1.1774
15292TIP3   OH267366   0.093   5.101   5.132  0.6367  0.1770 -0.1275
15292TIP3    H167367   0.020   5.041   5.148 -0.4781  1.3764 -0.4771
15292TIP3    H267368   0.053   5.188   5.132  2.5604  1.2352  2.9212
15293TIP3   OH267369   3.241   4.997   0.954  0.2129  0.0138  0.3208
15293TIP3    H167370   3.243   4.958   0.867  1.4063  0.7326  0.0007
15293TIP3    H267371   3.279   5.084   0.942  0.3626  0.1339  1.5480
15294TIP3   OH267372   6.036   4.144  15.826 -0.4435  0.4204  0.0991
15294TIP3    H167373   6.121   4.131  15.868  0.3552  0.7488 -1.3379
15294TIP3    H267374   5.993   4.059  15.832 -0.1315  0.3204  1.0705
15295TIP3   OH267375   5.481   0.113   0.814 -0.4445  0.1233 -0.2248
15295TIP3    H167376   5.420   0.155   0.875 -0.0715  0.5475 -0.1405
15295TIP3    H267377   5.448   0.023   0.806 -0.3343 -0.0214  0.8248
15296TIP3   OH267378   5.367   3.101   3.179 -0.0977 -0.2255  0.5947
15296TIP3    H167379   5.450   3.100   3.226 -0.8867 -0.7286  2.0434
15296TIP3    H267380   5.374   3.030   3.116 -0.1577 -1.5934  2.0801
15297TIP3   OH267381   2.999   1.115   3.935  0.4786  0.2821  0.3500
15297TIP3    H167382   3.001   1.189   3.874 -0.6052 -0.2498 -0.3483
15297TIP3    H267383   2.945   1.147   4.008  0.4444  0.3683  0.2880
15298TIP3   OH267384   1.713   1.368  15.887  0.4101 -0.1437  0.4191
15298TIP3    H167385   1.725   1.451  15.841  0.1305  0.2065  0.9696
15298TIP3    H267386   1.796   1.322  15.874  0.8756  0.5595  0.7698
15299TIP3   OH267387   0.126   4.037   3.520  0.4258 -0.0270 -0.0080
15299TIP3    H167388   0.123   3.985   3.600 -1.6172 -0.9018 -0.6002
15299TIP3    H267389   0.134   3.973   3.449  2.3054  0.7384 -0.5791
15300TIP3   OH267390   2.552   1.447   3.913  0.0561 -0.0841  0.2635
15300TIP3    H167391   2.465   1.413   3.892 -0.0613  0.7991 -0.7857
15300TIP3    H267392   2.542   1.486   4.000 -1.1629  1.7880 -0.6453
15301TIP3   OH267393   4.643   5.284  12.372 -0.3534 -0.7198  0.1018
15301TIP3    H167394   4.662   5.363  12.423 -1.8952 -1.0030  1.1757
15301TIP3    H267395   4.681   5.301  12.286 -1.4829  1.5813  0.0009
15302TIP3   OH267396   4.614   1.036   0.953  0.0086  0.1854 -0.8360
15302TIP3    H167397   4.667   1.058   0.876  1.3287 -1.1126 -0.3541
15302TIP3    H267398   4.555   0.966   0.923 -0.2801  0.4848 -0.9625
15303TIP3   OH267399   4.411   3.578  16.221 -0.1709 -0.0746 -0.6234
15303TIP3    H167400   4.333   3.536  16.186 -1.0785  1.0284  0.0050
15303TIP3    H267401   4.427   3.653  16.163 -0.6326  0.7159  0.2264
15304TIP3   OH267402   3.454   6.493   4.862 -0.3086 -0.1799 -0.1559
15304TIP3    H167403   3.530   6.435   4.855 -0.8565 -0.9156 -0.1743
15304TIP3    H267404   3.446   6.512   4.955  1.8136  2.5564 -0.4177
15305TIP3   OH267405   6.552   6.392   1.341 -0.0212 -0.3487 -0.4278
15305TIP3    H167406   6.522   6.475   1.304 -1.3898 -0.7147 -0.2079
15305TIP3    H267407   6.495   6.326   1.301 -0.6918 -0.8974  1.3055
15306TIP3   OH267408   5.285   1.837  12.291  0.7154  0.1122 -0.2019
15306TIP3    H167409   5.232   1.809  12.216  1.0316 -0.9228 -0.0646
15306TIP3    H267410   5.374   1.808  12.269  0.8584  0.0509  0.4483
15307TIP3   OH267411   3.696   1.129   6.147 -0.2731 -0.1156 -0.2676
15307TIP3    H167412   3.738   1.051   6.112 -0.2643 -0.3769  0.3180
15307TIP3    H267413   3.727   1.135   6.237  1.3526  1.7140 -0.8872
15308TIP3   OH267414   1.688   6.109  15.050  0.2560  0.3044 -0.5736
15308TIP3    H167415   1.622   6.111  15.119  1.6818 -2.1342  1.0315
15308TIP3    H267416   1.668   6.030  14.999 -0.6501  1.9491 -2.9438
15309TIP3   OH267417   2.718   5.837  12.297 -0.4770 -0.5315 -0.2616
15309TIP3    H167418   2.753   5.781  12.228 -1.3676 -0.2110 -0.9844
15309TIP3    H267419   2.623   5.828  12.290 -0.5878 -0.3074  0.7703
15310TIP3   OH267420   0.424   4.273   5.503 -0.2314 -0.4614  0.5038
15310TIP3    H167421   0.510   4.316   5.506  0.7416 -2.3732  1.2620
15310TIP3    H267422   0.401   4.273   5.410  0.7554 -0.2497  0.2442
15311TIP3   OH267423   4.604   3.747   5.811  0.4974  0.0134 -0.1127
15311TIP3    H167424   4.644   3.714   5.891  1.8577 -0.6499 -1.0156
15311TIP3    H267425   4.534   3.805   5.840  1.4101  0.3260  1.5334
15312TIP3   OH267426   1.294   3.044  15.928  0.2680 -0.7350 -0.5189
15312TIP3    H167427   1.380   3.070  15.960 -0.2708 -1.4649  1.6645
15312TIP3    H267428   1.271   2.966  15.979 -1.1264 -1.3873 -2.0056
15313TIP3   OH267429   3.081   4.833  14.430 -1.1800  0.0019  0.1118
15313TIP3    H167430   3.160   4.885  14.412 -0.6951 -0.3820  1.0622
15313TIP3    H267431   3.019   4.859  14.362  0.4885 -1.2799 -2.0459
15314TIP3   OH267432   0.606   4.308  13.359  0.1803  0.0467  0.1412
15314TIP3    H167433   0.513   4.288  13.364  0.1483  0.3279  0.7943
15314TIP3    H267434   0.634   4.271  13.276 -0.4782 -0.1894  0.0172
15315TIP3   OH267435   5.349   4.681  16.590 -0.0625 -0.0242 -0.0787
15315TIP3    H167436   5.327   4.723  16.507 -0.8279 -0.0000  0.1289
15315TIP3    H267437   5.285   4.610  16.599 -0.6317  0.5768  0.9401
15316TIP3   OH267438   0.442   4.941   5.447 -0.3093  0.1818  1.0519
15316TIP3    H167439   0.364   4.909   5.402  0.1680  0.4913 -0.0572
15316TIP3    H267440   0.428   5.036   5.453  0.7826  0.5338 -0.9239
15317TIP3   OH267441   4.337   3.138   5.817 -0.3135 -0.1468 -0.0765
15317TIP3    H167442   4.255   3.188   5.813 -0.4953 -0.5360 -2.4555
15317TIP3    H267443   4.326   3.069   5.752  2.2694  0.4079 -1.2343
15318TIP3   OH267444   6.005   3.467  15.808 -0.3109 -0.1607  0.3417
15318TIP3    H167445   5.970   3.552  15.782 -0.9490 -0.4199  0.3346
15318TIP3    H267446   5.973   3.406  15.741 -0.5183 -0.5368  0.7760
15319TIP3   OH267447   1.407   4.545  11.380 -0.3264  0.6655  0.4349
15319TIP3    H167448   1.349   4.589  11.318  1.3940  0.8800 -1.1323
15319TIP3    H267449   1.418   4.607  11.452 -0.8089  1.2715 -0.0024
15320TIP3   OH267450   3.472   0.325   4.077  0.2899  0.2111 -0.4206
15320TIP3    H167451   3.487   0.310   4.171  1.8205 -0.5893 -0.7637
15320TIP3    H267452   3.511   0.411   4.060  1.3431 -0.2834 -0.5899
15321TIP3   OH267453   1.226   5.934  12.082 -0.5192  0.0837 -0.2313
15321TIP3    H167454   1.281   5.944  12.160 -2.6909  4.0421  1.0480
15321TIP3    H267455   1.154   5.877  12.112 -0.2177 -0.2247 -0.0768
15322TIP3   OH267456   0.389   1.424   4.709 -0.3406 -0.4594 -0.2906
15322TIP3    H167457   0.376   1.512   4.674 -0.3604  0.7368  2.4347
15322TIP3    H267458   0.313   1.409   4.765  0.1177 -1.8334  0.0124
15323TIP3   OH267459   1.060   5.776   0.633 -0.3922 -0.1427  0.3029
15323TIP3    H167460   1.058   5.872   0.624  0.0891 -0.2880 -2.0141
15323TIP3    H267461   1.148   5.752   0.606 -1.2151 -1.3797 -1.4560
15324TIP3   OH267462   6.475   2.167   6.193 -0.1648  0.5229 -0.2026
15324TIP3    H167463   6.566   2.176   6.167 -0.4516  2.0925 -0.7879
15324TIP3    H267464   6.476   2.102   6.263  0.9650 -1.9619 -2.3812
15325TIP3   OH267465   1.889   0.948  14.951  0.7473  0.6124  0.4031
15325TIP3    H167466   1.952   0.877  14.964 -0.6086 -1.0250 -1.4503
15325TIP3    H267467   1.886   0.992  15.036  2.8818 -0.4661  1.1283
15326TIP3   OH267468   0.039   2.801   6.204 -0.2189 -0.1223 -0.1218
15326TIP3    H167469   0.120   2.793   6.254  0.0278  0.8526 -0.3491
15326TIP3    H267470  -0.027   2.761   6.260  0.3305 -0.4942  0.2760
15327TIP3   OH267471   1.054   0.326   4.460  0.1134 -0.0327 -0.0073
15327TIP3    H167472   1.032   0.323   4.367  2.5361  2.3889 -0.7993
15327TIP3    H267473   1.122   0.260   4.470 -0.4737 -0.6216  0.1962
15328TIP3   OH267474   1.429   4.676  12.667 -0.6425  0.3823 -0.0921
15328TIP3    H167475   1.423   4.711  12.756 -1.7903 -0.4686  0.1815
15328TIP3    H267476   1.523   4.681  12.645 -0.3161  0.3844  1.2466
15329TIP3   OH267477   2.897   4.935  14.246  0.3078  0.4590  0.1523
15329TIP3    H167478   2.823   4.993  14.264  1.0068  2.1653 -2.0258
15329TIP3    H267479   2.875   4.892  14.163 -0.3785 -2.8752  1.8789
15330TIP3   OH267480   2.131   2.166  11.596 -0.1373 -0.3115  0.0327
15330TIP3    H167481   2.150   2.080  11.633  2.3046  0.3113  0.3924
15330TIP3    H267482   2.204   2.183  11.536 -1.0953  1.0887 -0.7962
15331TIP3   OH267483   1.325   1.236  11.679 -0.2199 -0.0649 -0.0133
15331TIP3    H167484   1.338   1.167  11.744  2.2531  0.3636  0.0522
15331TIP3    H267485   1.252   1.206  11.626  0.0575 -2.1765  0.6988
15332TIP3   OH267486   6.586   4.405  13.498  0.1698  0.6663  0.6370
15332TIP3    H167487   6.584   4.363  13.412  0.6790 -0.1856  1.0237
15332TIP3    H267488   6.676   4.435  13.509  0.3499 -0.0616  1.2469
15333TIP3   OH267489   0.694   1.928  12.965 -0.3413  0.8261  0.4998
15333TIP3    H167490   0.741   1.858  12.920  0.6252  1.2044  0.9066
15333TIP3    H267491   0.609   1.932  12.919 -0.6317 -0.9361  0.7896
15334TIP3   OH267492   4.494   1.625  16.853 -0.2385 -0.2776 -0.0942
15334TIP3    H167493   4.489   1.597  16.762 -0.1971  0.2962 -0.2721
15334TIP3    H267494   4.586   1.642  16.869  0.3595 -3.7347  1.0827
15335TIP3   OH267495   4.728   3.693   2.091  0.9068  0.1745  0.8144
15335TIP3    H167496   4.655   3.723   2.145  2.2028 -0.0856  2.8453
15335TIP3    H267497   4.805   3.708   2.146  2.2300 -0.9419 -0.6568
15336TIP3   OH267498   0.751   3.237   4.098 -0.2254  0.8271  0.5011
15336TIP3    H167499   0.749   3.167   4.163  0.3400  1.4465  1.2062
15336TIP3    H267500   0.770   3.316   4.149  2.3680  1.0396 -0.6441
15337TIP3   OH267501   0.296   3.804  12.433 -0.1944  0.1910  0.4992
15337TIP3    H167502   0.310   3.878  12.493  1.7651  0.8589 -0.6947
15337TIP3    H267503   0.375   3.750  12.444 -0.0021  0.1054 -1.1569
15338TIP3   OH267504   4.047   5.603  11.460  0.0784 -0.0320  0.1038
15338TIP3    H167505   4.032   5.580  11.552  0.0832  0.8179  0.3282
15338TIP3    H267506   4.006   5.533  11.411  2.3482 -1.9363  0.7469
15339TIP3   OH267507   1.002   0.209  14.263  0.7622  0.2432 -0.2529
15339TIP3    H167508   0.958   0.185  14.344 -0.3703  0.2971 -0.8393
15339TIP3    H267509   1.014   0.304  14.270  1.0909  0.1834  0.0470
15340TIP3   OH267510   2.774   2.138  14.916 -0.4865  0.4612 -0.1436
15340TIP3    H167511   2.825   2.207  14.958 -1.7205  0.1441  2.0008
15340TIP3    H267512   2.829   2.060  14.924  0.7154  1.0056 -2.1822
15341TIP3   OH267513   1.035   0.355  13.227  0.0806  0.4387 -0.2948
15341TIP3    H167514   1.035   0.284  13.163  1.9586 -0.8685  1.0532
15341TIP3    H267515   1.128   0.376  13.239 -0.4035  2.8795 -0.3326
15342TIP3   OH267516   3.297   3.514   2.662 -0.0479 -0.1710  0.2891
15342TIP3    H167517   3.206   3.543   2.657 -0.2203 -0.9005 -2.5676
15342TIP3    H267518   3.334   3.563   2.735 -2.1043  1.9369  0.0275
15343TIP3   OH267519   2.280   2.223  12.536 -0.2344 -0.0739  0.6163
15343TIP3    H167520   2.362   2.192  12.575  0.0772  0.5416  0.4651
15343TIP3    H267521   2.239   2.277  12.603 -1.3448 -1.7020  1.3076
15344TIP3   OH267522   2.730   3.981  17.068 -0.0435 -0.7209 -0.2607
15344TIP3    H167523   2.757   3.970  16.977  2.4383  0.9863  0.1481
15344TIP3    H267524   2.787   3.920  17.116 -1.5578 -1.8436  0.1638
15345TIP3   OH267525   1.240   4.570   0.486  0.7871 -0.0522 -0.3261
15345TIP3    H167526   1.253   4.480   0.457  1.6146 -0.1753  0.3937
15345TIP3    H267527   1.296   4.622   0.430  1.8026 -0.2108  0.4973
15346TIP3   OH267528   6.094   6.303  13.223 -0.0386  0.0658  0.0823
15346TIP3    H167529   6.167   6.259  13.269  0.6848 -0.6503 -1.6669
15346TIP3    H267530   6.126   6.391  13.206  0.1872 -0.0626 -0.1609
15347TIP3   OH267531   2.714   3.830  16.263 -0.4184 -0.4123 -0.6478
15347TIP3    H167532   2.692   3.900  16.325 -0.9134 -1.0525 -0.0861
15347TIP3    H267533   2.790   3.863  16.216 -1.5031  1.1256 -1.4063
15348TIP3   OH267534   5.473   6.663  13.425  0.0005  0.1586 -0.4520
15348TIP3    H167535   5.529   6.599  13.383 -0.0883 -0.5046  0.4115
15348TIP3    H267536   5.418   6.612  13.485 -1.0234  0.8777 -0.7460
15349TIP3   OH267537   3.721   3.666  15.850 -0.3257 -0.9658  0.2802
15349TIP3    H167538   3.689   3.626  15.769 -1.0078  0.2382 -0.0744
15349TIP3    H267539   3.809   3.631  15.861 -0.3621 -1.4319 -0.7940
15350TIP3   OH267540   6.289   5.418  15.389  0.0441  0.1423 -0.0488
15350TIP3    H167541   6.311   5.421  15.296 -0.6710 -0.4467 -0.2502
15350TIP3    H267542   6.203   5.375  15.391  0.0168  0.2342  0.8761
15351TIP3   OH267543   6.094   6.283   2.328  0.2588 -0.7597  0.4936
15351TIP3    H167544   6.141   6.246   2.253 -0.0260 -0.1848  0.0232
15351TIP3    H267545   6.151   6.353   2.359  0.5693 -1.2588  1.0811
15352TIP3   OH267546   6.789   6.360  16.599 -0.1767 -0.0786  0.2433
15352TIP3    H167547   6.871   6.397  16.630 -0.1975 -0.5387  0.8665
15352TIP3    H267548   6.815   6.295  16.534 -0.1492  1.1305 -1.0007
15353TIP3   OH267549   5.136   2.691   4.652 -0.5842  0.7659 -0.2319
15353TIP3    H167550   5.150   2.779   4.686  1.2867 -0.0571  1.3459
15353TIP3    H267551   5.210   2.675   4.593 -1.0135  0.3293 -0.6610
15354TIP3   OH267552   5.449   3.150   0.323  0.2681  0.4410 -0.0458
15354TIP3    H167553   5.435   3.057   0.307 -1.1212  0.7113 -0.5611
15354TIP3    H267554   5.459   3.157   0.418  0.9813 -0.2906 -0.0539
15355TIP3   OH267555   5.352   2.936   0.533  0.0995 -0.5262  0.0124
15355TIP3    H167556   5.298   2.857   0.530 -0.7753  0.0626 -0.5476
15355TIP3    H267557   5.289   3.008   0.528  0.8146  0.2351  1.3926
15356TIP3   OH267558   1.191   1.567   0.307 -0.6951 -0.0591 -0.2357
15356TIP3    H167559   1.221   1.614   0.229  2.1272 -0.5131  0.4829
15356TIP3    H267560   1.199   1.475   0.284  0.1774 -0.1976  0.5664
15357TIP3   OH267561   2.881   6.742  12.187  0.3801 -0.4991  0.2002
15357TIP3    H167562   2.915   6.767  12.273  1.6006 -0.7541 -0.1989
15357TIP3    H267563   2.954   6.755  12.127 -0.7856  0.8047 -1.0214
15358TIP3   OH267564   3.631   3.377   4.761  0.0930  0.0564  0.1359
15358TIP3    H167565   3.626   3.285   4.786  1.1662 -0.0668 -0.0518
15358TIP3    H267566   3.654   3.376   4.668 -1.1912  0.5204 -0.2096
15359TIP3   OH267567   5.403   3.174   4.642  0.2218 -0.2802  0.2206
15359TIP3    H167568   5.454   3.153   4.721 -0.4940  0.3155  0.8609
15359TIP3    H267569   5.384   3.267   4.650 -0.4071 -0.3547 -0.3358
15360TIP3   OH267570   0.090   6.165  13.034 -0.0153  0.4186  1.0105
15360TIP3    H167571   0.019   6.110  13.067  1.3268 -1.9193  0.2246
15360TIP3    H267572   0.060   6.192  12.947 -0.5966  0.8156  1.3218
15361TIP3   OH267573   4.086   5.070  11.796 -0.2141  0.9397 -0.1590
15361TIP3    H167574   4.020   5.019  11.748 -0.5828  2.4027 -1.2856
15361TIP3    H267575   4.035   5.137  11.842  0.3891  1.2097  0.1181
15362TIP3   OH267576   2.780   3.016   5.067  0.2511  0.2720  0.2040
15362TIP3    H167577   2.704   3.069   5.088  0.4842  0.8492 -0.4139
15362TIP3    H267578   2.854   3.064   5.104  0.5500  0.7790 -1.0341
15363TIP3   OH267579   5.790   6.626  14.397 -0.1241 -0.2428 -0.1706
15363TIP3    H167580   5.720   6.691  14.395  1.3919  1.5557  1.3873
15363TIP3    H267581   5.782   6.585  14.482  1.6600  1.2022  0.7686
15364TIP3   OH267582   2.817   3.834  13.826 -0.0676 -0.6679  0.6465
15364TIP3    H167583   2.908   3.863  13.810 -0.0534 -1.0721 -0.0545
15364TIP3    H267584   2.819   3.798  13.914  1.2272 -3.5774 -0.4388
15365TIP3   OH267585   3.121   2.530   3.359 -0.2087  0.4885  0.1936
15365TIP3    H167586   3.192   2.594   3.360 -0.9834  1.3636  1.1435
15365TIP3    H267587   3.044   2.578   3.389 -1.0849 -0.5938 -0.2215
15366TIP3   OH267588   0.844   5.226   1.974  0.0748 -0.3274  0.0319
15366TIP3    H167589   0.767   5.251   2.024 -0.3778 -0.1690 -0.7238
15366TIP3    H267590   0.909   5.201   2.040 -1.0324 -1.7171  0.6352
15367TIP3   OH267591   5.094   5.378  13.114  0.0565  0.3160 -0.4574
15367TIP3    H167592   5.051   5.315  13.172  0.6308 -0.1761 -0.5562
15367TIP3    H267593   5.056   5.463  13.139  1.0877  0.2850  1.4241
15368TIP3   OH267594   3.134   3.283   1.306 -0.2682  0.1310 -0.6091
15368TIP3    H167595   3.140   3.288   1.401 -0.3450 -0.4640 -0.5644
15368TIP3    H267596   3.183   3.358   1.274 -1.1932  0.9777 -0.0768
15369TIP3   OH267597   0.861   6.816  16.633 -0.8142 -0.4060 -0.1643
15369TIP3    H167598   0.879   6.866  16.553 -0.0059  1.6545  1.2286
15369TIP3    H267599   0.800   6.870  16.682 -0.1103 -0.8973  1.3030
15370TIP3   OH267600   0.091   4.128  17.262  0.1880  0.2184 -0.4870
15370TIP3    H167601   0.180   4.144  17.292  0.1633  0.9551 -0.7849
15370TIP3    H267602   0.064   4.210  17.221 -0.6229 -0.0009 -0.4153
15371TIP3   OH267603   3.607   4.292  12.313 -0.9627  0.0645  0.5293
15371TIP3    H167604   3.533   4.320  12.259  1.2361  2.6633 -1.4050
15371TIP3    H267605   3.670   4.257  12.251 -0.2475 -1.4905  2.0576
15372TIP3   OH267606   5.271   1.661   2.123 -0.2847 -0.2141 -0.0326
15372TIP3    H167607   5.362   1.682   2.102  0.1494 -0.1754  1.7098
15372TIP3    H267608   5.277   1.597   2.195 -1.6322 -1.4567 -0.9576
15373TIP3   OH267609   4.216   2.807   1.729  0.2225 -0.0013 -0.4576
15373TIP3    H167610   4.121   2.814   1.739  0.3282  2.8052 -0.7263
15373TIP3    H267611   4.252   2.857   1.801  1.4685  0.3166 -1.2673
15374TIP3   OH267612   2.733   2.597   2.707 -0.8181 -0.0441  0.4446
15374TIP3    H167613   2.666   2.572   2.643  0.2339  1.0573 -1.1476
15374TIP3    H267614   2.710   2.686   2.733 -0.3094  0.1233  0.3297
15375TIP3   OH267615   5.072   0.983   0.894 -0.0960  0.2632 -0.5201
15375TIP3    H167616   5.063   1.011   0.985 -0.2307 -0.8408 -0.1818
15375TIP3    H267617   4.981   0.970   0.864 -0.0607  0.7665 -0.8719
15376TIP3   OH267618   5.497   6.799  16.256 -0.1024  0.0643  0.8162
15376TIP3    H167619   5.534   6.887  16.265  0.3001 -0.0276  0.1152
15376TIP3    H267620   5.503   6.763  16.344 -0.4776  0.8139  1.1634
15377TIP3   OH267621   2.794   4.847  15.432  0.1713  0.5627 -0.0522
15377TIP3    H167622   2.751   4.803  15.505 -0.4699  1.6576  0.2445
15377TIP3    H267623   2.822   4.776  15.374 -1.5310 -0.1948  0.0251
15378TIP3   OH267624   0.534   1.382   5.356  0.0746 -0.4485 -0.2786
15378TIP3    H167625   0.610   1.367   5.300  0.4698 -0.8710  0.3559
15378TIP3    H267626   0.568   1.376   5.445 -0.4684  0.5883  0.0238
15379TIP3   OH267627   3.546   2.564  17.173  0.4019 -0.5841  0.3239
15379TIP3    H167628   3.512   2.481  17.208 -0.3912 -1.0303 -1.4061
15379TIP3    H267629   3.502   2.632  17.223  0.4029 -1.1934  1.1682
15380TIP3   OH267630   4.074   6.694   5.923  0.7936  0.3508 -0.3235
15380TIP3    H167631   4.140   6.704   5.992 -0.0728 -2.1928  1.0017
15380TIP3    H267632   4.118   6.642   5.856  0.4312 -0.6119  0.1712
15381TIP3   OH267633   3.914   2.706  14.435 -0.0443  0.8042 -0.0988
15381TIP3    H167634   3.836   2.666  14.395  0.9971 -0.6346 -0.8173
15381TIP3    H267635   3.980   2.705  14.365  1.2628 -0.0310  1.0831
15382TIP3   OH267636   3.100   6.373  14.702 -0.0671  0.6163  0.4111
15382TIP3    H167637   3.151   6.422  14.767 -2.4916  0.8817  2.2362
15382TIP3    H267638   3.150   6.292  14.688  0.8663  0.8597  2.1205
15383TIP3   OH267639   0.927   3.999   5.806  0.1513  0.2626  0.7907
15383TIP3    H167640   0.832   4.008   5.805  0.0337 -0.4247  2.4017
15383TIP3    H267641   0.947   3.941   5.732 -0.4562  1.9331 -0.7466
15384TIP3   OH267642   5.460   3.010  11.090  0.2932  0.0804 -0.1860
15384TIP3    H167643   5.479   2.929  11.136 -0.6672 -0.0873 -0.0674
15384TIP3    H267644   5.374   2.996  11.050  0.8653  0.4228 -1.5832
15385TIP3   OH267645   1.984   5.535  15.801 -0.4729 -0.3894 -0.0213
15385TIP3    H167646   1.977   5.461  15.741  3.1538 -0.3792 -0.6583
15385TIP3    H267647   1.949   5.609  15.752 -0.1576 -0.8937 -1.0400
15386TIP3   OH267648   2.495   3.799   1.481  0.3918 -0.0060  0.1224
15386TIP3    H167649   2.482   3.786   1.387  0.5460  0.5462  0.0247
15386TIP3    H267650   2.467   3.889   1.498 -0.6991 -0.4566  0.8083
15387TIP3   OH267651   2.088   1.463   5.707 -0.5279 -0.0602 -0.0324
15387TIP3    H167652   2.148   1.506   5.646 -0.2237  0.5455  0.6734
15387TIP3    H267653   2.046   1.536   5.754  0.0133 -0.5326  1.2110
15388TIP3   OH267654   5.752   2.796  14.818 -0.0410  0.7757  0.7387
15388TIP3    H167655   5.824   2.772  14.760  0.0158  1.3560  0.5667
15388TIP3    H267656   5.760   2.736  14.892 -2.3877 -2.7716 -1.5347
15389TIP3   OH267657   1.425   5.532   0.621  0.0996  0.4563  0.2928
15389TIP3    H167658   1.516   5.528   0.649  0.6755  0.4091 -1.4597
15389TIP3    H267659   1.389   5.446   0.644  1.1100 -0.3126 -0.8734
15390TIP3   OH267660   5.652   6.183   0.129  0.7602 -0.4732  0.1931
15390TIP3    H167661   5.589   6.254   0.118  0.2056 -1.1808 -1.4204
15390TIP3    H267662   5.719   6.220   0.186  0.5739  1.3974 -0.7302
15391TIP3   OH267663   3.905   5.159  11.516  0.4440  0.2665  0.0220
15391TIP3    H167664   4.000   5.144  11.509  0.0652 -1.9282 -1.1575
15391TIP3    H267665   3.883   5.206  11.435 -0.1499 -3.8029 -2.4825
15392TIP3   OH267666   3.738   6.213  16.419 -0.1513 -0.0376 -0.4271
15392TIP3    H167667   3.750   6.147  16.487 -0.3118  1.6402  1.2864
15392TIP3    H267668   3.649   6.197  16.386  0.2333 -1.3907 -0.8611
15393TIP3   OH267669   5.447   4.194  12.502 -1.1147 -0.6739 -0.0356
15393TIP3    H167670   5.436   4.166  12.593 -1.4494 -1.0255 -0.1811
15393TIP3    H267671   5.488   4.118  12.458 -2.9474 -1.3525 -0.6601
15394TIP3   OH267672   3.264   0.480  11.735 -0.1834 -0.5118  0.0667
15394TIP3    H167673   3.308   0.437  11.808  0.5282 -0.2858 -0.2209
15394TIP3    H267674   3.324   0.471  11.662  0.8719  2.5258  0.4008
15395TIP3   OH267675   4.960   3.402  17.072 -0.0201 -0.2224  0.2244
15395TIP3    H167676   4.910   3.360  17.001  0.0830 -0.8447  0.5137
15395TIP3    H267677   4.941   3.495  17.062  0.4476 -0.2270 -0.9902
15396TIP3   OH267678   2.263   3.708   5.777  0.1522  0.5993  0.3286
15396TIP3    H167679   2.180   3.700   5.731 -0.1822  0.6607  0.9035
15396TIP3    H267680   2.239   3.735   5.866  0.7722  0.4127  0.5631
15397TIP3   OH267681   0.383   0.106   4.826  0.1818 -0.0202  0.3091
15397TIP3    H167682   0.361   0.199   4.825  1.0100  0.2224  2.0952
15397TIP3    H267683   0.472   0.102   4.793 -0.3574 -0.3716 -1.1832
15398TIP3   OH267684   6.032   4.909  14.130  0.7115 -0.7712  0.0891
15398TIP3    H167685   6.011   4.983  14.073  1.0773 -0.2489  0.6184
15398TIP3    H267686   6.031   4.946  14.219  0.5397 -1.4836  0.3915
15399TIP3   OH267687   3.485   6.163   1.138 -0.6341  0.2042 -0.1334
15399TIP3    H167688   3.559   6.210   1.099 -0.1260  0.8011  1.4865
15399TIP3    H267689   3.516   6.073   1.147 -0.1978  0.3987  0.3110
15400TIP3   OH267690   3.901   1.679  11.931 -0.0077  0.1395 -0.5876
15400TIP3    H167691   3.898   1.774  11.920  0.4812  0.2133 -0.1216
15400TIP3    H267692   3.843   1.662  12.006 -1.2361 -0.0875 -1.5561
15401TIP3   OH267693   3.804   3.600   2.963  0.3112  0.2748 -0.0573
15401TIP3    H167694   3.862   3.606   2.887  1.8644  2.3732  1.1681
15401TIP3    H267695   3.821   3.514   3.000 -0.5682 -0.8356 -2.0974
15402TIP3   OH267696   5.824   6.717  15.515  0.0926  0.3098 -0.5290
15402TIP3    H167697   5.816   6.623  15.530 -1.4746  0.1962 -1.8753
15402TIP3    H267698   5.894   6.744  15.574  0.7773 -1.7377 -0.3169
15403TIP3   OH267699   0.324   4.250  14.152 -0.1813 -0.1081 -0.2576
15403TIP3    H167700   0.295   4.307  14.080  1.0086 -1.1941 -1.6555
15403TIP3    H267701   0.249   4.247  14.211 -1.6818 -0.1031 -2.0550
15404TIP3   OH267702   3.528   4.956  13.395 -0.4241  0.4377 -0.4920
15404TIP3    H167703   3.519   5.043  13.435  0.0789  1.5172 -2.5649
15404TIP3    H267704   3.443   4.915  13.408 -1.3368  2.0298 -1.1570
15405TIP3   OH267705   5.987   2.732  14.621 -0.3136  0.0871  0.5816
15405TIP3    H167706   6.021   2.735  14.532 -0.0146  2.3618  0.7084
15405TIP3    H267707   6.059   2.767  14.675 -0.7004 -0.7139  1.6513
15406TIP3   OH267708   3.155   1.933   0.524 -0.2294  0.1065 -0.0201
15406TIP3    H167709   3.187   1.866   0.584 -1.2950  1.1593  1.8434
15406TIP3    H267710   3.106   1.885   0.457  1.5568 -1.1534 -0.4815
15407TIP3   OH267711   6.443   3.202   4.576 -0.5498 -0.2368 -0.1487
15407TIP3    H167712   6.399   3.245   4.503 -0.0492  0.3911 -0.0905
15407TIP3    H267713   6.440   3.266   4.647 -0.7328 -0.7108  0.2843
15408TIP3   OH267714   4.404   2.204   0.264  0.0833 -0.7718 -0.1645
15408TIP3    H167715   4.466   2.171   0.329 -0.6453 -0.1764  0.8733
15408TIP3    H267716   4.451   2.276   0.221  0.3342 -0.7113  0.2013
15409TIP3   OH267717   4.994   4.197  15.375 -0.4040 -0.8428 -0.0190
15409TIP3    H167718   4.945   4.182  15.294 -0.5925  2.3663 -0.6087
15409TIP3    H267719   5.084   4.174  15.352 -0.1338  1.6023 -1.7984
15410TIP3   OH267720   3.514   1.122   3.189 -0.5708  0.1514  0.0703
15410TIP3    H167721   3.601   1.109   3.226  0.2045 -0.4106 -1.8088
15410TIP3    H267722   3.460   1.152   3.262  1.4432  1.5513  1.0644
15411TIP3   OH267723   0.894   5.629  13.942 -0.6300 -0.0073 -0.2594
15411TIP3    H167724   0.895   5.537  13.913 -2.2581  0.1985 -1.1037
15411TIP3    H267725   0.810   5.662  13.912 -0.6919  1.3793  1.3262
15412TIP3   OH267726   6.551   6.018  13.872 -0.3700  0.1750 -0.3498
15412TIP3    H167727   6.604   5.963  13.930 -0.0240 -0.4813 -1.2700
15412TIP3    H267728   6.485   5.959  13.836  0.8197 -0.0306 -2.3786
15413TIP3   OH267729   3.570   6.472  15.834  0.2725  0.1967  0.1111
15413TIP3    H167730   3.601   6.561  15.850 -0.9590  0.6071  0.2705
15413TIP3    H267731   3.598   6.454  15.744  2.8602 -0.2875  0.9138
15414TIP3   OH267732   5.067   2.686   0.363  0.2558  0.2803 -0.1366
15414TIP3    H167733   5.086   2.779   0.375  0.6807  0.2039 -0.2075
15414TIP3    H267734   5.020   2.682   0.280 -0.4973  0.5235  0.2639
15415TIP3   OH267735   2.693   5.945  14.337 -0.2066  0.0777 -0.3814
15415TIP3    H167736   2.745   5.909  14.409  0.1376  0.9878 -0.1655
15415TIP3    H267737   2.666   6.031  14.367 -1.3202 -0.1221 -0.7500
15416TIP3   OH267738   0.576   6.229   0.419 -0.2362 -0.5254 -0.3854
15416TIP3    H167739   0.653   6.243   0.474 -1.6809  2.5592  1.1243
15416TIP3    H267740   0.570   6.134   0.409  1.1509 -1.1694  3.3425
15417TIP3   OH267741   1.663   0.513  10.802  0.6281  0.8485  0.5526
15417TIP3    H167742   1.611   0.459  10.742  0.9067  0.2434  0.8459
15417TIP3    H267743   1.670   0.460  10.881 -0.1992  1.8564  1.3316
15418TIP3   OH267744   3.105   1.485  16.778  0.3861 -0.1885  0.0775
15418TIP3    H167745   3.085   1.554  16.841 -0.1618 -0.5083  0.2578
15418TIP3    H267746   3.195   1.502  16.751  1.0573 -0.7458  1.8452
15419TIP3   OH267747   3.447   1.752  13.162  0.5020 -0.4673  0.0933
15419TIP3    H167748   3.378   1.686  13.174 -2.9318  2.2435 -2.4876
15419TIP3    H267749   3.515   1.707  13.113 -0.5271 -2.6972  0.5752
15420TIP3   OH267750   3.151   3.131   4.945  0.1166  0.1833  0.5175
15420TIP3    H167751   3.225   3.192   4.957  0.5534 -0.2945  0.2858
15420TIP3    H267752   3.133   3.098   5.033  1.8685 -1.6336  0.2797
15421TIP3   OH267753   2.292   4.921  15.089 -0.3029 -0.5881 -0.4910
15421TIP3    H167754   2.380   4.950  15.111 -0.8858  0.3167  0.7580
15421TIP3    H267755   2.290   4.829  15.114  0.0986 -0.4456  0.0943
15422TIP3   OH267756   6.589   1.901   0.567 -0.2933 -0.0932  0.3262
15422TIP3    H167757   6.569   1.865   0.481 -1.6629  0.1197  0.5326
15422TIP3    H267758   6.639   1.981   0.548 -0.7725  0.0754 -0.2973
15423TIP3   OH267759   3.082   6.063   2.838 -0.3500 -0.3558  0.4142
15423TIP3    H167760   3.124   6.027   2.760 -1.9636 -1.5041  0.0083
15423TIP3    H267761   3.054   6.151   2.813  3.1485  1.1450  1.2310
15424TIP3   OH267762   1.987   4.049  10.687  0.0473 -0.4418 -0.5918
15424TIP3    H167763   1.931   4.082  10.758 -0.5250  0.5724 -1.4829
15424TIP3    H267764   2.076   4.051  10.724 -0.5542 -3.8694  1.5230
15425TIP3   OH267765   4.078   4.574  12.035 -0.0941  0.2097 -0.3474
15425TIP3    H167766   4.086   4.479  12.043 -1.5017  0.0818 -0.3629
15425TIP3    H267767   4.100   4.593  11.944  0.8847 -0.0008 -0.1722
15426TIP3   OH267768   5.679   2.663   5.629  0.1695  0.2075  0.0350
15426TIP3    H167769   5.586   2.673   5.610 -0.5094 -2.2949  1.5712
15426TIP3    H267770   5.692   2.710   5.711  0.1879  0.2443  0.0110
15427TIP3   OH267771   3.773   4.248   2.768 -0.1312  0.2170 -0.4054
15427TIP3    H167772   3.794   4.340   2.755 -1.0757  0.5882  0.5962
15427TIP3    H267773   3.807   4.227   2.855  1.0896 -0.7067 -1.0740
15428TIP3   OH267774   6.167   5.941   1.584  0.5831  0.9769 -0.0741
15428TIP3    H167775   6.168   6.024   1.536  0.6982  1.6499  1.0650
15428TIP3    H267776   6.171   5.874   1.515  0.3825  1.9013 -1.0165
15429TIP3   OH267777   6.228   1.234   4.878  0.2025  0.4727  0.6687
15429TIP3    H167778   6.252   1.260   4.967 -0.2830  1.0380  0.6403
15429TIP3    H267779   6.290   1.164   4.856  0.3861  0.3917  1.4118
15430TIP3   OH267780   2.022   1.441   1.341 -0.7059 -0.1865 -0.0207
15430TIP3    H167781   2.059   1.383   1.408 -0.5339 -0.2267 -0.1488
15430TIP3    H267782   2.080   1.517   1.342  0.7931 -1.2127 -1.8166
15431TIP3   OH267783   1.085   3.664  14.978  0.3764  0.1071  0.8316
15431TIP3    H167784   1.113   3.755  14.987  2.4037 -0.3777 -0.1277
15431TIP3    H267785   1.147   3.626  14.916 -0.9639 -1.7161  0.5521
15432TIP3   OH267786   3.607   2.459   3.489 -0.0315 -0.2904  0.2412
15432TIP3    H167787   3.584   2.469   3.397  0.6863 -0.4779  0.0329
15432TIP3    H267788   3.698   2.488   3.495  0.0720 -0.7026  0.8035
15433TIP3   OH267789   2.109   0.775   1.361  0.2168  0.3855 -0.0496
15433TIP3    H167790   2.098   0.852   1.304  1.0563  1.6813  1.4669
15433TIP3    H267791   2.027   0.726   1.351 -0.3605  1.4926 -1.0291
15434TIP3   OH267792   2.564   3.067  13.769  0.0630 -0.6131  0.0167
15434TIP3    H167793   2.638   3.063  13.709  0.5918 -3.0420  0.7504
15434TIP3    H267794   2.509   3.138  13.734  2.1943  0.5846 -1.1067
15435TIP3   OH267795   2.313   0.840  17.027 -0.5111 -0.1490  0.5100
15435TIP3    H167796   2.316   0.827  17.122 -1.0825  1.1359  0.7210
15435TIP3    H267797   2.275   0.759  16.993 -1.5460 -0.1043  1.5009
15436TIP3   OH267798   0.636   6.125  13.795 -0.0368  0.5161 -0.0140
15436TIP3    H167799   0.681   6.181  13.732 -1.1174  0.6093 -0.7312
15436TIP3    H267800   0.698   6.054  13.812 -0.0974 -0.0996 -2.0309
15437TIP3   OH267801   4.223   2.200   1.619 -0.5218 -0.1144  0.5108
15437TIP3    H167802   4.213   2.225   1.711  1.1030  0.9667  0.4396
15437TIP3    H267803   4.294   2.135   1.620  0.0898  0.5242 -0.0357
15438TIP3   OH267804   2.239   3.408   2.098  0.1949  0.1718 -0.4752
15438TIP3    H167805   2.207   3.498   2.091  0.2082  0.4181  1.7502
15438TIP3    H267806   2.163   3.353   2.080  0.0762  0.6229 -1.3892
15439TIP3   OH267807   6.618   6.362   3.258 -0.1128 -0.0318  0.1612
15439TIP3    H167808   6.663   6.280   3.236  1.0299  0.2506  1.3244
15439TIP3    H267809   6.677   6.407   3.318 -1.3044  1.0580  0.5779
15440TIP3   OH267810   0.314   3.588  12.749 -0.1679 -0.4148 -0.2721
15440TIP3    H167811   0.407   3.580  12.772 -0.4993 -1.4607  0.8192
15440TIP3    H267812   0.294   3.680  12.764  0.2929 -0.5160  1.2076
15441TIP3   OH267813   0.765   1.657  16.444 -0.1339 -1.0378 -0.1003
15441TIP3    H167814   0.737   1.630  16.357  0.9332 -1.2487 -0.3935
15441TIP3    H267815   0.753   1.752  16.445 -0.8475 -1.1211 -0.2063
15442TIP3   OH267816   5.049   6.517   2.429 -0.4873  0.4103  0.5297
15442TIP3    H167817   4.957   6.532   2.406  0.2445  1.4880 -2.0628
15442TIP3    H267818   5.073   6.593   2.481 -0.8128  0.6417  0.3484
15443TIP3   OH267819   5.580   5.345  13.646 -0.1880  0.2053 -0.1305
15443TIP3    H167820   5.584   5.314  13.736 -2.2513  1.1044  0.3318
15443TIP3    H267821   5.620   5.432  13.649  0.1527  0.0543 -0.1954
15444TIP3   OH267822   4.907   5.206  14.864  0.1425 -0.0408 -0.3764
15444TIP3    H167823   5.000   5.205  14.841  0.0216  0.4747 -0.8966
15444TIP3    H267824   4.907   5.221  14.959  0.6071 -1.1706 -0.1716
15445TIP3   OH267825   3.781   2.426   0.637 -0.6172  0.2777 -0.7109
15445TIP3    H167826   3.732   2.505   0.662 -0.5829 -0.2162  1.0660
15445TIP3    H267827   3.735   2.354   0.681  0.7851 -0.3776 -0.2450
15446TIP3   OH267828   6.235   1.247   3.517  0.8960 -0.3569 -0.2140
15446TIP3    H167829   6.294   1.243   3.592  0.4809 -2.2877  0.0712
15446TIP3    H267830   6.257   1.329   3.473  2.1427  0.1089  1.1994
15447TIP3   OH267831   4.227   0.978   1.484  0.3062 -0.0257  0.0289
15447TIP3    H167832   4.180   1.057   1.459  0.8546  0.1266 -0.5351
15447TIP3    H267833   4.198   0.912   1.420  0.2672 -0.1421  0.1644
15448TIP3   OH267834   3.258   2.153  10.998 -0.7388  0.6020  0.5881
15448TIP3    H167835   3.297   2.066  11.009 -1.2879  0.3790  0.8224
15448TIP3    H267836   3.331   2.214  11.008 -0.2859  0.1560  0.0618
15449TIP3   OH267837   1.162   4.124  17.112 -0.1145 -0.2904 -0.2143
15449TIP3    H167838   1.214   4.126  17.193  1.3661 -1.2024 -1.1158
15449TIP3    H267839   1.133   4.033  17.104 -0.3755 -0.1723 -0.6404
15450TIP3   OH267840   6.416   5.828   4.973 -0.0628  0.0735  0.3259
15450TIP3    H167841   6.391   5.912   4.933 -0.1640  0.2884  0.8391
15450TIP3    H267842   6.346   5.809   5.035  0.8675  0.5330  1.5667
15451TIP3   OH267843   0.181   4.455   4.219  0.4438 -0.8171 -0.0546
15451TIP3    H167844   0.269   4.426   4.243  0.7620 -0.3254 -0.6051
15451TIP3    H267845   0.183   4.462   4.124  1.2256  3.4753  0.0648
15452TIP3   OH267846   1.342   6.173  14.609  0.2777 -0.2182 -0.5559
15452TIP3    H167847   1.395   6.196  14.685 -0.9461 -1.4292  0.7271
15452TIP3    H267848   1.282   6.247  14.599  0.4210 -0.0678 -0.3206
15453TIP3   OH267849   5.042   2.522  12.254 -0.0041 -0.1740 -0.2936
15453TIP3    H167850   5.128   2.483  12.266 -0.4605 -0.8268  0.9790
15453TIP3    H267851   5.014   2.492  12.168  0.5523 -0.9024 -0.2286
15454TIP3   OH267852   5.139   6.766  16.447  0.5714 -0.7116 -0.4643
15454TIP3    H167853   5.137   6.829  16.376  2.9049  0.1053  0.1155
15454TIP3    H267854   5.129   6.819  16.526  0.4477 -1.3202 -0.0627
15455TIP3   OH267855   3.329   2.103   1.899  0.0083  0.2159 -0.7801
15455TIP3    H167856   3.275   2.103   1.978  0.6776  0.6648 -0.3084
15455TIP3    H267857   3.270   2.074   1.829 -0.3655 -1.1171  0.0370
15456TIP3   OH267858   1.714   5.647  15.356  0.0453  0.0305 -0.0292
15456TIP3    H167859   1.675   5.588  15.421 -0.4079 -0.5331 -0.7926
15456TIP3    H267860   1.747   5.588  15.288  1.3255  0.5653  0.1092
15457TIP3   OH267861   1.827   2.451  15.028 -0.6626 -0.3744 -0.2376
15457TIP3    H167862   1.748   2.459  15.082  0.4440  1.6068  1.1764
15457TIP3    H267863   1.808   2.506  14.951 -0.9758 -0.6294 -0.3501
15458TIP3   OH267864   4.254   4.618  17.026 -0.4562 -0.5672  0.0478
15458TIP3    H167865   4.161   4.637  17.016 -0.4346 -0.0315  0.6997
15458TIP3    H267866   4.298   4.698  16.996 -0.2647 -0.3833  0.7760
15459TIP3   OH267867   2.776   1.621   5.565 -0.0740 -0.6165  0.0233
15459TIP3    H167868   2.850   1.620   5.503  0.9756  1.9327  1.1223
15459TIP3    H267869   2.714   1.683   5.528  0.0548  0.0871  0.9671
15460TIP3   OH267870   3.937   1.636   3.135 -0.2437  0.4009  0.2316
15460TIP3    H167871   3.958   1.547   3.107 -0.4561  0.8647 -1.5239
15460TIP3    H267872   3.844   1.633   3.158  0.1188 -0.1684  1.7749
15461TIP3   OH267873   0.828   4.364   3.204  0.1313 -0.4099  0.0009
15461TIP3    H167874   0.837   4.399   3.293  1.0479  2.3662 -1.0676
15461TIP3    H267875   0.917   4.337   3.180  0.2013  0.3636 -0.6226
15462TIP3   OH267876   2.587   0.056   3.332  0.0065 -0.0753  0.2656
15462TIP3    H167877   2.625  -0.013   3.278 -0.0026 -0.4294  0.7018
15462TIP3    H267878   2.510   0.015   3.372 -0.6572  0.5378 -0.3636
15463TIP3   OH267879   4.090   5.582  16.007 -0.2696  0.0565  0.5696
15463TIP3    H167880   4.074   5.600  16.100  1.2934  0.7609  0.7297
15463TIP3    H267881   4.037   5.648  15.961 -0.3830  0.2601  0.9816
15464TIP3   OH267882   1.360   0.747  15.040 -0.4384 -0.6497  0.2073
15464TIP3    H167883   1.343   0.697  14.959  1.4682 -1.3367  0.1890
15464TIP3    H267884   1.329   0.835  15.020  1.1384 -0.4762 -1.7750
15465TIP3   OH267885   5.447   5.560  15.490 -0.7143 -0.1776  0.3222
15465TIP3    H167886   5.520   5.507  15.458 -0.2213 -0.6913  2.1924
15465TIP3    H267887   5.416   5.607  15.412  2.4901  1.1411 -0.3420
15466TIP3   OH267888   3.271   3.326   2.032  0.2678  0.0558 -0.4665
15466TIP3    H167889   3.259   3.419   2.052  1.1148  0.1368 -0.3112
15466TIP3    H267890   3.283   3.285   2.117 -1.0999 -0.3676 -0.4463
15467TIP3   OH267891   5.458   6.711   4.374  0.4495  0.4753  0.0977
15467TIP3    H167892   5.451   6.653   4.298 -0.4024  0.4768  0.1602
15467TIP3    H267893   5.402   6.670   4.440 -2.2604  2.6180 -0.6843
15468TIP3   OH267894   2.227   2.196   1.671  0.8354  0.7133 -0.6785
15468TIP3    H167895   2.136   2.215   1.691  0.6752  1.8181 -2.3239
15468TIP3    H267896   2.247   2.248   1.593  2.5915 -0.2466 -0.9340
15469TIP3   OH267897   1.500   5.226  14.295  0.0583 -0.2667 -0.2225
15469TIP3    H167898   1.561   5.154  14.279 -0.4860 -0.9926  0.8291
15469TIP3    H267899   1.489   5.227  14.390 -1.0406  0.2825 -0.3413
15470TIP3   OH267900   3.279   4.855   2.855  0.2377 -0.0221  0.0525
15470TIP3    H167901   3.250   4.942   2.827  1.5214  0.0511 -1.1836
15470TIP3    H267902   3.267   4.855   2.950 -0.6146  1.1695 -0.0297
15471TIP3   OH267903   3.506   0.431   0.905 -0.4733 -0.3573 -0.0478
15471TIP3    H167904   3.440   0.394   0.846 -1.8131  0.9083  0.5945
15471TIP3    H267905   3.486   0.392   0.990  2.4136 -3.4005 -0.5744
15472TIP3   OH267906   1.280   2.759   3.653  0.0597  0.1518 -0.4106
15472TIP3    H167907   1.275   2.835   3.595 -1.0193  1.4493  1.2823
15472TIP3    H267908   1.287   2.684   3.594 -3.4382  1.1472 -2.3638
15473TIP3   OH267909   0.062   2.809  11.019  0.1580 -0.2431 -0.0764
15473TIP3    H167910  -0.018   2.806  11.072 -0.6325  3.2758 -0.7940
15473TIP3    H267911   0.032   2.836  10.933  2.0726  1.1299 -0.3820
15474TIP3   OH267912   5.961   0.209   3.718  0.6318  0.3294  0.2878
15474TIP3    H167913   5.985   0.300   3.701 -0.6797  0.5889 -0.3026
15474TIP3    H267914   5.886   0.193   3.661  0.9296 -1.1691  0.2824
15475TIP3   OH267915   0.306   1.139   1.483  0.4651  0.2617  0.4271
15475TIP3    H167916   0.349   1.117   1.401 -0.4477  2.6361 -0.7933
15475TIP3    H267917   0.216   1.161   1.459  0.2573  1.3454  1.9807
15476TIP3   OH267918   3.000   1.267   1.399  0.0436 -0.0791  0.1967
15476TIP3    H167919   3.075   1.254   1.340  0.7686  0.7246  0.9209
15476TIP3    H267920   2.966   1.178   1.412  1.3149 -0.5638  0.4291
15477TIP3   OH267921   1.772   5.988  11.843 -0.2677 -0.3411 -0.4699
15477TIP3    H167922   1.771   6.083  11.843 -2.9214 -0.2542  1.7631
15477TIP3    H267923   1.738   5.964  11.757 -3.2501  0.8995  0.2602
15478TIP3   OH267924   3.926   1.226  14.219 -0.1442 -0.0181 -0.0657
15478TIP3    H167925   3.928   1.272  14.135 -0.7105  0.8101  0.3640
15478TIP3    H267926   3.957   1.138  14.198  2.4395  0.9318 -0.6609
15479TIP3   OH267927   0.355   6.061  14.729 -0.2206  0.3229  0.0583
15479TIP3    H167928   0.391   5.973  14.742 -0.4230  0.0254 -1.2206
15479TIP3    H267929   0.297   6.074  14.804 -1.3522 -1.2698 -0.4800
15480TIP3   OH267930   2.809   1.054  11.547 -0.2677 -0.0003  0.3074
15480TIP3    H167931   2.864   0.982  11.519  2.4878  0.6541  3.4288
15480TIP3    H267932   2.840   1.129  11.496 -1.1172 -0.3777 -0.8124
15481TIP3   OH267933   5.305   2.451  12.458 -0.0618  0.1454  0.3460
15481TIP3    H167934   5.287   2.499  12.539 -1.3148  1.3672 -0.5964
15481TIP3    H267935   5.257   2.368  12.467 -1.3922  0.8807  0.3052
15482TIP3   OH267936   0.997   0.232   0.471  0.0009 -0.3999  0.0225
15482TIP3    H167937   0.957   0.195   0.393 -1.9722  0.5053  0.5536
15482TIP3    H267938   1.087   0.252   0.445  0.0229 -2.0959 -1.3460
15483TIP3   OH267939   2.205   2.086   1.286  0.1922 -0.2030 -0.2053
15483TIP3    H167940   2.207   2.094   1.191  1.1143  0.5769 -0.1365
15483TIP3    H267941   2.112   2.089   1.309 -0.0921 -1.1605 -1.1259
15484TIP3   OH267942   1.902   0.893  11.415 -0.0400 -0.0712 -0.6110
15484TIP3    H167943   1.974   0.904  11.353  0.5991  0.6521  0.2303
15484TIP3    H267944   1.928   0.818  11.468  0.0385  0.1040 -0.3986
15485TIP3   OH267945   6.021   4.679  12.705 -0.2386  0.1664 -0.3096
15485TIP3    H167946   6.104   4.706  12.664  0.8097 -0.6248  1.1790
15485TIP3    H267947   5.981   4.761  12.734  1.6108  0.4113  1.7973
15486TIP3   OH267948   6.403   1.393   6.105  0.0702 -0.4019 -0.0465
15486TIP3    H167949   6.313   1.404   6.075  0.1557 -0.3260 -0.2819
15486TIP3    H267950   6.422   1.300   6.091  0.1107 -0.3659 -0.2321
15487TIP3   OH267951   0.319   4.978   3.404 -1.0671  0.1216  0.1360
15487TIP3    H167952   0.366   4.899   3.378 -0.9663  0.9839 -2.6044
15487TIP3    H267953   0.378   5.021   3.467 -0.3837 -1.1617  0.3986
15488TIP3   OH267954   5.079   3.366  12.028 -0.0745 -0.4498 -0.0642
15488TIP3    H167955   5.063   3.457  12.055 -0.4995 -0.0370 -1.6076
15488TIP3    H267956   5.174   3.359  12.024 -0.0328 -0.1520  0.2743
15489TIP3   OH267957   1.524   0.526  13.390  0.0340  0.5760  0.3115
15489TIP3    H167958   1.514   0.531  13.485  0.8745  1.3333  0.3755
15489TIP3    H267959   1.584   0.453  13.376 -1.4474 -0.6740  0.2338
15490TIP3   OH267960   0.361   1.460   0.619  0.5747  0.1917 -0.0828
15490TIP3    H167961   0.385   1.419   0.702  0.3639  0.5323  0.1463
15490TIP3    H267962   0.435   1.516   0.597  0.8640 -0.3062 -0.3969
15491TIP3   OH267963   3.818   3.328   5.436 -0.0155 -0.3675 -0.0924
15491TIP3    H167964   3.731   3.351   5.470 -0.8020  0.8050 -2.6032
15491TIP3    H267965   3.853   3.411   5.403  0.4341 -1.4122 -2.4523
15492TIP3   OH267966   6.416   0.906   4.972 -0.0407 -0.9801  0.0612
15492TIP3    H167967   6.367   0.927   4.893 -1.5922 -1.2385  0.9049
15492TIP3    H267968   6.417   0.810   4.975 -0.6731 -0.9746  0.7372
15493TIP3   OH267969   2.103   1.893  13.916 -0.3016  0.1662 -0.0737
15493TIP3    H167970   2.191   1.858  13.902 -0.8789 -1.2037 -0.3926
15493TIP3    H267971   2.118   1.984  13.944  1.1964  0.0294 -0.3377
15494TIP3   OH267972   3.388   0.188   6.142 -0.2360 -0.1103  0.1331
15494TIP3    H167973   3.430   0.123   6.087  0.5823 -0.8266  1.5297
15494TIP3    H267974   3.295   0.164   6.141 -0.1110 -0.5888 -0.3088
15495TIP3   OH267975   6.257   0.369  17.087 -0.7279 -0.0880 -0.0373
15495TIP3    H167976   6.252   0.290  17.033 -2.2392 -0.4794  0.6193
15495TIP3    H267977   6.311   0.344  17.162  0.3248  0.0780 -0.7194
15496TIP3   OH267978   2.269   0.402  17.077 -0.3554 -0.2574  0.1657
15496TIP3    H167979   2.239   0.324  17.030 -0.2405 -1.1751  1.5826
15496TIP3    H267980   2.228   0.475  17.029 -0.3030 -1.1414 -1.3039
15497TIP3   OH267981   0.673   4.621  17.251 -0.0529  0.4143 -0.1706
15497TIP3    H167982   0.720   4.674  17.186  0.6996  0.1289  0.1266
15497TIP3    H267983   0.583   4.651  17.245  0.5555  2.6582  0.8909
15498TIP3   OH267984   4.716   3.793  15.863 -0.4586 -0.1785  0.4185
15498TIP3    H167985   4.662   3.762  15.790  2.0657 -1.4628 -1.0459
15498TIP3    H267986   4.703   3.729  15.932 -0.3647 -0.8285 -0.1562
15499TIP3   OH267987   3.497   1.849   1.634  0.2043 -0.1705  0.0859
15499TIP3    H167988   3.424   1.822   1.690 -0.3175 -1.0307 -0.9714
15499TIP3    H267989   3.462   1.919   1.580  0.6228  0.4573  0.6095
15500TIP3   OH267990   5.918   3.285  15.626  0.0014  0.2827  0.1127
15500TIP3    H167991   5.862   3.279  15.548 -2.9958 -0.3152  2.1143
15500TIP3    H267992   5.961   3.200  15.631 -0.2974  0.0841 -0.5588
15501TIP3   OH267993   0.884   1.625  14.582  0.5243 -0.1888 -0.3183
15501TIP3    H167994   0.881   1.714  14.547  0.8973  0.5256  1.3645
15501TIP3    H267995   0.793   1.604  14.601  0.5186  0.1883  0.0961
15502TIP3   OH267996   6.635   6.137   3.633  0.4703 -0.1309  0.2544
15502TIP3    H167997   6.638   6.231   3.650 -0.1889 -0.3543  1.8065
15502TIP3    H267998   6.542   6.117   3.619  0.8934 -0.0507 -3.6490
15503TIP3   OH267999   5.875   1.076  11.577 -0.1927  0.1584 -0.1404
15503TIP3    H168000   5.806   1.013  11.597 -0.7059  0.9817  0.7687
15503TIP3    H268001   5.937   1.066  11.650  0.3972 -0.2126 -0.6847
15504TIP3   OH268002   1.038   0.890   0.093 -0.2848 -0.2443 -0.0510
15504TIP3    H168003   0.973   0.960   0.102 -0.3499 -0.5835  2.9425
15504TIP3    H268004   1.122   0.933   0.105 -0.0975 -0.2796 -1.0800
15505TIP3   OH268005   3.376   6.175   5.791  0.0700 -0.7054 -0.2072
15505TIP3    H168006   3.442   6.161   5.859 -0.9244 -0.6020  0.8236
15505TIP3    H268007   3.327   6.252   5.822 -1.1992 -1.4137 -0.3787
15506TIP3   OH268008   4.952   3.242   2.946 -0.3417  0.0724  0.3075
15506TIP3    H168009   4.996   3.254   2.861 -0.9158 -0.1678 -0.0239
15506TIP3    H268010   4.943   3.331   2.980  0.0946  0.1536  0.2271
15507TIP3   OH268011   2.986   4.329  14.222  0.6212  0.2427  0.2494
15507TIP3    H168012   3.004   4.237  14.243 -2.0058 -0.7946 -1.4628
15507TIP3    H268013   2.934   4.360  14.297 -0.4232 -0.4187 -0.1741
15508TIP3   OH268014   2.658   1.328  15.847 -0.6164 -0.1500  0.5252
15508TIP3    H168015   2.635   1.326  15.940 -4.5117 -0.3630 -0.2643
15508TIP3    H268016   2.693   1.241  15.829  0.5029  0.0026  1.8261
15509TIP3   OH268017   4.700   1.333   4.456 -0.1189  0.6490 -0.4384
15509TIP3    H168018   4.727   1.408   4.403  2.3870  0.2831  0.1868
15509TIP3    H268019   4.708   1.258   4.397  1.7485  0.3601  0.1351
15510TIP3   OH268020   1.847   0.720   0.274 -0.1982 -0.5664 -0.2123
15510TIP3    H168021   1.805   0.799   0.310 -1.4715  0.1358 -2.9810
15510TIP3    H268022   1.913   0.697   0.339 -1.1748  1.5685  1.6909
15511TIP3   OH268023   1.906   5.921  14.939 -0.0334 -0.5521 -0.3609
15511TIP3    H168024   1.963   5.966  15.000  1.2498  2.9988 -3.7234
15511TIP3    H268025   1.833   5.889  14.993 -0.5020  4.6584  2.8323
15512TIP3   OH268026   5.716   4.980  10.780 -0.0563 -0.1801 -0.1860
15512TIP3    H168027   5.650   5.049  10.783 -0.8208 -0.9253  2.6153
15512TIP3    H268028   5.785   5.015  10.723 -1.6204  1.7233 -1.0194
15513TIP3   OH268029   4.094   0.959   3.562 -0.4187  0.3664 -0.0426
15513TIP3    H168030   4.000   0.945   3.555 -0.2846 -1.1374  0.6938
15513TIP3    H268031   4.108   1.049   3.532 -2.1712  0.8854  0.5939
15514TIP3   OH268032   0.461   4.039  12.124 -0.1438 -0.1762  0.0100
15514TIP3    H168033   0.498   4.100  12.061  0.6161 -3.3022 -2.8527
15514TIP3    H268034   0.530   4.027  12.190  0.3114  0.8006 -0.2780
15515TIP3   OH268035   3.414   1.216  13.748  0.7108 -0.6096 -0.6119
15515TIP3    H168036   3.401   1.181  13.836 -1.7882  1.4455 -0.0065
15515TIP3    H268037   3.490   1.274  13.756  0.9405 -0.9890  0.0047
15516TIP3   OH268038   2.360   3.557   2.592 -0.2999 -0.1151  0.3277
15516TIP3    H168039   2.413   3.541   2.670 -1.5527  0.7620  1.4201
15516TIP3    H268040   2.300   3.483   2.587 -1.4090  0.6787  1.2807
15517TIP3   OH268041   1.665   3.938  12.897  0.1735  0.1192 -0.0502
15517TIP3    H168042   1.573   3.919  12.915  0.3017  0.0570  0.5781
15517TIP3    H268043   1.695   3.865  12.843  0.0107 -0.1796  0.2559
15518TIP3   OH268044   2.650   3.760   1.076  0.3468  0.6794  0.4151
15518TIP3    H168045   2.679   3.681   1.032  2.0659  0.9023  1.0912
15518TIP3    H268046   2.568   3.735   1.119 -0.0794 -0.2032 -0.8532
15519TIP3   OH268047   5.271   3.534   1.982  0.0867  0.0901 -0.2068
15519TIP3    H168048   5.251   3.457   2.034 -0.1198 -0.4137 -1.0231
15519TIP3    H268049   5.242   3.608   2.036 -0.2679 -0.4303  0.3207
15520TIP3   OH268050   5.422   1.086   0.342  0.0677 -0.1405  0.4642
15520TIP3    H168051   5.332   1.109   0.365  0.1051  0.3787  0.1291
15520TIP3    H268052   5.466   1.170   0.334  0.1723 -0.3050 -0.9835
15521TIP3   OH268053   0.104   3.686   0.050  0.3053 -0.0789  0.0492
15521TIP3    H168054   0.072   3.666  -0.038  2.0848 -0.6356 -0.5136
15521TIP3    H268055   0.024   3.696   0.102 -0.7954  0.1010 -1.5708
15522TIP3   OH268056   0.321   0.479   1.137  0.1874 -0.2454 -0.2124
15522TIP3    H168057   0.292   0.570   1.133  0.6615  0.3685  4.2588
15522TIP3    H268058   0.241   0.428   1.147  0.0086  0.3286  1.8914
15523TIP3   OH268059   5.721   3.619  12.597  0.1529  0.1322 -0.3344
15523TIP3    H168060   5.737   3.635  12.504  0.6658 -1.6873 -0.5947
15523TIP3    H268061   5.804   3.584  12.630 -0.1573  0.3609  0.7175
15524TIP3   OH268062   6.368   5.277   3.185 -0.3175 -0.0406  0.3308
15524TIP3    H168063   6.432   5.278   3.257 -0.2512  0.5476  0.2672
15524TIP3    H268064   6.341   5.368   3.175 -1.3893 -0.3289  0.5401
15525TIP3   OH268065   3.695   4.330   4.277 -0.1869  0.2646 -0.4626
15525TIP3    H168066   3.613   4.370   4.308  0.5149  1.1218  0.3539
15525TIP3    H268067   3.753   4.334   4.353  0.2177 -1.5053 -0.6446
15526TIP3   OH268068   3.680   0.965  17.262  0.4565 -0.3360  0.1389
15526TIP3    H168069   3.613   1.009  17.314 -1.1165 -2.9288  0.4282
15526TIP3    H268070   3.719   1.036  17.209 -1.5325  1.4768  0.9520
15527TIP3   OH268071   0.802   0.995   5.443 -0.0190  0.0317  0.3959
15527TIP3    H168072   0.894   0.998   5.469 -0.1767 -0.6217  1.0740
15527TIP3    H268073   0.756   1.045   5.510 -0.0901  0.9487 -0.3208
15528TIP3   OH268074   3.186   1.635  12.772  0.0175 -0.0324  0.0223
15528TIP3    H168075   3.095   1.653  12.796 -0.2726 -0.4535 -0.7093
15528TIP3    H268076   3.195   1.540  12.783  0.9947  0.2567  2.1031
15529TIP3   OH268077   2.969   1.796  11.151 -0.8556  0.1077  0.1790
15529TIP3    H168078   3.059   1.826  11.161 -1.2619  1.3271  0.3859
15529TIP3    H268079   2.950   1.750  11.233 -0.3662 -0.3170  0.0571
15530TIP3   OH268080   6.667   1.719  13.694 -0.0274  0.0871 -0.1075
15530TIP3    H168081   6.722   1.752  13.765  0.3140 -2.0086  0.6559
15530TIP3    H268082   6.725   1.664  13.642 -1.5495 -3.2131  1.4224
15531TIP3   OH268083   5.062   0.752   3.415 -0.5988 -0.1819  0.0876
15531TIP3    H168084   5.016   0.826   3.375  1.8841  1.0012 -0.7443
15531TIP3    H268085   5.109   0.710   3.343  1.1131 -0.1782  1.1488
15532TIP3   OH268086   2.297   2.872  16.871 -0.7590  0.2067  0.1610
15532TIP3    H168087   2.391   2.859  16.879 -0.7718 -0.5312 -0.7679
15532TIP3    H268088   2.288   2.950  16.816 -0.7141  2.2117  2.7552
15533TIP3   OH268089   3.847   5.316   4.239 -0.6441  0.0027 -0.5027
15533TIP3    H168090   3.909   5.246   4.218  0.6346  1.2086 -0.8933
15533TIP3    H268091   3.860   5.332   4.333 -0.5414  0.0837 -0.5305
15534TIP3   OH268092   2.582   1.556  14.989 -0.0206 -0.0799 -0.1366
15534TIP3    H168093   2.598   1.462  14.978 -0.0667 -0.0355 -0.5902
15534TIP3    H268094   2.490   1.568  14.965  0.4183  0.3355 -1.7156
15535TIP3   OH268095   0.039   1.516   3.969  0.6484 -0.0224 -0.1941
15535TIP3    H168096  -0.017   1.491   3.896  0.3688  1.8612 -0.6754
15535TIP3    H268097   0.051   1.610   3.960  0.9792  0.2033  1.9339
15536TIP3   OH268098   4.993   6.705   6.120 -0.0040 -0.9297  0.2056
15536TIP3    H168099   4.960   6.633   6.175 -1.8560 -2.3741 -2.5799
15536TIP3    H268100   4.930   6.776   6.133 -0.9219 -1.5698 -0.6194
15537TIP3   OH268101   4.294   0.144  11.664 -0.2917  0.0871  0.5623
15537TIP3    H168102   4.327   0.104  11.744 -1.2512  1.1851  1.5647
15537TIP3    H268103   4.199   0.148  11.677 -0.5123 -0.1424 -0.8482
15538TIP3   OH268104   5.661   0.792  12.009  0.7656  0.2213  0.2126
15538TIP3    H168105   5.725   0.736  12.053  1.0117  0.2221 -0.1413
15538TIP3    H268106   5.607   0.731  11.958  1.0676  0.3070 -0.2156
15539TIP3   OH268107   4.037   3.922  11.672  0.6158 -0.1125 -0.4792
15539TIP3    H168108   4.021   3.843  11.725 -0.3850 -0.3013 -1.0455
15539TIP3    H268109   4.034   3.994  11.735  0.9163 -0.4640 -0.0545
15540TIP3   OH268110   1.408   3.615  16.625  0.5792 -0.1701 -0.0344
15540TIP3    H168111   1.417   3.606  16.720 -0.0255 -0.4345  0.0049
15540TIP3    H268112   1.463   3.690  16.602 -0.4512  0.8637  0.7344
15541TIP3   OH268113   0.645   4.701  14.505 -0.0991  0.4457 -0.4824
15541TIP3    H168114   0.711   4.633  14.523 -0.1232  0.2481 -1.1016
15541TIP3    H268115   0.584   4.659  14.445  0.8802  1.5633 -2.3631
15542TIP3   OH268116   0.666   4.360  15.752  0.7104  0.3068  0.3258
15542TIP3    H168117   0.640   4.317  15.834  1.9062 -1.2682 -0.0776
15542TIP3    H268118   0.756   4.388  15.767  1.0175 -0.1957 -0.5169
15543TIP3   OH268119   0.484   2.020   6.094 -0.3013 -0.7976 -0.1086
15543TIP3    H168120   0.565   2.034   6.045  1.6900 -3.4873  2.0972
15543TIP3    H268121   0.473   2.100   6.146  0.1828  0.1207 -1.3694
15544TIP3   OH268122   1.886   4.944  16.723 -0.4089  0.0242 -0.2938
15544TIP3    H168123   1.905   4.973  16.634  0.8597  0.7502  0.1845
15544TIP3    H268124   1.933   5.007  16.779  1.6354 -2.3151  0.8123
15545TIP3   OH268125   6.334   0.589  14.255 -0.0412  0.3230 -0.0765
15545TIP3    H168126   6.360   0.575  14.346  0.1284 -1.3268 -0.3514
15545TIP3    H268127   6.239   0.590  14.257 -0.0611  2.2627  0.3540
15546TIP3   OH268128   3.352   4.781  13.514 -0.4401 -0.4908 -0.2251
15546TIP3    H168129   3.278   4.804  13.570 -0.1886  1.2595 -0.5768
15546TIP3    H268130   3.359   4.686  13.523 -1.2314 -0.4201  1.6693
15547TIP3   OH268131   0.215   3.436   2.811 -0.3791 -0.3504 -0.2057
15547TIP3    H168132   0.261   3.443   2.727 -0.0854  3.1043  0.1079
15547TIP3    H268133   0.285   3.426   2.876 -0.3941 -0.0849 -0.1465
15548TIP3   OH268134   2.520   1.839   2.653 -0.7530  0.1386  0.1492
15548TIP3    H168135   2.613   1.861   2.657 -0.4772 -1.0709  0.9422
15548TIP3    H268136   2.513   1.778   2.579 -0.6945 -0.6815  0.8030
15549TIP3   OH268137   3.367   0.506  15.331  0.0228  0.3748 -0.0185
15549TIP3    H168138   3.447   0.454  15.327 -0.2550 -0.5220  3.0907
15549TIP3    H268139   3.300   0.450  15.293  0.2896 -0.3052  0.4847
15550TIP3   OH268140   1.338   3.731  16.955 -0.2042 -0.0778 -0.6729
15550TIP3    H168141   1.252   3.740  16.995 -1.0977 -0.8288 -2.3215
15550TIP3    H268142   1.366   3.821  16.937  0.4503  0.3151  1.9681
15551TIP3   OH268143   1.496   6.564  16.308  0.3761 -0.6058  0.7525
15551TIP3    H168144   1.497   6.592  16.217  0.1398 -0.0169  0.9246
15551TIP3    H268145   1.451   6.480  16.308  1.2072 -1.0667  0.2055
15552TIP3   OH268146   1.599   2.210  15.551  0.0902  0.2481  0.0874
15552TIP3    H168147   1.572   2.141  15.491 -0.0583 -0.6778  1.1776
15552TIP3    H268148   1.597   2.169  15.637  2.8683  0.7472  0.4983
15553TIP3   OH268149   0.376   5.612   0.655 -0.0182 -0.6496  0.8886
15553TIP3    H168150   0.471   5.599   0.663  0.0524 -0.1488  0.8856
15553TIP3    H268151   0.339   5.570   0.732  0.1207 -1.7066  0.4095
15554TIP3   OH268152   1.039   3.898   1.422 -0.3722 -0.2558 -0.2618
15554TIP3    H168153   0.999   3.870   1.340 -0.8550  0.0806 -0.1451
15554TIP3    H268154   1.007   3.987   1.436 -0.4386 -0.3726  0.3848
15555TIP3   OH268155   1.989   2.131   5.015 -0.1599 -0.0705 -0.6568
15555TIP3    H168156   1.965   2.127   4.923 -1.7768  0.4532 -0.2975
15555TIP3    H268157   1.915   2.175   5.057  0.1353 -1.0950  1.0269
15556TIP3   OH268158   4.932   4.809   1.888 -0.1318 -0.4236  0.2678
15556TIP3    H168159   4.952   4.884   1.945  1.7952  0.5221 -1.4761
15556TIP3    H268160   4.854   4.836   1.840 -0.4867 -0.2972  0.9074
15557TIP3   OH268161   0.878   0.476  11.406  0.8276 -0.5671  0.2576
15557TIP3    H168162   0.806   0.508  11.351  1.3759  0.5247  0.1451
15557TIP3    H268163   0.860   0.513  11.492  1.0271 -0.6414  0.3322
15558TIP3   OH268164   1.849   6.167   2.521 -0.0852  0.1700 -0.4865
15558TIP3    H168165   1.771   6.168   2.465 -0.4926 -0.4960  0.0494
15558TIP3    H268166   1.836   6.240   2.581 -0.7778 -0.5102  0.2172
15559TIP3   OH268167   0.835   4.309   6.021 -0.1377  0.4654  0.6367
15559TIP3    H168168   0.814   4.249   6.092  0.9427  1.3204  1.7175
15559TIP3    H268169   0.880   4.382   6.064 -1.2817  2.0012 -0.6338
15560TIP3   OH268170   1.186   6.577  14.886  0.1687 -0.1346  0.1535
15560TIP3    H168171   1.114   6.523  14.852 -0.2920  0.0246  0.8545
15560TIP3    H268172   1.230   6.521  14.950  0.9197 -0.3667 -0.5466
15561TIP3   OH268173   1.129   1.653  13.794  0.0358  0.1934  0.3294
15561TIP3    H168174   1.141   1.694  13.880 -0.0339  0.8453  0.0345
15561TIP3    H268175   1.092   1.722  13.739  0.5472 -0.0675 -0.3633
15562TIP3   OH268176   0.642   4.595   2.771  0.6063  0.6570 -0.4472
15562TIP3    H168177   0.652   4.570   2.679 -3.5865 -0.1408 -0.9063
15562TIP3    H268178   0.666   4.517   2.821 -0.6906 -0.2412 -1.1629
15563TIP3   OH268179   4.572   2.077  17.146 -0.2851 -0.6528 -0.0464
15563TIP3    H168180   4.491   2.030  17.125 -0.2771 -0.4717 -0.5021
15563TIP3    H268181   4.587   2.060  17.239  0.8626 -3.3336 -0.6115
15564TIP3   OH268182   0.150   2.495   6.149  0.0382  0.1739  0.1452
15564TIP3    H168183   0.200   2.421   6.114 -0.4433 -0.4179  0.6843
15564TIP3    H268184   0.172   2.568   6.092 -1.5168 -0.9878 -2.0826
15565TIP3   OH268185   5.664   5.697  12.117  0.3201 -0.5830  0.0503
15565TIP3    H168186   5.582   5.659  12.147 -1.7744  2.8124 -0.8527
15565TIP3    H268187   5.696   5.748  12.192  0.3924 -0.0692 -0.3273
15566TIP3   OH268188   5.120   1.710   4.979  0.0198 -0.5964 -0.1268
15566TIP3    H168189   5.038   1.753   4.955 -0.6837 -2.3127 -0.8967
15566TIP3    H268190   5.172   1.780   5.020 -0.0301  1.7390 -3.5327
15567TIP3   OH268191   1.653   1.074   1.028  0.4205 -0.2274  0.1927
15567TIP3    H168192   1.639   0.979   1.033  0.1556 -0.3258 -1.7858
15567TIP3    H268193   1.645   1.095   0.935  1.8034  1.5456  0.4102
15568TIP3   OH268194   3.890   6.194  17.221  0.0853  0.0356  0.1638
15568TIP3    H168195   3.953   6.172  17.290 -0.2239 -1.6467 -0.0492
15568TIP3    H268196   3.874   6.112  17.176  0.3563  1.1175 -2.0238
15569TIP3   OH268197   1.033   1.503  11.366  0.3554 -1.0316  0.5407
15569TIP3    H168198   1.070   1.505  11.277  0.2553 -1.3445  0.4893
15569TIP3    H268199   0.948   1.459  11.355 -1.4558  2.2436  0.1416
15570TIP3   OH268200   4.521   5.877  14.084  0.1153  0.5730  0.2430
15570TIP3    H168201   4.485   5.789  14.078 -0.6859  0.7945  1.3853
15570TIP3    H268202   4.445   5.932  14.104  0.0771  1.9767 -3.0964
15571TIP3   OH268203   5.801   4.387  11.373 -0.0086  0.6332  0.8624
15571TIP3    H168204   5.745   4.318  11.410  2.0877 -1.7229 -0.0669
15571TIP3    H268205   5.760   4.408  11.289  0.2500 -0.8127  0.3464
15572TIP3   OH268206   5.056   1.138  15.766  0.1615 -0.2937  0.3744
15572TIP3    H168207   5.050   1.232  15.748  3.1813  0.2072  1.3855
15572TIP3    H268208   4.970   1.114  15.800 -1.8514  1.2794 -3.0768
15573TIP3   OH268209   5.720   1.307  11.948 -0.4850 -0.1589 -0.3377
15573TIP3    H168210   5.711   1.239  12.015 -0.2185  0.9300  0.8533
15573TIP3    H268211   5.632   1.317  11.912 -1.4453  1.4946  2.1844
15574TIP3   OH268212   3.080   5.657   1.508  0.1268 -0.0986 -0.7742
15574TIP3    H168213   3.076   5.602   1.586 -2.0874  1.6023  0.4512
15574TIP3    H268214   3.098   5.745   1.543 -0.0842  0.5596 -2.2726
15575TIP3   OH268215   5.053   4.517  16.768 -0.2511  0.1190  0.1667
15575TIP3    H168216   5.046   4.447  16.833  0.8239  0.0624  0.2336
15575TIP3    H268217   5.006   4.591  16.806 -2.9226 -1.0297 -0.6208
15576TIP3   OH268218   1.951   1.639   0.254 -0.2044  0.2292 -0.2539
15576TIP3    H168219   1.928   1.672   0.341  0.9894 -1.8570  0.9354
15576TIP3    H268220   1.980   1.716   0.206  4.2625  0.9438  2.9290
15577TIP3   OH268221   6.665   4.017  14.454 -0.4666  0.4941  0.1707
15577TIP3    H168222   6.591   4.008  14.515  0.9030 -1.7517  1.6371
15577TIP3    H268223   6.669   3.933  14.409  0.0142  1.2989 -1.3519
15578TIP3   OH268224   0.581   5.686   4.566  0.0143 -0.2230 -0.5360
15578TIP3    H168225   0.666   5.657   4.531  0.0778  0.9115 -1.3677
15578TIP3    H268226   0.580   5.780   4.552 -1.9360 -0.3765 -1.8089
15579TIP3   OH268227   2.429   3.396   0.809 -0.0465 -0.8100  0.1588
15579TIP3    H168228   2.392   3.483   0.796 -0.1847 -0.8261  0.4537
15579TIP3    H268229   2.442   3.363   0.720 -2.5054 -1.5610 -0.0121
15580TIP3   OH268230   5.585   3.713  16.550 -0.2831  0.4294 -0.3054
15580TIP3    H168231   5.639   3.685  16.624  0.0374  0.6079 -0.4696
15580TIP3    H268232   5.528   3.638  16.531  1.4912 -0.6573 -1.6281
15581TIP3   OH268233   6.588   3.323  17.107 -0.3327  0.3359 -0.0348
15581TIP3    H168234   6.528   3.249  17.115 -2.6523  1.9979 -0.7632
15581TIP3    H268235   6.652   3.310  17.177 -0.4998 -2.4212 -0.2744
15582TIP3   OH268236   1.539   2.855  13.753 -0.5879 -0.1692 -0.6182
15582TIP3    H168237   1.514   2.874  13.844 -0.7236 -1.9086 -0.2571
15582TIP3    H268238   1.633   2.871  13.751 -0.4228 -0.9545  0.0925
15583TIP3   OH268239   2.395   6.485  14.132  0.8518 -0.0877  0.3083
15583TIP3    H168240   2.472   6.430  14.146 -0.4362 -1.6073  1.8594
15583TIP3    H268241   2.341   6.435  14.070  0.6290  0.4674  0.0459
15584TIP3   OH268242   5.879   2.015   0.026  0.6399  0.3689  0.0623
15584TIP3    H168243   5.796   2.007   0.073  1.6110 -1.1476  1.6083
15584TIP3    H268244   5.853   2.020  -0.066 -1.2266  1.7120  0.5871
15585TIP3   OH268245   5.379   2.885  13.222 -0.2085  0.1077 -0.2205
15585TIP3    H168246   5.463   2.846  13.199 -0.2779  0.6705 -1.4989
15585TIP3    H268247   5.355   2.938  13.146  0.1984  3.2488  1.6343
15586TIP3   OH268248   5.355   5.053  15.607  0.2284  0.5701  0.0923
15586TIP3    H168249   5.393   5.140  15.618 -1.2050  1.2322  0.0434
15586TIP3    H268250   5.289   5.047  15.676 -1.1006  0.3446 -1.1464
15587TIP3   OH268251   2.587   3.258   2.801 -0.0717 -0.2896  0.4174
15587TIP3    H168252   2.545   3.344   2.795 -1.2019 -0.8379  0.2487
15587TIP3    H268253   2.625   3.244   2.715  0.5667  0.2486  0.5982
15588TIP3   OH268254   1.214   2.169   3.526 -0.5457 -0.2449 -0.2583
15588TIP3    H168255   1.304   2.197   3.512  0.3286 -2.3263  0.7073
15588TIP3    H268256   1.192   2.200   3.614 -0.9591  0.6756 -0.6796
15589TIP3   OH268257   1.840   3.362  13.228  0.0767  0.6530 -0.2452
15589TIP3    H168258   1.811   3.417  13.156 -0.0493 -1.4672 -1.9081
15589TIP3    H268259   1.928   3.333  13.202 -0.6222 -1.4757 -0.4154
15590TIP3   OH268260   4.995   2.635  11.635  0.0480  0.0999  0.4387
15590TIP3    H168261   4.915   2.643  11.688  0.7736  0.8438  1.4754
15590TIP3    H268262   5.055   2.586  11.690  1.0250  1.4045  0.5922
15591TIP3   OH268263   1.542   2.368  13.061 -0.6496 -0.2609 -0.4264
15591TIP3    H168264   1.569   2.356  13.152  0.1443  0.7649 -0.5133
15591TIP3    H268265   1.595   2.305  13.012 -0.6190 -0.3738 -0.2490
15592TIP3   OH268266   6.283   5.036  12.943  0.0732  0.0436 -0.5627
15592TIP3    H168267   6.350   5.098  12.973 -0.3588  0.8920 -1.2912
15592TIP3    H268268   6.333   4.958  12.920  0.3400 -1.0473  3.1414
15593TIP3   OH268269   5.717   0.835  14.678  0.0630  0.1511 -0.3343
15593TIP3    H168270   5.737   0.902  14.613  0.3786  1.2938  0.9066
15593TIP3    H268271   5.777   0.763  14.657  0.0575  0.4346 -1.3823
15594TIP3   OH268272   4.886   0.007   2.186 -0.4541  0.2095 -0.3201
15594TIP3    H168273   4.960  -0.028   2.136 -0.6418  1.8369 -1.8354
15594TIP3    H268274   4.833  -0.069   2.207  2.0351 -1.1440  1.5745
15595TIP3   OH268275   1.761   0.225  12.890 -0.2038  0.3025  0.0941
15595TIP3    H168276   1.751   0.173  12.810  0.7014 -0.1701  0.2799
15595TIP3    H268277   1.680   0.210  12.938 -1.1656  1.3083 -1.1209
15596TIP3   OH268278   2.193   3.217   5.016 -0.2354  0.2846  0.2033
15596TIP3    H168279   2.284   3.220   4.986 -0.6074 -0.4234 -1.1218
15596TIP3    H268280   2.193   3.259   5.102  0.9772  2.2106 -0.6797
15597TIP3   OH268281   2.756   5.887   2.492  0.1269  0.5295 -0.6022
15597TIP3    H168282   2.805   5.967   2.473  1.2156  0.4433  1.6041
15597TIP3    H268283   2.818   5.831   2.539 -0.9686 -1.1491 -1.0439
15598TIP3   OH268284   1.905   5.789  16.385  0.6597 -0.0117  0.1485
15598TIP3    H168285   1.923   5.721  16.450 -0.4108  0.7001  1.2348
15598TIP3    H268286   1.854   5.855  16.432  0.9824  1.1722 -1.0766
15599TIP3   OH268287   2.838   1.676   2.074 -0.3020 -0.2703 -0.1535
15599TIP3    H168288   2.783   1.678   1.996 -1.3390  2.6334  0.5198
15599TIP3    H268289   2.778   1.694   2.147  0.9346 -0.9195  1.0863
15600TIP3   OH268290   1.174   5.750  10.235 -0.2083  0.2810 -0.2886
15600TIP3    H168291   1.252   5.806  10.230 -0.2556  0.4104  0.3694
15600TIP3    H268292   1.183   5.703  10.318 -0.6951  0.0899 -0.3408
15601TIP3   OH268293   3.841   6.599   2.340  0.0084 -0.6523  0.4258
15601TIP3    H168294   3.924   6.647   2.330  0.4522 -1.5469 -0.3881
15601TIP3    H268295   3.847   6.559   2.427 -0.1885  0.4053  0.9407
15602TIP3   OH268296   3.876   0.092  16.118  0.1580 -0.7927  0.5028
15602TIP3    H168297   3.857   0.168  16.173 -0.6637 -0.5503 -0.1006
15602TIP3    H268298   3.886   0.020  16.181 -1.0047 -0.5662  0.9793
15603TIP3   OH268299   6.445   0.113   4.666 -0.8829  0.0638  0.0745
15603TIP3    H168300   6.534   0.081   4.648 -1.0413 -0.5425  0.3595
15603TIP3    H268301   6.412   0.141   4.580 -0.0164  1.3567  0.1217
15604TIP3   OH268302   6.688   0.320   1.669  0.1094  0.0229 -0.5561
15604TIP3    H168303   6.705   0.231   1.638  2.8487  0.7734 -1.4932
15604TIP3    H268304   6.724   0.321   1.758 -3.3369 -0.7398  1.0354
15605TIP3   OH268305   3.294   6.696  11.410  0.2370  0.6993 -0.2701
15605TIP3    H168306   3.251   6.780  11.397 -1.6712 -0.4408 -1.7414
15605TIP3    H268307   3.228   6.631  11.387  1.4226 -1.2518  1.5059
15606TIP3   OH268308   1.105   4.595  17.291  0.2061 -0.1777  0.2395
15606TIP3    H168309   1.057   4.591  17.208 -0.7085 -1.9432  0.8143
15606TIP3    H268310   1.051   4.651  17.347 -0.3691 -0.8305  0.3525
15607TIP3   OH268311   5.694   3.195  14.060 -0.2063  0.7579  0.2346
15607TIP3    H168312   5.679   3.268  14.000 -2.2576 -0.6471 -1.1061
15607TIP3    H268313   5.777   3.157  14.032 -0.6103  0.7745 -1.0745
15608TIP3   OH268314   1.167   0.498   0.714  0.1126 -0.0182 -0.0700
15608TIP3    H168315   1.096   0.440   0.742 -0.5978  0.2059 -1.3221
15608TIP3    H268316   1.125   0.561   0.655  1.4332 -0.2292 -1.2991
15609TIP3   OH268317   3.554   4.542  16.048  0.1357 -0.1512 -0.5252
15609TIP3    H168318   3.618   4.474  16.070 -0.8752 -0.9194  0.1334
15609TIP3    H268319   3.589   4.583  15.969  0.9230 -1.2288 -0.7637
15610TIP3   OH268320   4.321   2.291  16.237  0.0235  0.8924  0.1368
15610TIP3    H168321   4.299   2.290  16.144  2.9365  0.3372 -0.6491
15610TIP3    H268322   4.336   2.383  16.258  0.0860  0.9463 -0.1435
15611TIP3   OH268323   5.874   0.429   2.709 -0.5000  0.0842  0.3122
15611TIP3    H168324   5.957   0.440   2.754  0.2838 -1.4438 -0.6842
15611TIP3    H268325   5.814   0.397   2.777 -0.0362  0.3012  0.8264
15612TIP3   OH268326   3.548   1.699   5.486  0.5479 -0.7421  0.5799
15612TIP3    H168327   3.640   1.671   5.485  1.1405  0.9741 -1.3731
15612TIP3    H268328   3.498   1.619   5.500  2.2763 -2.1512 -0.8157
15613TIP3   OH268329   3.664   3.913  16.268 -0.8059  0.9840 -0.6621
15613TIP3    H168330   3.590   3.878  16.219 -0.3790 -1.1495  0.1115
15613TIP3    H268331   3.737   3.856  16.246  0.0277  1.5755  0.4512
15614TIP3   OH268332   3.357   1.317   5.299  0.0817 -0.0598 -0.3426
15614TIP3    H168333   3.304   1.283   5.227  1.2527 -1.7256 -0.4733
15614TIP3    H268334   3.293   1.343   5.365 -0.9423 -0.2407 -1.2239
15615TIP3   OH268335   6.086   6.240   4.779 -0.2075 -0.0158  0.3177
15615TIP3    H168336   5.991   6.246   4.789 -0.3912  3.3458 -1.8905
15615TIP3    H268337   6.098   6.192   4.696 -0.1861  1.7179 -0.7409
15616TIP3   OH268338   2.258   4.839   2.983 -0.0745  0.2250 -0.4966
15616TIP3    H168339   2.208   4.897   3.040 -1.0412  1.6945 -2.7096
15616TIP3    H268340   2.195   4.771   2.958 -0.4010  0.9244 -1.6508
15617TIP3   OH268341   3.030   6.615   5.774 -0.3450 -0.0222  0.0451
15617TIP3    H168342   3.111   6.577   5.807 -0.8048 -0.6263  0.5034
15617TIP3    H268343   2.969   6.608   5.847 -0.9294  0.0435 -0.4323
15618TIP3   OH268344   3.090   1.850   1.065 -0.4363 -0.2204  0.7003
15618TIP3    H168345   3.015   1.879   1.013  0.0675 -0.1434 -0.0072
15618TIP3    H268346   3.082   1.897   1.148 -0.4914  0.7565  0.1564
15619TIP3   OH268347   5.431   6.796  14.268  0.2404 -0.0167  0.6248
15619TIP3    H168348   5.407   6.718  14.217 -0.9485  0.9316 -0.3118
15619TIP3    H268349   5.508   6.831  14.224 -0.3199  0.3641 -0.0532
15620TIP3   OH268350   5.264   0.746  11.636  0.0083 -1.0417  0.3733
15620TIP3    H168351   5.243   0.823  11.583  0.0140  0.3833  2.3100
15620TIP3    H268352   5.197   0.682  11.613 -0.4453 -0.1974 -0.7641
15621TIP3   OH268353   2.467   3.034   2.545  0.6464  0.3241  0.0558
15621TIP3    H168354   2.469   3.008   2.453 -1.7007  0.7320 -0.1826
15621TIP3    H268355   2.544   3.089   2.557  2.5815 -2.0265 -0.8843
15622TIP3   OH268356   2.509   2.901   1.160  0.8105 -0.7458 -0.5684
15622TIP3    H168357   2.547   2.940   1.081  0.5743  0.7306  0.0007
15622TIP3    H268358   2.443   2.840   1.128  1.8692 -1.4257 -1.5203
15623TIP3   OH268359   0.315   1.074  15.993 -0.1581  0.3641 -0.6050
15623TIP3    H168360   0.277   0.988  15.976  0.2761 -0.1669  0.9557
15623TIP3    H268361   0.376   1.088  15.921 -0.3771 -0.5481 -0.9795
15624TIP3   OH268362   0.279   4.951  14.715  0.2353  0.0350 -0.3058
15624TIP3    H168363   0.322   4.878  14.670  1.9225  0.6074  0.3181
15624TIP3    H268364   0.269   4.920  14.805  2.0398  0.9667  0.2534
15625TIP3   OH268365   3.156   0.942   2.645 -0.2016  0.3753 -0.3208
15625TIP3    H168366   3.143   1.018   2.589 -0.8300 -0.7395 -1.7417
15625TIP3    H268367   3.163   0.868   2.585  1.3550 -0.6036  0.9697
15626TIP3   OH268368   4.167   1.258   6.663  0.8575  0.0729  0.0032
15626TIP3    H168369   4.129   1.170   6.657  0.9915 -0.2380  2.4830
15626TIP3    H268370   4.260   1.243   6.681  0.8210  0.6845  0.7716
15627TIP3   OH268371   5.464   6.048  14.412 -0.1679  0.0472 -0.0110
15627TIP3    H168372   5.503   5.991  14.479 -2.4540 -0.6064  0.8846
15627TIP3    H268373   5.430   6.123  14.461 -1.2844 -0.1128 -0.5042
15628TIP3   OH268374   6.042   2.602  15.046 -0.1215 -0.0998  0.1447
15628TIP3    H168375   6.031   2.602  14.951 -3.7173  1.0065  0.3862
15628TIP3    H268376   6.053   2.510  15.069 -0.5916 -0.5351 -1.2664
15629TIP3   OH268377   6.251   3.730  11.245 -0.6547 -0.2211  0.1815
15629TIP3    H168378   6.254   3.784  11.325 -1.1382 -1.1141  0.8179
15629TIP3    H268379   6.315   3.660  11.262  1.6061  1.2801 -1.5249
15630TIP3   OH268380   4.234   5.356   2.308  0.5885  0.1060  0.5494
15630TIP3    H168381   4.144   5.375   2.335 -0.1792 -0.9522 -1.0947
15630TIP3    H268382   4.230   5.269   2.269  2.0881  0.5403 -0.6896
15631TIP3   OH268383   5.376   0.514   1.269 -0.4560 -0.0001  0.4205
15631TIP3    H168384   5.291   0.478   1.243 -1.1021  0.4963  1.7911
15631TIP3    H268385   5.412   0.551   1.187 -1.1453 -0.9799 -0.3487
15632TIP3   OH268386   0.780   4.176   0.600 -0.2605 -0.4778  0.4913
15632TIP3    H168387   0.757   4.090   0.634  1.0131 -0.7821  0.6265
15632TIP3    H268388   0.809   4.159   0.510 -1.8257  0.0797 -0.1592
15633TIP3   OH268389   6.360   1.603  11.033  0.0885  0.4288  0.0807
15633TIP3    H168390   6.427   1.641  10.976 -0.5511  0.9503 -0.3320
15633TIP3    H268391   6.324   1.530  10.981 -0.1192  0.5624  0.0382
15634TIP3   OH268392   1.863   3.577   2.079  0.5274  0.2451  0.0903
15634TIP3    H168393   1.874   3.483   2.089 -1.4410 -0.1172 -0.6590
15634TIP3    H268394   1.943   3.615   2.115  0.1882 -1.5521  3.0896
15635TIP3   OH268395   1.146   3.822   1.838  0.2569  0.0189  0.5540
15635TIP3    H168396   1.203   3.755   1.876  1.6363  1.0748  0.4271
15635TIP3    H268397   1.079   3.772   1.791  0.2441 -1.2659  1.8821
15636TIP3   OH268398   5.014   0.513  12.471  0.0241  0.2775 -0.5101
15636TIP3    H168399   5.035   0.588  12.525  0.8313 -0.6891  0.5548
15636TIP3    H268400   4.994   0.443  12.533  1.8044 -1.0980 -1.4082
15637TIP3   OH268401   0.643   3.561   5.860  0.2876  0.3576 -0.2297
15637TIP3    H168402   0.621   3.471   5.839 -2.6367  1.1494 -1.0306
15637TIP3    H268403   0.737   3.559   5.881  0.3921 -2.7489 -0.5644
15638TIP3   OH268404   1.062   2.802   0.833 -0.0217 -0.4076  0.4778
15638TIP3    H168405   1.101   2.860   0.767 -1.0258  0.6570  0.7696
15638TIP3    H268406   1.056   2.857   0.911 -0.5172 -1.0831  0.9181
15639TIP3   OH268407   5.888   6.428  16.619 -0.6589 -0.0725  0.1773
15639TIP3    H168408   5.906   6.352  16.674 -0.7087  0.2366  0.6245
15639TIP3    H268409   5.827   6.396  16.552  1.3463 -1.1090 -1.2588
15640TIP3   OH268410   3.796   4.906   4.060  0.0233  0.1132  0.2853
15640TIP3    H168411   3.704   4.894   4.084 -0.5170  0.6383 -1.3395
15640TIP3    H268412   3.793   4.951   3.975  1.7600 -0.7139 -0.2783
15641TIP3   OH268413   5.979   1.413   4.374  0.0971  0.2112  0.7615
15641TIP3    H168414   6.005   1.417   4.282 -0.4074 -0.2215  0.5966
15641TIP3    H268415   5.994   1.502   4.406 -0.7854  0.6753 -0.0407
15642TIP3   OH268416   5.830   0.468   4.559 -0.5120  0.0665  0.1994
15642TIP3    H168417   5.860   0.522   4.486  0.2125  0.7418  0.9639
15642TIP3    H268418   5.740   0.445   4.537 -0.3256  0.3167 -0.8648
15643TIP3   OH268419   0.939   3.501  13.885  0.2042 -0.0705 -0.3239
15643TIP3    H168420   0.858   3.448  13.888 -0.6178  1.0763 -1.3341
15643TIP3    H268421   1.004   3.441  13.848 -0.2282 -0.9402  0.2683
15644TIP3   OH268422   0.247   1.034   2.589 -0.2405 -0.5053  0.5790
15644TIP3    H168423   0.244   1.064   2.680  2.4322 -1.0560  0.9238
15644TIP3    H268424   0.157   1.007   2.570 -1.6677  2.8298  1.8662
15645TIP3   OH268425   1.651   2.701   6.340  0.1254  0.0624  0.0948
15645TIP3    H168426   1.658   2.697   6.435 -1.6843 -2.8476  0.2349
15645TIP3    H268427   1.575   2.757   6.324 -0.1700 -0.2430  0.4151
15646TIP3   OH268428   3.567   4.475  17.191  0.2449  0.5804  0.8055
15646TIP3    H168429   3.663   4.466  17.187  0.1192 -0.9275  0.7912
15646TIP3    H268430   3.547   4.472  17.284  0.1168 -0.2700  0.7532
15647TIP3   OH268431   0.420   2.756   3.418 -0.5048 -0.3021  0.3518
15647TIP3    H168432   0.492   2.775   3.357 -2.2494  1.5826 -1.2444
15647TIP3    H268433   0.391   2.668   3.393  1.0830 -1.0378  0.9281
15648TIP3   OH268434   3.067   0.430  15.528  0.0117  0.5555  0.6591
15648TIP3    H168435   3.045   0.399  15.440 -1.5338 -0.3317  1.3208
15648TIP3    H268436   3.155   0.396  15.544  0.3108  0.7377 -0.5478
15649TIP3   OH268437   0.491   6.618   4.681  0.2867  0.4544 -0.6072
15649TIP3    H168438   0.555   6.681   4.715  0.0004  1.2966 -1.5757
15649TIP3    H268439   0.534   6.533   4.691  1.1135  0.9019 -0.2495
15650TIP3   OH268440   1.513   2.774  13.410  0.1775  0.0627  0.1176
15650TIP3    H168441   1.422   2.766  13.437 -0.5702  2.4503 -1.3748
15650TIP3    H268442   1.521   2.715  13.334 -0.0470 -0.3243  0.3925
15651TIP3   OH268443   5.127   0.281  16.564 -0.7171  0.5614  0.4750
15651TIP3    H168444   5.162   0.283  16.474 -1.7817 -1.6674 -0.0775
15651TIP3    H268445   5.200   0.309  16.619  1.0816 -1.2146 -0.8481
15652TIP3   OH268446   4.258   4.438   3.881 -0.7977 -0.0081 -0.2908
15652TIP3    H168447   4.254   4.509   3.818 -0.7131  1.1194  0.9263
15652TIP3    H268448   4.172   4.397   3.877 -0.4149 -0.7037 -1.9445
15653TIP3   OH268449   3.223   5.946   3.878  0.2721 -0.3894 -0.0745
15653TIP3    H168450   3.203   5.900   3.796  0.1574 -0.9413  0.2539
15653TIP3    H268451   3.215   5.878   3.946 -1.5101  0.4641  0.6179
15654TIP3   OH268452   2.673   6.495   3.694 -0.0094 -0.0023 -0.0919
15654TIP3    H168453   2.723   6.526   3.619  0.1907  0.4384  0.2170
15654TIP3    H268454   2.594   6.458   3.657  0.3496 -0.3139 -0.5584
15655TIP3   OH268455   4.113   1.537   2.578  0.4371 -0.8652  0.0232
15655TIP3    H168456   4.053   1.567   2.645  2.1864  1.1485  0.7850
15655TIP3    H268457   4.193   1.513   2.625  1.7423  0.6700 -1.2799
15656TIP3   OH268458   0.973   6.685   5.152  0.1669 -0.0455 -0.1656
15656TIP3    H168459   1.040   6.672   5.084  0.5507 -0.4063  0.2769
15656TIP3    H268460   0.930   6.600   5.159 -0.2781  0.1589 -0.3769
15657TIP3   OH268461   3.716   5.350   0.337 -0.5478 -0.0722  0.4050
15657TIP3    H168462   3.686   5.409   0.269  0.6471  2.3718  1.8508
15657TIP3    H268463   3.808   5.375   0.351  0.3404 -3.0084  0.4083
15658TIP3   OH268464   6.387   6.074   0.583 -0.2000 -0.8341 -0.3974
15658TIP3    H168465   6.363   5.985   0.608 -0.6186 -0.7513 -0.5104
15658TIP3    H268466   6.448   6.062   0.510  0.3739 -1.0502  0.1039
15659TIP3   OH268467   0.537   0.143   3.813 -0.6490  0.3979  0.0399
15659TIP3    H168468   0.494   0.090   3.880 -1.9918  0.8128 -0.4522
15659TIP3    H268469   0.466   0.196   3.776  0.2047  0.7188 -1.1847
15660TIP3   OH268470   6.147   4.706  14.665 -0.0859 -0.0542 -0.2296
15660TIP3    H168471   6.190   4.792  14.668  0.3278 -0.1775 -1.8186
15660TIP3    H268472   6.068   4.720  14.614  0.1051 -0.6535 -0.7041
15661TIP3   OH268473   5.738   5.479  14.159  0.4995  0.1771  0.1664
15661TIP3    H168474   5.775   5.519  14.080  2.6153  0.0902  1.0512
15661TIP3    H268475   5.695   5.552  14.204 -0.4297  0.2950 -0.8603
15662TIP3   OH268476   1.618   1.121   0.142  1.1723  0.0987  0.1642
15662TIP3    H168477   1.655   1.178   0.075 -2.2468  0.8036 -1.3191
15662TIP3    H268478   1.529   1.153   0.155  0.7444 -1.8212  3.0180
15663TIP3   OH268479   3.139   1.864   3.471  0.3062 -0.8062  0.1580
15663TIP3    H168480   3.185   1.879   3.554 -0.7548 -1.6409  0.9354
15663TIP3    H268481   3.063   1.812   3.496 -1.4257  1.0708 -0.9864
15664TIP3   OH268482   4.200   4.862  14.336  0.5207  0.2154  0.6088
15664TIP3    H168483   4.114   4.821  14.322 -0.1875  1.8996 -0.2992
15664TIP3    H268484   4.252   4.834  14.261  0.1431  0.7031  0.1562
15665TIP3   OH268485   1.982   0.052   4.529 -0.5154 -0.1334  0.1799
15665TIP3    H168486   1.963   0.087   4.616  2.8779 -1.0972  1.4854
15665TIP3    H268487   1.985   0.129   4.472  1.1478  1.0857  1.7971
15666TIP3   OH268488   1.328   6.333   6.073  0.0232  0.2206  0.5582
15666TIP3    H168489   1.283   6.412   6.041  0.3580  0.4005  0.5214
15666TIP3    H268490   1.267   6.295   6.136 -0.9005 -0.4545 -0.6943
15667TIP3   OH268491   0.661   1.565   4.118  0.3407  0.7133  0.6814
15667TIP3    H168492   0.744   1.574   4.072  0.6727  1.3633  1.3886
15667TIP3    H268493   0.671   1.487   4.173  0.4398  0.7200  0.6719
15668TIP3   OH268494   1.729   2.827  14.044  0.3181 -0.2769  0.2073
15668TIP3    H168495   1.752   2.900  14.101 -1.1306  1.3897 -1.2276
15668TIP3    H268496   1.779   2.843  13.963  0.3423 -1.1416  0.0414
15669TIP3   OH268497   5.501   0.774   4.681  0.2255 -0.2140  0.1372
15669TIP3    H168498   5.555   0.697   4.664  0.7055  0.0175  0.6157
15669TIP3    H268499   5.416   0.752   4.642  0.4474 -0.8618  0.0065
15670TIP3   OH268500   2.134   5.141  13.238 -0.1211 -0.5336 -0.0454
15670TIP3    H168501   2.093   5.060  13.206  0.5272 -0.9051  0.0454
15670TIP3    H268502   2.227   5.120  13.244  0.1002  0.3321 -0.3470
15671TIP3   OH268503   0.198   3.056  12.827  0.1136  0.1272 -0.1873
15671TIP3    H168504   0.136   3.097  12.767 -0.4213  1.9600  1.4961
15671TIP3    H268505   0.265   3.017  12.771  0.3659  2.9061 -1.9593
15672TIP3   OH268506   5.695   3.590   1.144 -0.5442  0.0070  0.1774
15672TIP3    H168507   5.776   3.597   1.095 -0.9295 -2.1515 -0.8442
15672TIP3    H268508   5.703   3.509   1.194 -1.2292  0.8374  1.7104
15673TIP3   OH268509   6.692   2.616   2.085 -0.2797  0.2015  0.2744
15673TIP3    H168510   6.754   2.601   2.157  0.1552 -1.3520 -0.3984
15673TIP3    H268511   6.615   2.565   2.109  0.2716 -1.2189 -0.8451
15674TIP3   OH268512   5.659   6.660   3.498 -0.2565 -0.0399  0.1917
15674TIP3    H168513   5.663   6.736   3.440  0.2077  1.0898  1.6453
15674TIP3    H268514   5.567   6.653   3.523 -0.3570 -0.1786 -0.2032
15675TIP3   OH268515   4.506   6.619  11.023  0.1275 -0.0163  0.4691
15675TIP3    H168516   4.432   6.562  11.047  0.5284  0.1995  2.3343
15675TIP3    H268517   4.465   6.701  10.997 -0.3494 -0.3617  0.1070
15676TIP3   OH268518   2.938   1.145  13.892 -0.0766  0.1669  0.0574
15676TIP3    H168519   2.959   1.060  13.932  0.2889 -0.0671 -0.6119
15676TIP3    H268520   2.856   1.129  13.845 -0.9235  0.6444  1.3105
15677TIP3   OH268521   4.468   4.600   1.466  0.2207 -0.1048 -0.1652
15677TIP3    H168522   4.498   4.603   1.557  0.5603  0.3367 -0.2875
15677TIP3    H268523   4.444   4.509   1.451  0.3206 -0.2099  0.3185
15678TIP3   OH268524   5.310   0.348  14.907  0.3484 -0.7578  0.4525
15678TIP3    H168525   5.308   0.420  14.845 -1.3347 -1.5043 -0.4160
15678TIP3    H268526   5.233   0.361  14.962  0.8300 -1.1082  1.2255
15679TIP3   OH268527   3.204   3.207  12.665  0.2820 -0.6273  0.0258
15679TIP3    H168528   3.255   3.242  12.592 -0.6057 -1.0269 -0.8023
15679TIP3    H268529   3.117   3.193  12.629 -0.0110 -1.4095  1.0047
15680TIP3   OH268530   1.589   6.535  14.197 -0.1723  0.7657 -1.0522
15680TIP3    H168531   1.670   6.490  14.221  0.4549  3.0366  1.6439
15680TIP3    H268532   1.525   6.506  14.261 -0.4338  1.8028 -0.8319
15681TIP3   OH268533   6.541   4.184   3.132 -0.0392 -0.7991 -0.5782
15681TIP3    H168534   6.565   4.195   3.224 -0.1996  0.2314 -0.6467
15681TIP3    H268535   6.557   4.270   3.093 -0.6479 -1.0301 -1.3576
15682TIP3   OH268536   4.688   5.007  16.452 -0.1649  0.1620  0.2335
15682TIP3    H168537   4.645   4.991  16.536  0.6668  1.9946  1.0885
15682TIP3    H268538   4.704   5.102  16.452  1.2320 -0.0337 -1.3142
15683TIP3   OH268539   4.996   2.859   2.679  0.4163 -0.1467  0.8620
15683TIP3    H168540   5.070   2.798   2.675  0.4255 -0.1073  0.3517
15683TIP3    H268541   5.034   2.945   2.659 -0.0875 -0.4182 -1.6137
15684TIP3   OH268542   5.434   5.011   4.224  0.1235  0.4189  0.4845
15684TIP3    H168543   5.397   5.084   4.175  0.7947  0.0999 -0.5030
15684TIP3    H268544   5.395   4.933   4.184  0.5702  0.1624  0.5450
15685TIP3   OH268545   1.260   2.470  16.450  0.3527 -0.0433  0.3330
15685TIP3    H168546   1.278   2.521  16.371 -0.5274 -0.0711  0.1124
15685TIP3    H268547   1.338   2.483  16.505  0.6944  0.4865 -0.2653
15686TIP3   OH268548   4.764   2.929   5.315  0.4320 -0.5716  0.1725
15686TIP3    H168549   4.708   2.865   5.359  1.5567 -0.8869  1.2229
15686TIP3    H268550   4.841   2.879   5.288  0.5578  0.0011 -0.5383
15687TIP3   OH268551   0.675   0.328  15.135  0.4888  0.0540  0.0542
15687TIP3    H168552   0.746   0.279  15.176  1.2237  0.5289 -0.6276
15687TIP3    H268553   0.712   0.361  15.053 -0.8815 -0.7384 -0.9343
15688TIP3   OH268554   6.410   1.575   4.819 -0.3061  0.4425  0.9414
15688TIP3    H168555   6.394   1.573   4.913  2.2320 -0.9316  1.4572
15688TIP3    H268556   6.429   1.484   4.796 -2.3465  0.4766 -1.2609
15689TIP3   OH268557   2.047   4.755  12.086  0.0401  0.2656 -0.1684
15689TIP3    H168558   2.021   4.676  12.038 -1.4454 -0.1709  1.2401
15689TIP3    H268559   2.065   4.820  12.018 -0.3161 -0.8083 -1.3296
15690TIP3   OH268560   4.980   2.405   0.294 -0.4703  0.0628  0.3707
15690TIP3    H168561   4.949   2.421   0.204 -2.6997 -1.3152  0.8206
15690TIP3    H268562   4.913   2.445   0.349  0.3567 -0.0050  1.4453
15691TIP3   OH268563   4.012   1.717  15.183  0.3416 -0.2043  0.5340
15691TIP3    H168564   3.921   1.738  15.165  0.5619  2.2049  1.7868
15691TIP3    H268565   4.061   1.763  15.114  0.6618 -0.2352  0.7398
15692TIP3   OH268566   4.163   1.683  16.399 -0.0976 -0.0652  0.2041
15692TIP3    H168567   4.117   1.604  16.370 -0.1545 -0.3646  1.0752
15692TIP3    H268568   4.246   1.681  16.351 -0.1801 -0.5451  0.0734
15693TIP3   OH268569   4.710   2.060   3.273  0.2924  0.2754  0.6352
15693TIP3    H168570   4.649   2.122   3.314  1.1518  0.8504  1.0880
15693TIP3    H268571   4.794   2.080   3.314  1.1234  0.6391 -1.1593
15694TIP3   OH268572   4.611   6.058  11.641 -0.1766  0.2867  0.5710
15694TIP3    H168573   4.577   6.033  11.727  0.2792 -0.5307  0.5252
15694TIP3    H268574   4.662   5.982  11.613  0.3994  0.8915 -0.0353
15695TIP3   OH268575   3.482   1.878   5.698  0.1750  0.1772 -0.5593
15695TIP3    H168576   3.558   1.833   5.735  0.8425  1.1282 -0.7422
15695TIP3    H268577   3.494   1.872   5.603  0.5064  1.0866 -0.5899
15696TIP3   OH268578   5.755   4.554   3.082 -0.4054  0.0116  0.7617
15696TIP3    H168579   5.719   4.473   3.119 -2.2140  0.0387 -0.8432
15696TIP3    H268580   5.679   4.610   3.067  0.6455  1.3488  0.2301
15697TIP3   OH268581   2.070   4.158   6.908 -0.0270  0.6170  0.2240
15697TIP3    H168582   2.027   4.097   6.848  1.2971  0.3499 -0.5148
15697TIP3    H268583   2.038   4.244   6.882  0.5550  0.5093 -0.9358
15698TIP3   OH268584   3.963   6.085  16.309 -0.4865 -0.4434 -0.0629
15698TIP3    H168585   3.911   6.010  16.281  0.2296 -0.7719 -0.5431
15698TIP3    H268586   3.898   6.153  16.328 -1.1062 -0.9610 -0.2722
15699TIP3   OH268587   6.337   2.403  15.372  0.2509  0.1751  0.0486
15699TIP3    H168588   6.345   2.437  15.283  3.2081  1.6077  0.7355
15699TIP3    H268589   6.386   2.320  15.371  0.8839  0.5362  0.4740
15700TIP3   OH268590   1.424   0.465   5.318 -0.0129  0.2157  0.4413
15700TIP3    H168591   1.421   0.422   5.404 -1.0584  2.6217  1.6982
15700TIP3    H268592   1.465   0.549   5.335 -0.7524  0.9718 -1.3302
15701TIP3   OH268593   0.904   4.160  14.536  0.1345  0.0678 -0.0209
15701TIP3    H168594   0.843   4.099  14.578 -3.7277  2.2792 -1.8060
15701TIP3    H268595   0.906   4.236  14.595  0.7397  0.2214 -0.2337
15702TIP3   OH268596   0.834   4.090   6.489  0.3077 -0.0533  0.0193
15702TIP3    H168597   0.742   4.104   6.514  0.3464 -0.1146  0.1981
15702TIP3    H268598   0.864   4.176   6.458  0.4851  0.2174  0.9202
15703TIP3   OH268599   5.326   0.661   2.677  0.4052  0.1883  0.4664
15703TIP3    H168600   5.304   0.665   2.770 -0.9475 -0.1310  0.1781
15703TIP3    H268601   5.419   0.686   2.674  1.4532 -2.9445  2.2385
15704TIP3   OH268602   6.033   6.552   3.822 -0.6167  0.8171  0.0440
15704TIP3    H168603   6.080   6.557   3.738 -0.8151 -0.7021 -0.1843
15704TIP3    H268604   5.967   6.622   3.816  1.2532  2.7000  0.1948
15705TIP3   OH268605   5.578   5.158   5.345 -0.0799  0.0832  0.2266
15705TIP3    H168606   5.620   5.188   5.426 -1.0833  0.0552  0.7736
15705TIP3    H268607   5.526   5.232   5.316 -1.7734 -0.7384  1.0422
15706TIP3   OH268608   4.026   1.170  12.352 -0.2486 -0.7195  0.1613
15706TIP3    H168609   4.116   1.167  12.384 -0.5748 -2.9107  1.0307
15706TIP3    H268610   3.992   1.254  12.382  0.5366 -1.2131  2.6042
15707TIP3   OH268611   3.213   3.030  14.315 -0.1937 -0.0020  0.0740
15707TIP3    H168612   3.202   2.994  14.227  0.7061  1.1177 -0.5212
15707TIP3    H268613   3.209   3.125  14.303  1.9782  0.2567  0.9223
15708TIP3   OH268614   3.868   4.409  10.883 -0.3822  0.7082  0.3284
15708TIP3    H168615   3.872   4.399  10.788 -2.3193  0.7904  0.1878
15708TIP3    H268616   3.866   4.320  10.917 -1.0746  0.6522  0.1706
15709TIP3   OH268617   0.315   4.847   1.553 -0.5368 -0.2681 -0.5029
15709TIP3    H168618   0.322   4.772   1.493 -1.7814  0.7902 -2.0848
15709TIP3    H268619   0.346   4.814   1.637  2.2520 -1.5805 -1.9100
15710TIP3   OH268620   3.060   1.671  16.973 -0.4445  0.4134 -0.0561
15710TIP3    H168621   3.104   1.709  17.048  0.0640 -1.1935  0.4981
15710TIP3    H268622   2.966   1.682  16.992 -0.3179  0.6538  0.4549
15711TIP3   OH268623   0.048   1.273  12.340 -0.3281 -0.2974 -0.2959
15711TIP3    H168624  -0.044   1.297  12.331 -0.5192 -0.3511  1.1346
15711TIP3    H268625   0.046   1.181  12.368  0.1011 -0.0730  0.5200
15712TIP3   OH268626   2.922   2.057  14.211 -0.5256 -0.3715 -0.2308
15712TIP3    H168627   2.958   2.116  14.144  0.7315  0.0455  0.7581
15712TIP3    H268628   2.921   2.110  14.291 -4.0454 -0.1515 -0.2785
15713TIP3   OH268629   0.095   1.514  15.252  0.3090 -0.7570 -0.2820
15713TIP3    H168630   0.118   1.603  15.228  0.4365 -1.1491 -1.6494
15713TIP3    H268631   0.148   1.496  15.330 -0.4860  0.7019  0.6575
15714TIP3   OH268632   3.833   5.708   0.560 -0.0074 -0.0866  0.0870
15714TIP3    H168633   3.822   5.794   0.520 -1.6330 -0.4836 -0.3886
15714TIP3    H268634   3.873   5.655   0.491  0.6432  0.1740  0.2543
15715TIP3   OH268635   0.911   4.571   0.284  0.4111 -0.9569 -0.1661
15715TIP3    H168636   0.834   4.620   0.256 -1.0821 -2.5201  0.9727
15715TIP3    H268637   0.973   4.638   0.314 -1.2387  0.2869  0.6101
15716TIP3   OH268638   1.538   6.251   5.680  0.5849 -0.0361  0.1268
15716TIP3    H168639   1.601   6.315   5.648  0.5741 -0.2712 -0.3777
15716TIP3    H268640   1.512   6.284   5.766 -1.6973  2.3161 -1.2868
15717TIP3   OH268641   5.582   5.710  11.261  0.3773  0.3658 -0.1028
15717TIP3    H168642   5.506   5.667  11.299  1.7804 -0.2966  2.1950
15717TIP3    H268643   5.637   5.638  11.228  0.7026  0.7203 -0.3496
15718TIP3   OH268644   3.249   3.246  16.392  0.4582 -0.5507 -0.4097
15718TIP3    H168645   3.192   3.169  16.394  0.0211 -0.2434 -1.0732
15718TIP3    H268646   3.264   3.263  16.300  0.2336  0.3990 -0.2780
15719TIP3   OH268647   5.550   4.130  12.773 -0.4582  0.4437  0.2810
15719TIP3    H168648   5.633   4.099  12.737 -1.1830  1.1148 -2.1291
15719TIP3    H268649   5.558   4.225  12.775 -1.5469  0.5890 -1.0732
15720TIP3   OH268650   4.609   1.185   0.190 -0.1806  0.2873  0.3700
15720TIP3    H168651   4.534   1.161   0.136  1.0348  0.5816 -1.5054
15720TIP3    H268652   4.670   1.112   0.182  1.0061  1.3399 -0.5936
15721TIP3   OH268653   3.128   1.883   5.143 -0.0920 -0.4322 -0.1229
15721TIP3    H168654   3.075   1.921   5.213  0.7822 -0.3113  0.4890
15721TIP3    H268655   3.146   1.794   5.172  0.7768 -0.1929  0.1093
15722TIP3   OH268656   1.804   0.589   2.117 -0.4788 -0.4117  0.0347
15722TIP3    H168657   1.742   0.517   2.104 -1.8717  0.5837  0.9882
15722TIP3    H268658   1.886   0.545   2.140 -1.3804 -1.7177  0.9287
15723TIP3   OH268659   6.576   0.925  13.199  0.0430  0.2714 -0.3402
15723TIP3    H168660   6.542   1.001  13.247 -0.4688 -0.7263  0.9356
15723TIP3    H268661   6.529   0.927  13.115 -1.3164  0.3571  0.3961
15724TIP3   OH268662   6.124   4.273   4.801 -0.0249  0.2919  0.5337
15724TIP3    H168663   6.066   4.197   4.796 -0.5889  0.7110  0.4682
15724TIP3    H268664   6.114   4.315   4.715  0.4325  0.3319  0.5000
15725TIP3   OH268665   6.091   3.228  14.429 -0.6166  0.2035 -0.1600
15725TIP3    H168666   6.130   3.262  14.509  0.5048  0.2618 -0.7144
15725TIP3    H268667   6.026   3.164  14.459 -1.0816  1.1115  0.8204
15726TIP3   OH268668   2.545   4.310   2.684 -0.5585 -0.1276 -0.7011
15726TIP3    H168669   2.588   4.224   2.685  1.4750  0.8274  0.3821
15726TIP3    H268670   2.511   4.321   2.773  1.7549  1.3074  0.1024
15727TIP3   OH268671   5.818   1.082   3.101 -0.0667  0.5992 -0.0600
15727TIP3    H168672   5.854   1.106   3.186 -0.6117 -0.6204  0.5467
15727TIP3    H268673   5.888   1.103   3.039  1.1682 -0.3853  0.9270
15728TIP3   OH268674   2.142   2.703   2.289  0.0342  0.0147  0.1591
15728TIP3    H168675   2.140   2.797   2.310  1.5030 -0.0301  0.6705
15728TIP3    H268676   2.092   2.662   2.359  1.3523  0.2463  1.2893
15729TIP3   OH268677   6.374   6.802   2.384 -0.0920 -0.6796 -0.4904
15729TIP3    H168678   6.459   6.841   2.364 -0.2570  1.2344  2.0151
15729TIP3    H268679   6.314   6.839   2.320  0.5401 -0.0794 -0.7445
15730TIP3   OH268680   6.449   6.642   0.008 -0.0028  0.0943 -1.0937
15730TIP3    H168681   6.465   6.590   0.086 -0.9799 -0.0405 -0.9700
15730TIP3    H268682   6.355   6.633  -0.008  0.0562  0.7183 -1.8565
15731TIP3   OH268683   2.710   6.512   1.292 -0.0758  0.3696  0.2461
15731TIP3    H168684   2.615   6.507   1.290 -0.1099 -0.0812  1.6719
15731TIP3    H268685   2.739   6.421   1.287  0.2445  0.4445  0.6921
15732TIP3   OH268686   4.989   2.784  12.378 -0.5148 -0.0544  0.6630
15732TIP3    H168687   5.001   2.694  12.350 -3.0136 -0.0089 -0.8298
15732TIP3    H268688   4.995   2.781  12.474  0.8721 -1.5016  0.5648
15733TIP3   OH268689   6.411   6.555  14.037  0.8231 -0.2307  0.1999
15733TIP3    H168690   6.489   6.517  14.076  0.1218 -0.9835  0.9105
15733TIP3    H268691   6.442   6.635  13.993  1.9312 -0.3723  0.6988
15734TIP3   OH268692   2.826   5.026   0.939  0.2424  0.1172  0.3818
15734TIP3    H168693   2.828   5.115   0.903  0.0299  0.0202  0.1234
15734TIP3    H268694   2.750   5.026   0.998  0.5033  0.2338  0.7171
15735TIP3   OH268695   1.440   1.153  12.619 -0.0106  0.2545 -0.1108
15735TIP3    H168696   1.452   1.185  12.530  0.7058  1.1377  0.2859
15735TIP3    H268697   1.495   1.210  12.673 -1.3476  0.5267  1.0563
15736TIP3   OH268698   1.555   1.608  14.392  0.0292 -0.4313  0.3668
15736TIP3    H168699   1.495   1.646  14.327  2.9693  0.4746 -2.0568
15736TIP3    H268700   1.583   1.525  14.353 -2.1019 -2.6521  3.0901
15737TIP3   OH268701   3.439   5.025  14.972  0.7963 -0.3841  0.6065
15737TIP3    H168702   3.490   5.025  15.053 -0.4476  0.7526  1.4354
15737TIP3    H268703   3.387   5.106  14.976 -1.5156 -1.7515  0.1251
15738TIP3   OH268704   3.706   5.749   5.318 -1.1094  0.5467  0.0091
15738TIP3    H168705   3.747   5.829   5.285 -0.0915 -0.1873 -0.5686
15738TIP3    H268706   3.641   5.726   5.252 -0.8763  0.4905 -0.2033
15739TIP3   OH268707   6.232   4.452  15.984 -0.3479 -0.0910  0.0699
15739TIP3    H168708   6.281   4.407  16.053  1.8348  0.4900 -1.0293
15739TIP3    H268709   6.299   4.496  15.931 -2.1638  1.7836 -0.8021
15740TIP3   OH268710   0.820   5.706   0.462 -0.2045  0.0104 -0.3534
15740TIP3    H168711   0.771   5.789   0.462 -0.3502 -0.0725 -0.5464
15740TIP3    H268712   0.909   5.731   0.485 -0.2374  0.2297 -0.4539
15741TIP3   OH268713   6.004   2.275  15.446 -0.1678 -0.4952  0.1093
15741TIP3    H168714   6.067   2.209  15.474 -0.1463  0.1630  1.7633
15741TIP3    H268715   6.045   2.358  15.468 -0.3132  0.0973 -1.6784
15742TIP3   OH268716   6.465   2.134  15.743 -0.1843  0.2157  0.3059
15742TIP3    H168717   6.532   2.074  15.774 -1.6838 -1.3549  0.6828
15742TIP3    H268718   6.417   2.159  15.822 -0.2693  1.0330  0.0081
15743TIP3   OH268719   2.064   5.695  16.679  0.3574  0.4421 -0.3860
15743TIP3    H168720   2.149   5.734  16.658  0.2334  0.3420 -1.0653
15743TIP3    H268721   2.068   5.607  16.643 -0.6108  0.9599 -1.8386
15744TIP3   OH268722   3.409   3.729  12.643  0.9660 -0.7299 -0.4093
15744TIP3    H168723   3.376   3.791  12.578  0.1753 -1.9002 -1.1558
15744TIP3    H268724   3.478   3.681  12.597  1.4560 -0.5505  0.1149
15745TIP3   OH268725   3.166   4.572  16.590 -0.1441 -0.1445  0.0363
15745TIP3    H168726   3.135   4.550  16.678 -0.7978  1.7004  0.3278
15745TIP3    H268727   3.124   4.656  16.571 -0.4517 -0.7634 -2.2754
15746TIP3   OH268728   2.513   0.100  16.032  0.3385 -0.0369 -0.0038
15746TIP3    H168729   2.505   0.138  15.945  0.3634 -1.0867 -0.4711
15746TIP3    H268730   2.607   0.092  16.046  0.3510 -2.6047 -1.1221
15747TIP3   OH268731   5.511   1.319  13.953  0.4093 -0.2157  0.2783
15747TIP3    H168732   5.464   1.356  14.028  0.0367 -1.6693  0.7953
15747TIP3    H268733   5.458   1.346  13.877 -0.4155 -0.5149  0.7276
15748TIP3   OH268734   3.322   6.076   0.532  0.0615 -0.2329  0.5581
15748TIP3    H168735   3.356   6.121   0.610  0.6168  0.4622 -0.0719
15748TIP3    H268736   3.399   6.035   0.493 -0.2979 -0.9828  0.6310
15749TIP3   OH268737   2.818   5.187   6.338 -0.4545 -0.0345  0.2087
15749TIP3    H168738   2.809   5.264   6.394 -0.7005 -0.3740  0.6387
15749TIP3    H268739   2.789   5.114   6.392 -0.7157 -0.3656 -0.3692
15750TIP3   OH268740   3.363   1.266   2.501  0.2365  0.3168  0.3462
15750TIP3    H168741   3.295   1.299   2.443 -0.2051 -0.0670  0.6398
15750TIP3    H268742   3.440   1.320   2.481  0.1965 -0.0415 -0.8417
15751TIP3   OH268743   6.286   2.495  13.562 -0.4230 -0.3782 -0.2452
15751TIP3    H168744   6.313   2.442  13.636 -1.3191 -0.7021 -0.1409
15751TIP3    H268745   6.331   2.578  13.574  0.2193 -0.7735  0.1171
15752TIP3   OH268746   1.861   4.829  15.092  0.0519 -0.0414  0.3910
15752TIP3    H168747   1.828   4.758  15.037 -0.9214 -1.2704  2.4470
15752TIP3    H268748   1.881   4.900  15.031 -2.8661 -0.5918 -1.3642
15753TIP3   OH268749   4.698   6.173  16.018 -0.2341 -0.8396 -0.2627
15753TIP3    H168750   4.703   6.083  15.985  0.4228 -0.8478 -0.1583
15753TIP3    H268751   4.770   6.179  16.082 -1.2204 -0.6981  0.8661
15754TIP3   OH268752   0.122   3.681  11.497 -0.4956  0.5068 -0.2646
15754TIP3    H168753   0.034   3.718  11.496 -0.9132 -0.4941 -1.1408
15754TIP3    H268754   0.138   3.660  11.590 -1.0862  0.8880 -0.0724
15755TIP3   OH268755   3.898   4.675   1.468 -0.8183  0.2523  0.5078
15755TIP3    H168756   3.882   4.721   1.385 -0.0092 -1.8995 -0.9397
15755TIP3    H268757   3.844   4.721   1.532  0.7195  3.8650 -0.5264
15756TIP3   OH268758   5.806   2.455   2.220  0.7332 -0.3394 -0.1442
15756TIP3    H168759   5.776   2.409   2.299  1.5724 -0.9081 -0.1507
15756TIP3    H268760   5.790   2.548   2.240  0.4661 -0.5127  0.4834
15757TIP3   OH268761   4.720   2.996   5.671 -0.1507 -0.2368 -0.9854
15757TIP3    H168762   4.725   3.083   5.631 -1.9422 -0.5150 -1.9332
15757TIP3    H268763   4.663   3.008   5.747  1.6648 -0.1083  0.4121
15758TIP3   OH268764   2.503   3.510   2.825  0.4427  0.0076  0.1684
15758TIP3    H168765   2.478   3.479   2.912  2.0647  0.3125  0.7684
15758TIP3    H268766   2.545   3.594   2.840 -1.3933  1.2532 -1.1736
15759TIP3   OH268767   1.980   6.166  13.721 -0.4237 -0.8736 -0.4886
15759TIP3    H168768   2.062   6.213  13.734 -0.0485 -1.9050  1.2632
15759TIP3    H268769   1.956   6.183  13.630  2.1528 -1.1829 -1.2911
15760TIP3   OH268770   5.627   2.130   0.612  0.3430 -0.5737 -0.3870
15760TIP3    H168771   5.561   2.200   0.609  2.2753  1.3981  0.1101
15760TIP3    H268772   5.702   2.171   0.656  1.1664 -3.3672  1.0205
15761TIP3   OH268773   3.398   3.074  13.988  0.2876  0.4414 -0.1665
15761TIP3    H168774   3.487   3.044  14.006  0.4901  1.0830 -0.0876
15761TIP3    H268775   3.409   3.164  13.959 -0.2247  0.1441 -1.3411
15762TIP3   OH268776   3.027   1.178  12.756  0.2105 -0.2112 -0.3281
15762TIP3    H168777   2.945   1.170  12.804  0.4687  0.2038  0.1903
15762TIP3    H268778   3.013   1.252  12.696  1.3183  2.1231  2.1176
15763TIP3   OH268779   0.859   3.805  15.113  0.3710 -0.3988  0.3109
15763TIP3    H168780   0.946   3.774  15.088  1.1801  1.2954  0.8127
15763TIP3    H268781   0.875   3.891  15.153 -1.2593 -1.0855  2.6910
15764TIP3   OH268782   2.786   6.370  11.569  0.7954 -0.2036 -0.2606
15764TIP3    H168783   2.732   6.303  11.528 -1.0151  0.3448  1.0934
15764TIP3    H268784   2.746   6.453  11.543  1.8471  0.2930 -0.3569
15765TIP3   OH268785   0.591   5.183   2.668  0.1165 -0.4911 -0.3527
15765TIP3    H168786   0.630   5.255   2.618  1.7535 -0.0688  1.4377
15765TIP3    H268787   0.516   5.222   2.712  2.2703  0.8889  2.4311
15766TIP3   OH268788   5.068   6.139   3.737 -0.2312 -0.3050 -0.4522
15766TIP3    H168789   5.124   6.062   3.741  0.0845 -0.0605 -0.1583
15766TIP3    H268790   5.093   6.192   3.812  0.8490  0.9832 -1.6570
15767TIP3   OH268791   4.167   4.175   2.237  0.2754 -0.0631  0.0343
15767TIP3    H168792   4.217   4.134   2.308 -0.1695 -0.6047  0.0468
15767TIP3    H268793   4.233   4.215   2.180  0.6073  0.9457  1.0912
15768TIP3   OH268794   0.581   4.224   6.458  0.0367 -0.2710 -0.2223
15768TIP3    H168795   0.587   4.312   6.422 -0.3982 -0.2817 -0.3284
15768TIP3    H268796   0.488   4.212   6.477 -0.2313 -1.4493 -2.0918
15769TIP3   OH268797   0.555   3.148   2.686 -0.1740 -0.2614 -0.0060
15769TIP3    H168798   0.556   3.158   2.781  0.1363 -1.3861  0.1142
15769TIP3    H268799   0.644   3.167   2.658 -0.4349  0.8089 -0.1704
15770TIP3   OH268800   5.238   6.530  13.503 -0.0659 -0.3606  0.2578
15770TIP3    H168801   5.254   6.479  13.583 -1.4262  0.0840  0.8394
15770TIP3    H268802   5.252   6.467  13.432  1.5772 -0.6609  0.7966
15771TIP3   OH268803   4.333   5.771  11.744  0.2164 -0.2754 -0.1128
15771TIP3    H168804   4.258   5.734  11.792  0.2940 -0.1394  0.1168
15771TIP3    H268805   4.349   5.708  11.673 -0.1593 -0.2695 -0.2073
15772TIP3   OH268806   4.645   6.791  14.773 -0.0379 -0.6852 -0.6251
15772TIP3    H168807   4.693   6.768  14.694 -0.6055  0.6864 -1.4229
15772TIP3    H268808   4.656   6.886  14.781 -0.8541 -0.6478  0.3558
15773TIP3   OH268809   2.959   1.762   3.115  0.2095 -0.8437 -0.0678
15773TIP3    H168810   2.987   1.733   3.028  1.6813  1.5566 -0.4880
15773TIP3    H268811   2.866   1.741   3.118  0.3645 -2.0377 -1.7384
15774TIP3   OH268812   1.313   5.308  14.777 -0.0938 -0.0477  0.0842
15774TIP3    H168813   1.229   5.351  14.790  0.6365  1.1685  1.0324
15774TIP3    H268814   1.317   5.240  14.844 -0.4762 -0.3703 -0.2173
15775TIP3   OH268815   4.159   6.759  11.039  0.5941 -0.0461 -0.5719
15775TIP3    H168816   4.183   6.755  11.132  0.7226  1.7482 -0.4840
15775TIP3    H268817   4.233   6.804  10.998  0.2213 -0.2059 -1.4330
15776TIP3   OH268818   6.727   0.181  15.208 -0.2706  0.3193 -0.2199
15776TIP3    H168819   6.758   0.170  15.298 -0.5333  1.2760 -0.0024
15776TIP3    H268820   6.632   0.169  15.215 -0.4516  1.6916 -0.1327
15777TIP3   OH268821   2.739   0.655   2.619 -0.3652  0.4403  0.1079
15777TIP3    H168822   2.793   0.729   2.591 -0.2899  0.3167 -0.0778
15777TIP3    H268823   2.650   0.681   2.595 -0.6053  1.3200  1.8251
15778TIP3   OH268824   1.214   5.283  12.950 -0.0110  0.1905 -0.4759
15778TIP3    H168825   1.230   5.237  13.032 -0.8476  1.3202  0.3582
15778TIP3    H268826   1.213   5.214  12.883  4.7733 -0.4354 -0.2586
15779TIP3   OH268827   6.755   6.320  12.837  0.2367 -0.9974 -0.3688
15779TIP3    H168828   6.699   6.337  12.913  1.6270 -0.3800  0.5658
15779TIP3    H268829   6.695   6.290  12.769 -1.3357  0.3863  0.3304
15780TIP3   OH268830   0.639   6.055   0.148  0.0852 -0.3516 -0.4695
15780TIP3    H168831   0.710   6.080   0.089  0.0110  0.1505 -0.3449
15780TIP3    H268832   0.589   6.135   0.162  0.8902 -0.1305  1.3547
15781TIP3   OH268833   2.909   2.811   1.270  0.1564 -0.9431 -0.2588
15781TIP3    H168834   2.918   2.737   1.329 -0.9549 -0.0545  1.0859
15781TIP3    H268835   2.889   2.885   1.327 -0.7558  0.0032 -1.7378
15782TIP3   OH268836   3.845   0.716  13.648 -0.6332 -0.3090 -0.9499
15782TIP3    H168837   3.781   0.672  13.593  0.3506 -0.5413 -1.9391
15782TIP3    H268838   3.826   0.809  13.638 -1.1022 -0.3949 -0.8705
15783TIP3   OH268839   5.039   6.232   5.207 -0.0589  0.4553 -0.1496
15783TIP3    H168840   4.946   6.222   5.187  0.1841 -1.1245 -0.5910
15783TIP3    H268841   5.080   6.253   5.123  0.0820  0.4154 -0.0915
15784TIP3   OH268842   1.718   3.741   2.704 -0.0542  0.3080  0.5314
15784TIP3    H168843   1.736   3.747   2.611 -0.1348  0.0401  0.4964
15784TIP3    H268844   1.791   3.691   2.740 -0.9290 -1.2054  0.3119
15785TIP3   OH268845   4.757   3.145  12.804  0.3788  0.1275 -0.0544
15785TIP3    H168846   4.839   3.137  12.755 -0.1455 -0.1321 -0.9114
15785TIP3    H268847   4.752   3.237  12.830  1.2619  0.0030  0.5831
15786TIP3   OH268848   1.021   1.562  16.664 -0.1335 -0.5815  0.0933
15786TIP3    H168849   1.047   1.594  16.750 -0.7743 -0.3023  0.1877
15786TIP3    H268850   1.021   1.466  16.673  0.3541 -0.5728  0.2337
15787TIP3   OH268851   4.674   4.828  15.479 -0.0145 -0.2691  0.5134
15787TIP3    H168852   4.642   4.897  15.421  0.3915  0.4209  1.0959
15787TIP3    H268853   4.621   4.751  15.456  0.2905 -0.0720 -0.9061
15788TIP3   OH268854   0.509   1.375   0.304 -0.5746  0.5886  0.3490
15788TIP3    H168855   0.446   1.314   0.266  0.6850 -1.3329  1.1807
15788TIP3    H268856   0.517   1.347   0.395  1.1206  1.0535  0.3739
15789TIP3   OH268857   0.445   1.973   1.506 -0.1155  0.4973 -0.1996
15789TIP3    H168858   0.491   2.054   1.527  1.3560  0.0692 -1.6271
15789TIP3    H268859   0.486   1.941   1.426 -0.1799 -2.0137  0.6623
15790TIP3   OH268860   3.115   0.123  10.736 -0.1618  0.3675  0.0066
15790TIP3    H168861   3.057   0.055  10.769 -0.4358  0.8221  0.4824
15790TIP3    H268862   3.203   0.088  10.747 -0.2371  0.5637  1.3812
15791TIP3   OH268863   1.928   5.621  16.957 -0.0862 -0.2480 -0.1578
15791TIP3    H168864   1.956   5.557  17.022  1.5872 -0.5699 -1.1474
15791TIP3    H268865   2.005   5.636  16.902 -0.4690  2.4477 -0.1121
15792TIP3   OH268866   0.707   1.751   6.074 -0.2014  0.7347 -0.3156
15792TIP3    H168867   0.614   1.752   6.051 -0.0263 -0.4879 -1.2300
15792TIP3    H268868   0.750   1.787   5.997 -0.0097  3.2906  0.9073
15793TIP3   OH268869   4.769   2.183  16.996  0.3783  0.7081  0.2148
15793TIP3    H168870   4.733   2.186  16.908  4.3098 -0.7999 -1.6637
15793TIP3    H268871   4.699   2.142  17.048 -0.6065 -2.5217 -3.1824
15794TIP3   OH268872   0.478   0.711   2.000  0.4719  0.4245  0.1782
15794TIP3    H168873   0.502   0.804   2.007  1.3441  0.1512  1.0073
15794TIP3    H268874   0.457   0.699   1.907  1.6059  1.1549 -0.2004
15795TIP3   OH268875   0.368   0.284   5.945 -0.0983 -0.0158 -0.1089
15795TIP3    H168876   0.310   0.266   5.871  0.7684  0.4608 -0.9216
15795TIP3    H268877   0.321   0.350   5.996  0.0857  1.0017 -1.2137
15796TIP3   OH268878   4.574   4.528  15.393 -0.0445 -0.3056  0.6113
15796TIP3    H168879   4.531   4.449  15.361  0.0188 -0.3675  0.6783
15796TIP3    H268880   4.573   4.519  15.488 -1.3180  0.4508  0.6892
15797TIP3   OH268881   0.931   1.510  11.084 -0.1807  0.2356 -0.1214
15797TIP3    H168882   0.937   1.599  11.118  0.6058 -0.2813  1.1691
15797TIP3    H268883   1.021   1.476  11.091 -0.2821 -0.3678 -1.4555
15798TIP3   OH268884   5.593   1.626  16.830 -0.1084  0.2680 -0.0522
15798TIP3    H168885   5.519   1.566  16.821 -2.0973  2.2591  1.8255
15798TIP3    H268886   5.586   1.684  16.755  0.7884 -0.7079 -0.9282
15799TIP3   OH268887   5.600   6.057   3.819  0.2322  0.4311  0.6986
15799TIP3    H168888   5.566   6.083   3.733 -0.9237 -2.1203  0.2938
15799TIP3    H268889   5.541   6.098   3.882  0.6363  1.6988  0.2831
15800TIP3   OH268890   5.325   2.015  16.104  0.2686 -0.1019  0.5344
15800TIP3    H168891   5.327   2.007  16.009  1.7029  0.5195  0.4739
15800TIP3    H268892   5.411   1.984  16.132  1.8121  4.0129  1.1609
15801TIP3   OH268893   4.816   6.377   4.855 -0.5926  0.2855 -0.4360
15801TIP3    H168894   4.789   6.342   4.940  1.6532  0.5077  0.4520
15801TIP3    H268895   4.829   6.470   4.870  2.2425 -0.0450 -0.2321
15802TIP3   OH268896   2.257   4.161  13.609  0.2408 -0.2633 -0.0655
15802TIP3    H168897   2.189   4.208  13.658  0.0150 -1.0627  0.4088
15802TIP3    H268898   2.330   4.153  13.670  0.0753 -0.9933  0.0528
15803TIP3   OH268899   3.378   2.750   2.509  0.5741  0.7165 -0.5858
15803TIP3    H168900   3.313   2.776   2.574 -0.8788 -0.7935 -1.3715
15803TIP3    H268901   3.328   2.701   2.444  2.3154  0.5513 -1.8560
15804TIP3   OH268902   1.436   5.152   3.053 -0.0613  0.1582  0.4319
15804TIP3    H168903   1.373   5.222   3.069 -1.8763 -0.9275 -1.4292
15804TIP3    H268904   1.509   5.195   3.008 -0.9870  0.9377 -0.3663
15805TIP3   OH268905   2.367   5.040  13.141  0.2480  0.0180 -0.1072
15805TIP3    H168906   2.310   4.980  13.093  0.4054 -1.0339  0.9711
15805TIP3    H268907   2.418   5.085  13.073 -1.4946  0.6348 -1.0615
15806TIP3   OH268908   5.644   2.869   0.160  0.4110  0.0318 -0.0201
15806TIP3    H168909   5.700   2.920   0.101 -0.7425  0.2109 -0.9882
15806TIP3    H268910   5.670   2.897   0.248  2.2931 -0.3757 -0.4038
15807TIP3   OH268911   6.825   5.254  14.979 -0.4846 -0.5271 -0.3848
15807TIP3    H168912   6.748   5.297  15.018 -0.1810 -0.2178 -0.1224
15807TIP3    H268913   6.788   5.183  14.926 -1.1036  0.8547 -1.8906
15808TIP3   OH268914   3.781   3.921   3.060 -0.4220  0.0531  0.4411
15808TIP3    H168915   3.734   3.968   2.991 -1.2863 -0.2694  0.7948
15808TIP3    H268916   3.829   3.852   3.014 -0.4547  0.2621  0.0927
15809TIP3   OH268917   3.410   4.733   1.797  0.3503 -0.3844 -0.0248
15809TIP3    H168918   3.333   4.716   1.743 -0.3507  0.8359  0.5527
15809TIP3    H268919   3.473   4.775   1.738  0.7595 -1.7268 -0.5941
15810TIP3   OH268920   3.772   5.754  15.586 -0.0051 -0.0081  0.0851
15810TIP3    H168921   3.843   5.788  15.532 -1.6954  0.6211 -1.8657
15810TIP3    H268922   3.777   5.805  15.667  2.4262 -0.7941  0.4957
15811TIP3   OH268923   5.173   4.764   4.311 -0.1392 -0.2470 -0.8271
15811TIP3    H168924   5.137   4.698   4.369 -2.6287  0.7350 -1.1296
15811TIP3    H268925   5.176   4.844   4.363 -0.1843  0.1242 -1.3795
15812TIP3   OH268926   1.990   0.293   2.400  0.4223 -0.3315  0.4470
15812TIP3    H168927   2.035   0.209   2.394 -1.1073 -1.1510 -0.2513
15812TIP3    H268928   1.897   0.270   2.406 -0.0320  1.3122  0.3180
15813TIP3   OH268929   0.077   2.613   0.526  0.1882  0.0815  0.2388
15813TIP3    H168930   0.127   2.546   0.479  0.3987 -1.0596  1.9577
15813TIP3    H268931   0.029   2.660   0.458 -0.0634 -1.9105 -1.0499
15814TIP3   OH268932   4.576   1.691   3.499  0.5765  0.1155 -0.6116
15814TIP3    H168933   4.507   1.660   3.441  1.5273  0.1232 -1.7777
15814TIP3    H268934   4.655   1.691   3.445  1.5741 -0.2484  0.7853
15815TIP3   OH268935   6.369   1.449   4.370 -0.2628 -0.0615 -0.8002
15815TIP3    H168936   6.448   1.489   4.405 -0.2213  1.5406 -2.5405
15815TIP3    H268937   6.299   1.511   4.390 -0.6996 -0.4270 -1.1488
15816TIP3   OH268938   1.500   0.063   2.455  0.2750 -0.1440 -0.1624
15816TIP3    H168939   1.476   0.005   2.527  0.3759  1.1444  0.9576
15816TIP3    H268940   1.435   0.133   2.459  1.1582  0.7070 -0.3933
15817TIP3   OH268941   6.788   6.799   3.246  0.2195  0.6059  0.0114
15817TIP3    H168942   6.717   6.736   3.255 -0.0409  0.8835 -0.0875
15817TIP3    H268943   6.776   6.836   3.159 -1.2748  2.7609  1.0425
15818TIP3   OH268944   6.705   0.884   5.553 -1.0625  0.3555  0.5888
15818TIP3    H168945   6.726   0.793   5.578 -0.0052  0.6004  0.6525
15818TIP3    H268946   6.620   0.878   5.510 -0.2346 -0.9477 -0.9989
15819TIP3   OH268947   5.380   5.767  16.266  0.0323  0.3507  0.6339
15819TIP3    H168948   5.368   5.677  16.295  0.8800  0.1392  0.3679
15819TIP3    H268949   5.294   5.808  16.275 -0.3003 -0.4203  0.9736
15820TIP3   OH268950   6.681   2.072   1.552 -0.0666  0.2114  0.1703
15820TIP3    H168951   6.776   2.065   1.565 -0.0874  1.1338  0.9347
15820TIP3    H268952   6.668   2.160   1.518 -0.8690  1.1897  2.7562
15821TIP3   OH268953   6.248   4.358   5.020 -0.3608 -0.1144 -0.4542
15821TIP3    H168954   6.326   4.304   5.023  0.4346  0.7220 -2.9585
15821TIP3    H268955   6.204   4.332   4.939 -0.5987  2.0636 -1.0967
15822TIP3   OH268956   3.105   3.141  12.315  0.2648 -0.3965 -0.5475
15822TIP3    H168957   3.178   3.188  12.275  0.1928 -0.0386 -0.2640
15822TIP3    H268958   3.027   3.188  12.287  0.1011 -1.0640 -1.2390
15823TIP3   OH268959   6.533   3.121  16.403 -0.3778 -0.0216 -0.0820
15823TIP3    H168960   6.528   3.176  16.481 -2.4824  1.2638 -1.0473
15823TIP3    H268961   6.441   3.105  16.379  0.2085 -1.8126 -1.3305
15824TIP3   OH268962   3.146   2.195   4.892  0.0610 -0.4841 -0.3611
15824TIP3    H168963   3.197   2.114   4.894 -0.6488 -0.9537 -0.9160
15824TIP3    H268964   3.198   2.255   4.838  0.1787 -0.8536 -0.6607
15825TIP3   OH268965   0.664   1.262   0.793 -0.2556  0.1818  0.1224
15825TIP3    H168966   0.710   1.244   0.875 -2.3038  0.2962  1.3532
15825TIP3    H268967   0.622   1.180   0.769  0.3847  0.1267 -0.8825
15826TIP3   OH268968   3.907   5.707  17.032  0.2612  0.3424  0.5257
15826TIP3    H168969   3.903   5.615  17.056 -0.3555  0.0831 -0.5319
15826TIP3    H268970   3.858   5.713  16.950  2.2396  1.1937 -0.6651
15827TIP3   OH268971   6.496   3.140  13.141  0.1520 -0.9967 -0.3913
15827TIP3    H168972   6.519   3.211  13.202 -0.5929 -1.5694  0.5809
15827TIP3    H268973   6.579   3.115  13.101  0.1730  2.0198 -2.5962
15828TIP3   OH268974   4.044   2.520   4.271 -0.0548  0.6025  0.2411
15828TIP3    H168975   4.000   2.582   4.329  2.0341  0.8651  1.6642
15828TIP3    H268976   4.064   2.445   4.326 -2.1675 -1.2657 -1.3559
15829TIP3   OH268977   2.135   2.256   2.052 -0.2158 -0.2576 -0.4781
15829TIP3    H168978   2.124   2.351   2.054 -2.0187 -0.4469  0.1798
15829TIP3    H268979   2.211   2.242   1.995 -0.9464  1.4967 -1.9795
15830TIP3   OH268980   1.643   6.212   3.202  0.1685 -0.4013 -0.3559
15830TIP3    H168981   1.650   6.275   3.274  0.0195 -0.7252 -0.0505
15830TIP3    H268982   1.636   6.265   3.124 -1.4328  0.0084  0.0289
15831TIP3   OH268983   5.773   5.097   2.925 -0.2719 -0.5128 -0.0170
15831TIP3    H168984   5.693   5.148   2.937 -0.6125 -0.9022 -0.5710
15831TIP3    H268985   5.743   5.015   2.886  0.0880 -1.7006  2.0579
15832TIP3   OH268986   1.678   3.160  13.791 -0.3772  0.1925 -0.0609
15832TIP3    H168987   1.731   3.081  13.779 -0.0569 -0.1987  3.0812
15832TIP3    H268988   1.728   3.212  13.854 -1.9100  1.6369  0.0144
15833TIP3   OH268989   6.191   1.342  11.427 -0.3739 -0.3297 -0.2926
15833TIP3    H168990   6.284   1.325  11.414 -0.5276 -2.8855  1.2194
15833TIP3    H268991   6.176   1.428  11.388  2.5145 -0.0298 -0.9335
15834TIP3   OH268992   6.159   1.906  16.543 -0.5218  0.6540  0.1840
15834TIP3    H168993   6.145   2.000  16.532 -0.6323  0.4450 -1.8519
15834TIP3    H268994   6.077   1.872  16.577 -1.1622  1.0422 -0.9347
15835TIP3   OH268995   0.930   2.228   0.834  0.1004 -0.1909 -0.6442
15835TIP3    H168996   0.891   2.223   0.921  1.1660  2.8349  0.1259
15835TIP3    H268997   0.890   2.305   0.794  3.0456  1.3567 -0.8967
15836TIP3   OH268998   5.505   4.772  12.755  0.1953 -0.0375 -0.2854
15836TIP3    H168999   5.466   4.859  12.751  0.0220 -0.1110 -0.2072
15836TIP3    H269000   5.525   4.759  12.847 -1.8639 -0.9810  0.0931
15837TIP3   OH269001   3.179   6.787  13.087  0.0776  0.0658  0.3954
15837TIP3    H169002   3.237   6.767  13.014  2.6940  0.7906  2.1050
15837TIP3    H269003   3.145   6.875  13.068  1.5183  0.6661  0.4365
15838TIP3   OH269004   4.896   3.514   2.921 -0.0464  0.4781 -0.4570
15838TIP3    H169005   4.892   3.610   2.919  1.4361  0.5554 -0.4294
15838TIP3    H269006   4.877   3.488   2.831 -0.0311  0.8145 -0.5587
15839TIP3   OH269007   3.527   2.153  14.124  0.6354  0.0934 -0.0949
15839TIP3    H169008   3.539   2.066  14.162  1.2905  0.2589  0.0983
15839TIP3    H269009   3.540   2.213  14.197  0.7565  0.3761 -0.3462
15840TIP3   OH269010   3.516   2.097  16.086  0.4964  0.1104 -0.2827
15840TIP3    H169011   3.515   2.109  15.991 -2.7246  1.4613 -0.1744
15840TIP3    H269012   3.572   2.169  16.118  0.6420  0.3615 -1.0683
15841TIP3   OH269013   5.833   2.960  12.544 -0.0737 -0.3795 -0.7151
15841TIP3    H169014   5.908   3.018  12.553  0.5937 -0.8530 -2.7229
15841TIP3    H269015   5.777   3.003  12.480  0.2215 -1.7139 -1.9071
15842TIP3   OH269016   5.593   5.406   3.638  0.1145  0.3398  0.1746
15842TIP3    H169017   5.663   5.443   3.583  1.8960 -0.6917  1.6121
15842TIP3    H269018   5.561   5.481   3.688 -0.8595  1.1015 -1.5032
15843TIP3   OH269019   1.499   4.982  14.970  0.0482 -0.1836  0.0345
15843TIP3    H169020   1.417   5.026  14.949 -0.5091 -1.2112 -0.0453
15843TIP3    H269021   1.519   5.011  15.059 -0.8158 -0.4968  0.3443
15844TIP3   OH269022   0.355   6.101   1.191 -0.6308  0.0336  0.0989
15844TIP3    H169023   0.280   6.104   1.251 -0.3573 -0.0354  0.4521
15844TIP3    H269024   0.361   6.010   1.164  0.0287 -0.2159  0.9983
15845TIP3   OH269025   4.126   5.074   3.799 -0.2312 -0.2828 -0.1330
15845TIP3    H169026   4.127   5.056   3.893  0.8184 -1.1689 -0.3048
15845TIP3    H269027   4.037   5.053   3.772 -0.9257  1.1726  0.8685
15846TIP3   OH269028   1.447   6.683   1.513  0.4964  0.1192  0.1483
15846TIP3    H169029   1.527   6.669   1.564  0.8009 -0.9586 -0.5946
15846TIP3    H269030   1.401   6.599   1.517 -0.1664  0.4619 -0.1673
15847TIP3   OH269031   1.306   5.830   2.778  0.0980  0.7089  0.5728
15847TIP3    H169032   1.386   5.847   2.730  0.2836 -0.0761  0.5870
15847TIP3    H269033   1.334   5.780   2.855 -0.4038  0.3982  0.5603
15848TIP3   OH269034   6.797   2.337   2.572  0.1415 -0.0437  0.0929
15848TIP3    H169035   6.857   2.380   2.633  0.4041 -2.2109  1.4679
15848TIP3    H269036   6.840   2.255   2.550 -0.5028  0.1557 -2.1535
15849TIP3   OH269037   1.965   0.158   4.155 -0.9780  0.1292  0.7036
15849TIP3    H169038   1.871   0.162   4.170 -0.9100  0.7777  1.0103
15849TIP3    H269039   1.975   0.110   4.073 -1.5589 -0.1550  0.7957
15850TIP3   OH269040   1.646   2.931   0.234  0.5876 -0.6013  0.3434
15850TIP3    H169041   1.674   2.842   0.212 -1.0675 -1.2098  0.6039
15850TIP3    H269042   1.592   2.921   0.312  0.6151  0.6842  0.5543
15851TIP3   OH269043   4.355   2.832  12.947  0.1596 -0.4576 -0.1591
15851TIP3    H169044   4.437   2.828  12.997  0.1985  0.2683 -0.1570
15851TIP3    H269045   4.375   2.888  12.872  0.1532 -1.6848 -1.1154
15852TIP3   OH269046   6.111   2.744  14.342  0.0096  0.1889 -0.3959
15852TIP3    H169047   6.068   2.823  14.309  1.0588  1.1315  0.4372
15852TIP3    H269048   6.198   2.746  14.302  0.8807  0.7268  1.4510
15853TIP3   OH269049   1.572   6.319  12.172 -0.0414  0.1064 -0.2511
15853TIP3    H169050   1.565   6.261  12.095  0.2074  0.0687 -0.2455
15853TIP3    H269051   1.632   6.273  12.231 -1.2525 -0.5050  0.5428
15854TIP3   OH269052   1.228   6.808  13.223  0.3064  0.8910  0.4656
15854TIP3    H169053   1.147   6.808  13.274  0.8472  0.2494  1.3578
15854TIP3    H269054   1.208   6.861  13.146 -1.3125 -0.1733  0.0995
15855TIP3   OH269055   1.453   1.484  15.473  0.3458 -0.3268  0.0736
15855TIP3    H169056   1.444   1.410  15.533  2.9490 -0.6251  0.2318
15855TIP3    H269057   1.441   1.446  15.386  0.9531 -0.8166  0.1957
15856TIP3   OH269058   3.175   0.556  13.833  0.0721  0.3641 -0.1930
15856TIP3    H169059   3.133   0.582  13.751  2.7122 -1.2689 -2.2300
15856TIP3    H269060   3.112   0.580  13.901 -2.1238  2.0758 -2.6338
15857TIP3   OH269061   3.132   0.756   2.850  0.4691  0.8548  0.0290
15857TIP3    H169062   3.139   0.822   2.781 -0.6011 -0.4376 -1.3726
15857TIP3    H269063   3.219   0.755   2.891  0.7364  2.5507 -0.4336
15858TIP3   OH269064   5.533   4.669  11.979  0.3942  0.3525 -0.0290
15858TIP3    H169065   5.498   4.757  11.991 -2.2873 -0.6014 -0.2234
15858TIP3    H269066   5.460   4.611  11.999  1.6876 -1.8160 -1.1748
15859TIP3   OH269067   5.220   3.130  15.789 -0.3063  0.2032  0.2593
15859TIP3    H169068   5.244   3.211  15.833  0.5441 -1.0864  2.3243
15859TIP3    H269069   5.160   3.157  15.719  0.9334  2.6966  0.0609
15860TIP3   OH269070   2.018   3.820   0.754 -0.0738  0.6729 -0.2600
15860TIP3    H169071   2.067   3.827   0.836  2.2840  1.9794 -1.6674
15860TIP3    H269072   1.957   3.748   0.769  1.4721 -0.2848  2.0456
15861TIP3   OH269073   1.570   6.208   4.850  0.3265  0.1905 -0.1419
15861TIP3    H169074   1.617   6.290   4.862 -0.8521  0.8829 -0.0612
15861TIP3    H269075   1.588   6.157   4.929 -1.6312  1.7851  1.4456
15862TIP3   OH269076   5.124   4.472   0.145  0.2772  0.1913  0.0447
15862TIP3    H169077   5.131   4.420   0.065 -0.3359  0.4983 -0.2152
15862TIP3    H269078   5.051   4.532   0.128  0.3506  0.4738  0.7123
15863TIP3   OH269079   3.571   3.874  13.795 -0.2763 -0.6000 -0.6249
15863TIP3    H169080   3.583   3.813  13.868 -0.3516  0.4015  0.2376
15863TIP3    H269081   3.510   3.829  13.736 -1.7017 -0.6506  0.8356
15864TIP3   OH269082   0.819   0.996  14.186 -0.0886  0.7137 -0.1018
15864TIP3    H169083   0.830   1.090  14.170  0.2326  0.6965  0.0156
15864TIP3    H269084   0.739   0.973  14.139 -0.9833  1.3481  1.0587
15865TIP3   OH269085   4.895   1.079  15.200  0.1294  0.3903  0.8752
15865TIP3    H169086   4.805   1.102  15.225  0.5156  2.6371  0.3950
15865TIP3    H269087   4.934   1.046  15.280 -1.4865 -2.0553  0.7760
15866TIP3   OH269088   3.591   0.333   0.207  0.2780 -0.2863  0.2222
15866TIP3    H169089   3.580   0.427   0.225  4.3264  0.5601 -0.6783
15866TIP3    H269090   3.548   0.320   0.123 -0.0398  0.8810  0.1798
15867TIP3   OH269091   1.127   5.191   2.114 -0.1550 -0.2570 -0.6296
15867TIP3    H169092   1.114   5.120   2.051  2.2255 -1.9110  0.5939
15867TIP3    H269093   1.218   5.217   2.102 -0.1541  0.5905  0.9546
15868TIP3   OH269094   6.606   0.185  14.879 -0.2401 -0.2557  0.1415
15868TIP3    H169095   6.694   0.148  14.871 -0.0578  0.0978  0.4596
15868TIP3    H269096   6.554   0.115  14.917  0.5645  0.4304  2.6983
15869TIP3   OH269097   1.254   0.810   1.290  0.1350 -0.1987  0.2562
15869TIP3    H169098   1.216   0.882   1.341  0.2732 -0.4388  0.7067
15869TIP3    H269099   1.178   0.758   1.262  0.1048 -0.5562  0.9693
15870TIP3   OH269100   6.127   5.241   5.075  0.0007 -0.0385  0.6728
15870TIP3    H169101   6.049   5.187   5.064 -0.1463  0.3953 -0.5939
15870TIP3    H269102   6.160   5.218   5.162 -1.9653  0.3494  1.5788
15871TIP3   OH269103   6.567   3.716   2.128  0.3169  0.4973  0.1543
15871TIP3    H169104   6.498   3.778   2.150  0.3262  0.2867  0.8042
15871TIP3    H269105   6.644   3.770   2.113 -0.3077  0.8549 -2.0096
15872TIP3   OH269106   1.179   3.355  14.631  0.2385  0.2473  0.7461
15872TIP3    H169107   1.245   3.423  14.642  1.5860 -1.2502  2.6311
15872TIP3    H269108   1.161   3.353  14.537  2.3480  1.1949  0.2767
15873TIP3   OH269109   6.055   1.625  11.777 -0.3050 -0.1860 -0.0152
15873TIP3    H169110   6.111   1.648  11.851 -0.2118  0.0367 -0.1537
15873TIP3    H269111   6.088   1.540  11.747 -1.8580 -1.4794  1.6997
15874TIP3   OH269112   5.921   3.645   0.955  0.0203  0.5788 -0.2786
15874TIP3    H169113   5.928   3.736   0.984  2.5413  0.1033  0.8262
15874TIP3    H269114   5.976   3.640   0.876  0.6001 -0.1441  0.1529
15875TIP3   OH269115   2.506   0.170  16.479  0.0081 -0.2832  0.3890
15875TIP3    H169116   2.587   0.168  16.531 -0.2565 -0.9781  0.7979
15875TIP3    H269117   2.532   0.140  16.392  0.6570  1.8767 -0.2205
15876TIP3   OH269118   0.434   6.682  10.762 -0.0943 -0.1085 -0.2464
15876TIP3    H169119   0.385   6.760  10.734  0.5624  1.3504  2.3441
15876TIP3    H269120   0.508   6.678  10.702 -1.6827 -0.6156 -2.3347
15877TIP3   OH269121   0.388   0.206  14.998 -0.1542  0.7565 -0.4514
15877TIP3    H169122   0.305   0.253  14.989  0.0285  0.8687 -1.6625
15877TIP3    H269123   0.454   0.265  14.963  0.3802  0.4641  0.0435
15878TIP3   OH269124   5.669   0.477  11.328  0.2985  0.3642 -0.2001
15878TIP3    H169125   5.599   0.459  11.266  0.6712  0.5336 -0.6768
15878TIP3    H269126   5.685   0.571  11.320 -0.7690  0.7077  1.3517
15879TIP3   OH269127   2.430   1.028   2.406  0.0873 -0.2797 -0.3953
15879TIP3    H169128   2.364   1.085   2.446  0.3953  1.1090 -1.7602
15879TIP3    H269129   2.507   1.085   2.396  1.2125 -1.6142  0.3312
15880TIP3   OH269130   4.599   2.982   2.322 -0.2583 -0.2122  0.0226
15880TIP3    H169131   4.671   2.958   2.380 -0.2010 -0.8655 -0.3102
15880TIP3    H269132   4.526   2.926   2.348 -0.9092  0.9860  0.8753
15881TIP3   OH269133   6.240   1.241  16.844 -0.3534  0.6902 -0.2253
15881TIP3    H169134   6.188   1.167  16.812  1.3590 -1.4087  1.5026
15881TIP3    H269135   6.206   1.257  16.932  0.6541  0.5636  0.1940
15882TIP3   OH269136   6.666   0.404  13.451  0.0593  0.2351 -0.2103
15882TIP3    H169137   6.708   0.482  13.488  1.1472 -1.3181  1.9933
15882TIP3    H269138   6.584   0.437  13.415 -0.7104  2.0910  2.8746
15883TIP3   OH269139   2.880   1.771   0.116  0.6249 -0.3309  0.1826
15883TIP3    H169140   2.929   1.853   0.107  1.0271 -0.4485  1.2096
15883TIP3    H269141   2.866   1.761   0.210 -1.8686 -0.0378 -0.0838
15884TIP3   OH269142   0.264   2.384  12.640 -0.0379  0.2664 -0.2715
15884TIP3    H169143   0.321   2.308  12.628 -1.7086 -0.9726 -0.7154
15884TIP3    H269144   0.178   2.354  12.610 -0.5818  2.6007 -1.2560
15885TIP3   OH269145   4.305   1.765   3.322 -0.0302  0.5169  0.0949
15885TIP3    H169146   4.350   1.838   3.279 -0.5045  1.3308  0.9466
15885TIP3    H269147   4.342   1.687   3.281  0.1746  1.2374 -1.1506
15886TIP3   OH269148   5.637   0.246  16.303 -0.4617  0.1604 -0.7027
15886TIP3    H169149   5.713   0.192  16.324  0.1408  1.2339 -0.0488
15886TIP3    H269150   5.668   0.305  16.234 -1.6222 -1.4591 -2.7472
15887TIP3   OH269151   6.505   4.293  14.422 -0.3497 -0.2797  0.2464
15887TIP3    H169152   6.599   4.284  14.405 -0.4922 -0.8579 -0.2790
15887TIP3    H269153   6.498   4.288  14.517  0.1953  0.2147  0.3161
15888TIP3   OH269154   0.885   1.659   0.403  0.5096 -0.3470 -0.4755
15888TIP3    H169155   0.859   1.566   0.405 -1.4469  0.1663  0.5714
15888TIP3    H269156   0.809   1.706   0.437  1.8889  1.5635  0.1513
15889TIP3   OH269157   5.143   3.121  14.431 -0.0859 -0.1793  0.0885
15889TIP3    H169158   5.183   3.085  14.510  0.0178 -0.4382 -0.0801
15889TIP3    H269159   5.082   3.053  14.402  0.5980 -0.5190 -0.6088
15890TIP3   OH269160   1.518   2.282   2.950  0.6392  0.2284  0.2244
15890TIP3    H169161   1.471   2.206   2.916 -1.4393  1.4249  0.2840
15890TIP3    H269162   1.481   2.296   3.037  0.6170  1.5998  0.0062
15891TIP3   OH269163   4.454   5.253  14.478 -0.3410  0.0852  0.1882
15891TIP3    H169164   4.529   5.277  14.424  0.1502 -1.2468  0.2491
15891TIP3    H269165   4.445   5.325  14.540  0.1932  0.7852 -0.5213
15892TIP3   OH269166   0.404   3.169  16.471 -0.0384 -0.1719  0.4137
15892TIP3    H169167   0.417   3.077  16.492  0.3842 -0.2243 -0.0555
15892TIP3    H269168   0.480   3.192  16.417 -0.4633  0.2819  0.0048
15893TIP3   OH269169   4.088   0.712  17.064 -0.1705 -0.0380  0.3384
15893TIP3    H169170   3.998   0.739  17.083 -0.3606  0.0357 -0.6098
15893TIP3    H269171   4.136   0.794  17.055 -0.8032  0.1304 -2.8077
15894TIP3   OH269172   0.507   6.015   4.273 -0.5155 -0.4733 -0.3624
15894TIP3    H169173   0.516   5.982   4.184 -0.5974  0.8170 -0.8602
15894TIP3    H269174   0.589   6.061   4.290 -0.1890 -1.3322  0.5173
15895TIP3   OH269175   3.033   0.359  13.375 -0.5560  0.1945 -0.0458
15895TIP3    H169176   3.068   0.399  13.295  1.9397 -0.0272  0.8676
15895TIP3    H269177   3.062   0.417  13.445 -1.4168 -0.4488  0.8682
15896TIP3   OH269178   3.394   2.676   4.212  0.0572 -0.5561 -0.3168
15896TIP3    H169179   3.451   2.713   4.145 -0.6732  1.2958  0.0461
15896TIP3    H269180   3.320   2.640   4.163  0.9966 -2.0533 -0.7062
15897TIP3   OH269181   4.239   3.071  13.514  0.0939 -0.2412 -0.3351
15897TIP3    H169182   4.172   3.091  13.450  0.9192 -0.8380 -1.4161
15897TIP3    H269183   4.270   2.984  13.490 -0.1729 -0.8509  1.4071
15898TIP3   OH269184   6.674   3.978  14.953 -0.1285 -1.3639 -0.0231
15898TIP3    H169185   6.657   4.064  14.915  0.3446 -0.2125  2.1889
15898TIP3    H269186   6.593   3.929  14.938 -0.9985  0.0004  0.0347
15899TIP3   OH269187   5.931   2.273  12.232 -0.0552 -0.3494  0.0652
15899TIP3    H169188   5.929   2.209  12.303 -0.9560 -0.5830 -0.1574
15899TIP3    H269189   5.997   2.337  12.259  0.4121 -1.0340  0.5800
15900TIP3   OH269190   5.893   1.077  16.412 -0.1813  0.8911  0.0554
15900TIP3    H169191   5.930   1.141  16.473  1.4901  0.1734 -0.1411
15900TIP3    H269192   5.956   1.075  16.339 -1.0121  0.1473 -0.6623
15901TIP3   OH269193   1.072   5.053   2.344  0.0091  0.0844 -0.1594
15901TIP3    H169194   0.978   5.065   2.356  0.1101  0.6667  0.0725
15901TIP3    H269195   1.096   5.116   2.277  0.2946  0.1878  0.0365
15902TIP3   OH269196   6.264   3.061  11.412  0.0369 -0.2345 -0.5770
15902TIP3    H169197   6.252   3.089  11.502  2.2928 -1.8556  0.2950
15902TIP3    H269198   6.327   3.123  11.375  0.2097 -0.4237 -0.5999
15903TIP3   OH269199   2.543   4.687  12.057 -0.3684 -1.3121 -0.0995
15903TIP3    H169200   2.523   4.686  11.964 -0.8330 -1.5624 -0.0009
15903TIP3    H269201   2.580   4.774  12.073  0.3725 -1.5112 -0.6460
15904TIP3   OH269202   5.544   6.484  12.176 -0.4662  0.4739 -0.4065
15904TIP3    H169203   5.613   6.543  12.205 -0.8868  1.3176 -1.0682
15904TIP3    H269204   5.565   6.400  12.217  1.3745  0.4912 -1.2208
15905TIP3   OH269205   1.304   1.922   6.286  0.7091 -0.0224  0.7321
15905TIP3    H169206   1.334   2.012   6.298  1.7411 -0.2527 -0.0371
15905TIP3    H269207   1.359   1.870   6.344  0.6522 -0.2469  0.5885
15906TIP3   OH269208   5.179   5.980  15.053  0.3902  0.6208  0.6938
15906TIP3    H169209   5.199   6.024  14.970  0.0991 -0.6526 -0.0855
15906TIP3    H269210   5.090   6.008  15.074  0.0294  0.0701 -0.0383
15907TIP3   OH269211   5.280   1.845   0.400 -0.4814 -0.2664 -0.0646
15907TIP3    H169212   5.274   1.860   0.494  1.8264  0.1897  0.0546
15907TIP3    H269213   5.370   1.866   0.377 -0.2023 -2.8880 -1.9215
15908TIP3   OH269214   2.773   3.101  13.598  0.0597  0.6991  0.1492
15908TIP3    H169215   2.775   3.068  13.508 -1.7455  0.5009  0.1593
15908TIP3    H269216   2.816   3.186  13.593 -0.0009  0.6824 -0.8904
15909TIP3   OH269217   6.320   5.578   0.761  0.9254  0.1887  0.0849
15909TIP3    H169218   6.371   5.506   0.799  1.2936 -1.3466 -2.9751
15909TIP3    H269219   6.252   5.534   0.710  0.6819  2.0178 -1.2471
15910TIP3   OH269220   6.533   6.349  13.029 -0.4376 -0.2232 -0.0615
15910TIP3    H169221   6.503   6.435  13.057  2.0460  0.7028 -0.0025
15910TIP3    H269222   6.464   6.317  12.971 -1.3628  1.8796 -0.1975
15911TIP3   OH269223   4.929   2.366  14.619 -0.0105 -0.0730  0.3708
15911TIP3    H169224   4.886   2.412  14.547  0.4370 -0.1251  0.0717
15911TIP3    H269225   4.944   2.433  14.686 -0.4733 -0.0362  0.4440
15912TIP3   OH269226   2.507   1.161  12.354  0.1514 -0.2072  0.8028
15912TIP3    H169227   2.515   1.245  12.399 -2.1668  1.3458 -1.4087
15912TIP3    H269228   2.597   1.128  12.350  1.3764  2.8135  0.6506
15913TIP3   OH269229   2.791   1.639  17.006  0.9605  0.2719  0.3847
15913TIP3    H169230   2.763   1.592  17.084  1.8245 -0.5466  0.2203
15913TIP3    H269231   2.776   1.578  16.934 -1.2240  1.5328 -0.3395
15914TIP3   OH269232   0.003   4.214   1.174  0.7778  0.5424 -0.3095
15914TIP3    H169233   0.055   4.134   1.176  0.9807  0.6436 -1.0717
15914TIP3    H269234  -0.059   4.200   1.103 -0.7267  0.1402  1.0308
15915TIP3   OH269235   5.014   5.592  16.182 -0.1147  0.4661 -0.0373
15915TIP3    H169236   5.107   5.566  16.180 -0.6226 -1.5271 -1.7278
15915TIP3    H269237   5.001   5.626  16.270  1.8245 -0.8718  0.8530
15916TIP3   OH269238   2.481   4.215  13.758 -0.2103 -0.0259  0.3530
15916TIP3    H169239   2.513   4.196  13.847  1.7943  2.3291  0.2556
15916TIP3    H269240   2.508   4.306  13.742 -2.9669  0.5615 -1.6632
15917TIP3   OH269241   3.842   0.949  13.313  0.2961  0.2268 -0.1411
15917TIP3    H169242   3.884   0.940  13.399 -1.0769  0.0674  0.5288
15917TIP3    H269243   3.795   1.032  13.318  0.7575  0.5567 -1.0007
15918TIP3   OH269244   5.255   4.730  16.350 -0.3555  0.0492  0.1814
15918TIP3    H169245   5.325   4.772  16.301  0.3870  0.3705  1.4664
15918TIP3    H269246   5.180   4.789  16.341  1.0729  2.6659  3.2512
15919TIP3   OH269247   2.370   4.001  14.552  0.1085 -0.3251 -0.2034
15919TIP3    H169248   2.329   4.055  14.620  1.6774 -1.8120  2.0547
15919TIP3    H269249   2.296   3.962  14.505 -1.0370  2.0008 -0.4672
15920TIP3   OH269250   6.196   5.070   1.755 -0.3826  0.6443 -0.2094
15920TIP3    H169251   6.136   5.143   1.743  0.4007  1.6582  1.6133
15920TIP3    H269252   6.275   5.110   1.793  0.1922 -1.0966  0.5452
15921TIP3   OH269253   0.805   5.441   2.147 -0.2345  0.7391  0.2184
15921TIP3    H169254   0.796   5.372   2.213 -0.7411  1.4257  0.8767
15921TIP3    H269255   0.894   5.430   2.114  0.1025  0.4951  1.1579
15922TIP3   OH269256   3.450   2.693   2.204 -0.0423 -0.1236  0.4091
15922TIP3    H169257   3.445   2.751   2.280  2.4377  0.5075  0.1747
15922TIP3    H269258   3.404   2.741   2.135  1.2250  1.2264  0.4520
15923TIP3   OH269259   3.987   4.076   0.648 -0.2251 -0.7433 -0.1907
15923TIP3    H169260   3.992   4.125   0.730  0.7512  0.0463 -0.7092
15923TIP3    H269261   4.064   4.019   0.649  1.8709  1.8150 -2.1090
15924TIP3   OH269262   1.667   3.060   2.745  0.2350 -0.3007  0.5260
15924TIP3    H169263   1.581   3.044   2.705 -0.1236  0.2006  1.0876
15924TIP3    H269264   1.702   2.972   2.761 -0.7166 -0.5403  1.4351
15925TIP3   OH269265   3.560   4.069  11.586  0.3913  0.1651  0.0164
15925TIP3    H169266   3.621   4.014  11.536 -0.1096 -0.5041  0.1295
15925TIP3    H269267   3.474   4.031  11.568 -0.0103  1.1391 -0.1924
15926TIP3   OH269268   0.264   5.482   0.136 -0.1496 -0.1348 -1.1785
15926TIP3    H169269   0.312   5.452   0.212 -2.1919 -0.7097 -0.0421
15926TIP3    H269270   0.263   5.578   0.143 -1.3208 -0.2212  0.2154
15927TIP3   OH269271   0.445   4.427   4.240  0.7880 -0.4685  0.4363
15927TIP3    H169272   0.486   4.449   4.324  1.2708 -0.3455  0.1770
15927TIP3    H269273   0.487   4.487   4.178  0.0452 -0.1876  0.1981
15928TIP3   OH269274   1.749   4.044   3.224 -0.0338  0.2875  0.7222
15928TIP3    H169275   1.662   4.003   3.217 -0.5106  1.2495  0.8360
15928TIP3    H269276   1.760   4.089   3.140  1.4122 -1.7692 -0.2922
15929TIP3   OH269277   3.127   1.215   6.812 -0.0272  0.5049 -0.0317
15929TIP3    H169278   3.132   1.297   6.861  0.5563 -0.4422  1.5819
15929TIP3    H269279   3.067   1.160   6.862  2.3775 -1.3402  1.0393
15930TIP3   OH269280   0.630   2.855  12.929 -0.0771 -0.0198  0.0625
15930TIP3    H169281   0.646   2.763  12.949  1.0776  0.6400  2.6598
15930TIP3    H269282   0.535   2.864  12.930 -0.2692 -1.3662 -1.5094
15931TIP3   OH269283   4.529   6.244   0.192 -0.2660  0.6115 -0.0931
15931TIP3    H169284   4.494   6.327   0.162 -2.9550 -0.7237 -0.9129
15931TIP3    H269285   4.463   6.210   0.252  1.4203 -0.3488  1.3058
15932TIP3   OH269286   5.075   3.810   3.246 -0.1869 -0.2632  0.2393
15932TIP3    H169287   5.021   3.731   3.231 -0.2951  0.1267 -1.6847
15932TIP3    H269288   5.152   3.778   3.293 -0.2025 -1.5355 -0.5630
15933TIP3   OH269289   5.507   2.636  16.584  1.0126  0.5334  0.1307
15933TIP3    H169290   5.496   2.711  16.525 -1.6561  0.3887  0.3174
15933TIP3    H269291   5.425   2.634  16.634  0.7381 -2.8615 -0.2740
15934TIP3   OH269292   6.416   3.064   3.959  0.0509  0.0767 -0.6440
15934TIP3    H169293   6.457   3.114   3.889  0.5259  1.9478  0.9047
15934TIP3    H269294   6.489   3.024   4.006 -0.0336  1.2584  0.5356
15935TIP3   OH269295   5.185   6.452   4.765 -0.3777 -0.5824  0.1501
15935TIP3    H169296   5.173   6.520   4.831  0.7639  1.6383 -1.7622
15935TIP3    H269297   5.116   6.389   4.782 -2.8897  2.1186  0.8007
15936TIP3   OH269298   5.570   4.260   0.374 -0.6752  0.0110 -0.7840
15936TIP3    H169299   5.629   4.282   0.302 -0.2152 -0.9496 -0.7286
15936TIP3    H269300   5.483   4.286   0.344 -0.2530  1.3425 -0.9213
15937TIP3   OH269301   2.397   0.390   4.512 -0.6290  0.0198 -0.5568
15937TIP3    H169302   2.425   0.316   4.565  2.5536  0.7763 -0.9140
15937TIP3    H269303   2.346   0.445   4.571 -0.0008 -0.7636  0.7549
15938TIP3   OH269304   1.183   2.314   6.184  0.2901 -0.7069  0.3284
15938TIP3    H169305   1.256   2.373   6.202  0.7497 -0.9868 -0.6068
15938TIP3    H269306   1.136   2.308   6.268  1.8808 -1.2842  1.2122
15939TIP3   OH269307   0.253   4.313  12.368 -0.2972  0.2180  0.2707
15939TIP3    H169308   0.274   4.350  12.454  0.3292  0.1043  0.1711
15939TIP3    H269309   0.202   4.381  12.324  1.0676  1.0824 -0.0150
15940TIP3   OH269310   3.586   5.860  14.676  0.4519  0.4893  0.0554
15940TIP3    H169311   3.498   5.855  14.640  0.5150  1.1842 -0.2063
15940TIP3    H269312   3.630   5.927  14.624  1.1498  0.1268  0.1572
15941TIP3   OH269313   4.457   0.381  16.891 -0.0347 -0.1796  0.1743
15941TIP3    H169314   4.389   0.313  16.895  0.2266 -0.4245  0.4328
15941TIP3    H269315   4.408   0.462  16.883 -0.3469 -0.5142 -2.1118
15942TIP3   OH269316   0.060   0.671  16.435 -0.3890 -0.0371 -0.2165
15942TIP3    H169317   0.081   0.723  16.357 -0.0085 -1.0711 -0.8325
15942TIP3    H269318   0.143   0.668  16.484 -0.2807 -0.4256 -0.4142
15943TIP3   OH269319   1.212   5.798   2.193  0.2915 -0.1085 -0.4039
15943TIP3    H169320   1.179   5.826   2.108 -0.5547  0.3686  0.0729
15943TIP3    H269321   1.136   5.761   2.237  0.4148  0.8151  0.6269
15944TIP3   OH269322   2.194   3.203   1.621 -0.7731  0.4048  0.5768
15944TIP3    H169323   2.167   3.295   1.627  0.6661  0.9939 -1.0985
15944TIP3    H269324   2.144   3.167   1.548 -0.5458  0.1636  0.5381
15945TIP3   OH269325   6.621   0.992   5.129 -0.0467  0.0122  0.3251
15945TIP3    H169326   6.557   0.978   5.060  0.0866  0.8978  0.0004
15945TIP3    H269327   6.703   1.010   5.083  0.3199 -0.5894  0.7291
15946TIP3   OH269328   5.811   4.109  15.067  0.0103 -0.8323 -0.5179
15946TIP3    H169329   5.837   4.201  15.076  0.7636 -0.9332 -1.4599
15946TIP3    H269330   5.861   4.078  14.991 -0.1599 -2.0515 -0.1406
15947TIP3   OH269331   1.015   3.388  11.318  0.2551 -0.1959  0.6047
15947TIP3    H169332   1.051   3.329  11.251 -2.0579 -1.3268  0.2624
15947TIP3    H269333   0.998   3.470  11.272 -0.4671 -0.6659  0.0255
15948TIP3   OH269334   5.263   0.526  14.444 -0.1087 -0.1388 -0.0100
15948TIP3    H169335   5.224   0.593  14.500 -0.5673 -0.4405  0.0359
15948TIP3    H269336   5.316   0.576  14.381 -0.5609  0.2786 -0.0682
15949TIP3   OH269337   0.564   3.654   4.642  0.2265  0.3518 -0.2232
15949TIP3    H169338   0.575   3.728   4.702  1.1465 -0.8370  1.1583
15949TIP3    H269339   0.579   3.577   4.697 -2.1642 -0.9502 -1.2644
15950TIP3   OH269340   5.400   3.869  15.644  0.5301  0.2276 -0.0675
15950TIP3    H169341   5.403   3.964  15.647 -0.9540  0.2858  0.4760
15950TIP3    H269342   5.308   3.847  15.656  0.7331 -1.2631 -0.9352
15951TIP3   OH269343   6.794   1.646   2.190  0.3149 -0.8796 -0.5447
15951TIP3    H169344   6.863   1.587   2.159  2.0624  1.1488 -0.7555
15951TIP3    H269345   6.779   1.620   2.281  1.4379 -1.3166 -0.4681
15952TIP3   OH269346   5.523   5.623   2.905 -0.0432  0.2408  0.2990
15952TIP3    H169347   5.468   5.613   2.983 -1.3306  1.3587 -0.4344
15952TIP3    H269348   5.613   5.620   2.939 -0.5439 -0.7242  1.6290
15953TIP3   OH269349   2.404   1.596   2.202  0.0991 -0.1985  0.6139
15953TIP3    H169350   2.418   1.574   2.110  1.0058 -0.1382  0.7249
15953TIP3    H269351   2.351   1.676   2.199  0.3600 -0.0341  0.1353
15954TIP3   OH269352   6.110   1.146  13.992  0.1016  0.1502  0.1936
15954TIP3    H169353   6.131   1.230  13.951  1.0173 -0.5147 -0.7532
15954TIP3    H269354   6.070   1.094  13.923  0.9632 -0.7179  0.3193
15955TIP3   OH269355   4.676   6.132  15.041  0.5168 -0.0892 -0.6716
15955TIP3    H169356   4.603   6.127  15.102 -0.0809 -1.3446 -1.4613
15955TIP3    H269357   4.695   6.041  15.017  0.6859  0.3512 -2.3938
15956TIP3   OH269358   6.235   0.020  15.951 -0.9659 -0.0838 -0.1969
15956TIP3    H169359   6.201   0.110  15.950 -1.0906 -0.0892  1.1316
15956TIP3    H269360   6.217  -0.011  16.040 -0.3148 -1.1937 -0.4361
15957TIP3   OH269361   6.746   6.815  15.670 -0.0171  0.1898  0.9456
15957TIP3    H169362   6.817   6.822  15.733  0.4122  0.3965  0.4480
15957TIP3    H269363   6.785   6.841  15.586 -0.6745  0.2987  0.6634
15958TIP3   OH269364   1.432   2.960   1.094 -0.4922 -0.5296  0.5572
15958TIP3    H169365   1.440   3.038   1.040 -0.4470 -1.0880 -0.2514
15958TIP3    H269366   1.501   2.969   1.159  0.4846 -0.6165 -0.4468
15959TIP3   OH269367   4.176   3.761   2.288  0.0424  0.5897  0.1050
15959TIP3    H169368   4.128   3.843   2.298  0.6918  0.8994  0.8052
15959TIP3    H269369   4.262   3.779   2.326  0.1503 -0.4559  0.3882
15960TIP3   OH269370   5.017   4.622   4.748 -0.0036  0.5791  1.3220
15960TIP3    H169371   4.974   4.672   4.818  0.5008 -0.5341  2.4730
15960TIP3    H269372   5.063   4.551   4.794  0.3944 -0.1550 -0.1444
15961TIP3   OH269373   5.599   6.496   6.621  0.0923 -0.3454  0.0945
15961TIP3    H169374   5.663   6.547   6.571  0.3777 -0.0235  0.7638
15961TIP3    H269375   5.526   6.484   6.562 -0.1626  1.2168  0.0394
15962TIP3   OH269376   1.187   0.085   2.377 -0.1197  0.5728 -0.7293
15962TIP3    H169377   1.101   0.071   2.338 -0.5612  0.2715  0.3387
15962TIP3    H269378   1.196   0.016   2.442  0.2246  1.5813  0.3222
15963TIP3   OH269379   1.463   6.592  16.590 -0.0743  0.2436  0.0785
15963TIP3    H169380   1.558   6.593  16.594 -0.0607  2.1366  0.4461
15963TIP3    H269381   1.443   6.591  16.496  0.4031  2.8603 -0.1242
15964TIP3   OH269382   5.127   3.761   5.680  0.9094 -0.1197 -0.6078
15964TIP3    H169383   5.133   3.727   5.590 -1.0750  0.1843 -0.8960
15964TIP3    H269384   5.035   3.751   5.703  0.9772  1.7470  0.6284
15965TIP3   OH269385   3.714   1.077  16.059  0.3591 -0.3410 -0.1473
15965TIP3    H169386   3.776   1.142  16.092  0.2816 -0.7913  0.9458
15965TIP3    H269387   3.739   1.064  15.968 -0.4581  2.1989 -0.8305
15966TIP3   OH269388   4.554   3.673   3.520 -0.1442  0.1079 -0.7011
15966TIP3    H169389   4.597   3.650   3.602  0.8457  0.5809 -1.0770
15966TIP3    H269390   4.461   3.656   3.536  0.3114 -2.3550 -0.3565
15967TIP3   OH269391   5.153   4.527   3.751 -0.8794  0.2260 -0.2948
15967TIP3    H169392   5.177   4.462   3.817  1.2076  1.0363 -0.1883
15967TIP3    H269393   5.135   4.606   3.801 -4.3224 -0.3459 -0.3341
15968TIP3   OH269394   2.023   3.259   4.013 -0.1054  0.1177  0.4851
15968TIP3    H169395   2.021   3.339   3.961 -0.7663 -0.1577  0.0720
15968TIP3    H269396   1.976   3.195   3.960  1.2269 -0.8149  0.3775
15969TIP3   OH269397   5.729   0.652  15.855 -0.3612  0.6322  0.0213
15969TIP3    H169398   5.771   0.694  15.930  1.6925 -1.2233 -0.0047
15969TIP3    H269399   5.685   0.575  15.892  0.1894  0.0163 -0.5839
15970TIP3   OH269400   2.617   5.637  13.890  1.0560 -0.1812  0.1748
15970TIP3    H169401   2.623   5.721  13.936 -1.7689  0.0026  0.3284
15970TIP3    H269402   2.637   5.658  13.799  1.4760  0.4223  0.3966
15971TIP3   OH269403   5.606   6.774  12.353 -0.7121 -0.2909  0.5707
15971TIP3    H169404   5.598   6.815  12.439  0.0568  2.5472 -0.5739
15971TIP3    H269405   5.680   6.819  12.312 -1.6110 -0.8878 -1.8842
15972TIP3   OH269406   2.335   5.341   2.978  0.3443  0.1585 -0.1778
15972TIP3    H169407   2.404   5.332   2.913  1.3362 -0.7814  0.9597
15972TIP3    H269408   2.362   5.284   3.050 -0.1382  1.9871  1.5503
15973TIP3   OH269409   6.106   3.796   1.485 -0.7227 -0.4438  0.2285
15973TIP3    H169410   6.124   3.890   1.484 -2.7132  0.0068  1.2995
15973TIP3    H269411   6.164   3.760   1.418  0.2246  1.5052 -0.0760
15974TIP3   OH269412   1.323   2.513   3.496  0.1200  0.2553 -0.0668
15974TIP3    H169413   1.236   2.475   3.502 -0.5924  1.9788  1.4706
15974TIP3    H269414   1.383   2.439   3.508 -1.0837 -1.0008 -1.4944
15975TIP3   OH269415   5.169   0.414   6.172  0.7503 -0.1341 -0.3655
15975TIP3    H169416   5.231   0.486   6.183  0.3150  0.1343  0.4264
15975TIP3    H269417   5.205   0.342   6.225  0.1963  0.1553  0.4238
15976TIP3   OH269418   3.298   4.351  15.663 -0.4896 -0.3271  0.0234
15976TIP3    H169419   3.318   4.376  15.573 -1.0472  0.2037  0.0342
15976TIP3    H269420   3.283   4.435  15.708  0.1225 -0.5662  0.6937
15977TIP3   OH269421   1.139   0.592  11.325 -0.4107  0.1501  0.0714
15977TIP3    H169422   1.095   0.528  11.380  1.4176 -1.7825 -0.5795
15977TIP3    H269423   1.122   0.563  11.235  0.1713  0.7664 -0.2489
15978TIP3   OH269424   0.846   5.164  15.185 -0.4973 -0.0418 -0.1087
15978TIP3    H169425   0.872   5.106  15.257  2.0196 -0.0373 -0.9063
15978TIP3    H269426   0.837   5.105  15.110  1.0080  0.3929 -0.6760
15979TIP3   OH269427   5.326   0.689  11.187 -0.4432 -0.0323 -0.5412
15979TIP3    H169428   5.320   0.641  11.105  1.6835 -0.2974 -0.6103
15979TIP3    H269429   5.364   0.774  11.162  1.0516 -0.4391  0.2249
15980TIP3   OH269430   1.134   0.036  15.020  0.0751  0.6522 -0.6079
15980TIP3    H169431   1.137   0.024  15.115 -3.0142  1.6073 -0.2880
15980TIP3    H269432   1.139  -0.053  14.985 -1.7454 -0.0195  0.6611
15981TIP3   OH269433   6.811   3.409   3.507 -0.1819  0.1199  0.0779
15981TIP3    H169434   6.857   3.367   3.435  1.5087 -0.0240  1.1879
15981TIP3    H269435   6.873   3.472   3.543 -0.4802 -0.6906  2.1911
15982TIP3   OH269436   2.585   4.581   3.841  0.0286  0.5277  0.3801
15982TIP3    H169437   2.616   4.494   3.865  0.2999  0.4087 -0.3504
15982TIP3    H269438   2.665   4.631   3.824 -0.1353  0.7340  0.2053
15983TIP3   OH269439   2.441   6.106   2.940 -0.2037  0.0106 -0.1510
15983TIP3    H169440   2.405   6.155   2.866  1.4863  1.6008  0.0139
15983TIP3    H269441   2.524   6.071   2.907 -1.1124 -2.4080 -0.0975
15984TIP3   OH269442   6.537   0.765  11.895  0.0159  0.0075 -0.1996
15984TIP3    H169443   6.541   0.857  11.869 -0.3032  0.6592  1.9001
15984TIP3    H269444   6.625   0.731  11.879  0.0567  0.5872 -1.2645
15985TIP3   OH269445   5.459   4.325  14.603 -0.3691 -0.2101  0.4347
15985TIP3    H169446   5.543   4.290  14.575 -0.9894  0.2921 -2.3658
15985TIP3    H269447   5.407   4.247  14.627 -0.0213 -0.7783 -0.6029
15986TIP3   OH269448   4.388   6.764   5.824 -0.1470  0.3491  0.0099
15986TIP3    H169449   4.364   6.757   5.916  0.0685 -0.8163 -0.0038
15986TIP3    H269450   4.338   6.694   5.781  3.1692 -2.3125  0.0042
15987TIP3   OH269451   5.191   5.737   0.265 -0.7693  0.6671 -0.0645
15987TIP3    H169452   5.229   5.671   0.207 -1.1202 -0.2317  0.7029
15987TIP3    H269453   5.118   5.774   0.216  1.5082  3.0814 -1.9573
15988TIP3   OH269454   0.243   4.374  13.690  0.0984  0.1255  0.3332
15988TIP3    H169455   0.250   4.291  13.737  1.3241 -0.3982 -0.6947
15988TIP3    H269456   0.151   4.399  13.697 -0.2232 -1.1713  0.9042
15989TIP3   OH269457   3.052   4.715   6.252 -0.2180 -0.2387 -0.0927
15989TIP3    H169458   3.136   4.759   6.262  0.2426 -1.1621  0.1418
15989TIP3    H269459   3.069   4.624   6.275 -1.4003 -0.3321  0.4970
15990TIP3   OH269460   5.452   4.113   2.347  0.2537  0.5210  0.1171
15990TIP3    H169461   5.444   4.025   2.384 -0.3434  0.7220  0.4744
15990TIP3    H269462   5.544   4.119   2.320  0.0804 -0.5317 -0.7468
15991TIP3   OH269463   5.885   4.371   5.049 -0.7942  0.8469  0.3977
15991TIP3    H169464   5.823   4.364   4.976  0.0281  1.6892 -0.4146
15991TIP3    H269465   5.868   4.457   5.086 -0.8373  0.6389  0.8673
15992TIP3   OH269466   0.477   6.780  16.304 -0.0516 -0.1649 -0.3308
15992TIP3    H169467   0.389   6.752  16.330 -0.0374 -1.0255 -1.1224
15992TIP3    H269468   0.535   6.721  16.352  0.1735  1.1542  1.0957
15993TIP3   OH269469   2.030   2.505   3.560 -0.4326 -0.4357 -0.3731
15993TIP3    H169470   2.057   2.591   3.527 -1.1090 -0.7218 -1.7283
15993TIP3    H269471   1.938   2.517   3.583 -1.1224 -1.3089 -2.5230
15994TIP3   OH269472   1.431   2.375  12.660 -0.1698 -0.0059 -0.2823
15994TIP3    H169473   1.466   2.360  12.572  0.7810  1.1069 -0.1142
15994TIP3    H269474   1.465   2.302  12.711  1.8411  0.9403 -0.1670
15995TIP3   OH269475   1.722   0.560  11.106  0.4423  0.0169 -0.1010
15995TIP3    H169476   1.688   0.470  11.099 -0.0005  0.2260 -0.7549
15995TIP3    H269477   1.707   0.584  11.198  4.8605 -2.2131  1.4554
15996TIP3   OH269478   5.737   4.287   2.942 -0.1461 -0.6957 -0.0928
15996TIP3    H169479   5.750   4.306   3.035  3.3783 -0.7574 -0.4425
15996TIP3    H269480   5.774   4.199   2.931  0.0522 -0.4364 -1.6314
15997TIP3   OH269481   4.865   6.007  14.384  0.2379  0.1984  0.0492
15997TIP3    H169482   4.877   6.100  14.403 -1.6956  0.9028 -1.7470
15997TIP3    H269483   4.805   5.976  14.451  0.0815  0.5095  0.0555
15998TIP3   OH269484   5.327   6.695   0.065  0.0005  0.0650 -0.4384
15998TIP3    H169485   5.284   6.610   0.064 -1.1643  0.6390  0.0882
15998TIP3    H269486   5.416   6.677   0.033  0.2982 -1.6235  1.1921
15999TIP3   OH269487   4.472   5.078   0.468  0.1712 -0.6961  0.1264
15999TIP3    H169488   4.382   5.064   0.438 -0.0244 -0.0831  0.3892
15999TIP3    H269489   4.492   5.002   0.522 -0.5959 -0.3291  0.9565
16000TIP3   OH269490   3.750   5.109  10.622  0.3197  0.6399 -0.7202
16000TIP3    H169491   3.731   5.191  10.667 -0.3744  0.1756 -0.1308
16000TIP3    H269492   3.809   5.062  10.682  0.3925  0.5461 -0.8655
16001TIP3   OH269493   4.234   0.666  12.093  0.7944 -0.7991  0.4809
16001TIP3    H169494   4.259   0.621  12.173 -0.6174  0.3361  1.6224
16001TIP3    H269495   4.142   0.691  12.108  1.1210  1.2448 -0.6419
16002TIP3   OH269496   6.317   0.887  12.079 -0.0291  0.3143 -0.4229
16002TIP3    H169497   6.230   0.926  12.072 -0.3016 -0.2271 -0.1131
16002TIP3    H269498   6.322   0.826  12.005  0.1750  0.5171 -0.5757
16003TIP3   OH269499   5.177   6.718  11.430  0.0436 -0.1036 -0.2406
16003TIP3    H169500   5.084   6.729  11.411 -0.0900  0.9018  0.8960
16003TIP3    H269501   5.180   6.660  11.506  0.4181 -1.1422 -1.0195
16004TIP3   OH269502   3.126   4.413  11.806 -0.3808  0.3228  0.7159
16004TIP3    H169503   3.116   4.451  11.893 -0.9448  0.3514  0.6409
16004TIP3    H269504   3.199   4.351  11.815  0.0310  0.8450  1.0300
16005TIP3   OH269505   6.536   4.164  16.429  0.0113  0.1101  0.6267
16005TIP3    H169506   6.608   4.225  16.413 -0.9871  1.0426 -0.5240
16005TIP3    H269507   6.506   4.183  16.518  0.1563  0.8193  0.5238
16006TIP3   OH269508   1.801   4.809   0.169 -0.7910  0.2112  0.0705
16006TIP3    H169509   1.750   4.889   0.183 -3.0162 -1.2288  0.7469
16006TIP3    H269510   1.825   4.780   0.257 -3.6119 -1.9697  0.2759
16007TIP3   OH269511   2.291   3.162  15.501 -0.2305 -0.0494  0.5809
16007TIP3    H169512   2.270   3.113  15.422  0.0351  1.3559 -0.3931
16007TIP3    H269513   2.236   3.241  15.497  1.0298  0.8900  0.8872
16008TIP3   OH269514   3.534   4.538  10.852 -0.0278  0.2274  0.2348
16008TIP3    H169515   3.455   4.508  10.897  0.6130 -1.9148  0.0331
16008TIP3    H269516   3.516   4.524  10.759  1.2816 -2.2814  0.2820
16009TIP3   OH269517   6.741   2.819  14.342  0.3149 -0.7352  0.0487
16009TIP3    H169518   6.785   2.863  14.270  1.8411 -1.0389  0.7402
16009TIP3    H269519   6.680   2.758  14.300  0.5616 -0.3123 -0.9477
16010TIP3   OH269520   6.407   4.881  11.791  0.5734  0.1835 -0.3416
16010TIP3    H169521   6.355   4.802  11.782  0.3650  0.5903 -3.6114
16010TIP3    H269522   6.356   4.936  11.850 -1.9258 -0.1148 -2.0794
16011TIP3   OH269523   1.232   2.975   4.784  0.2400  0.1139 -0.6310
16011TIP3    H169524   1.284   3.001   4.708  0.5611 -0.2564 -0.5420
16011TIP3    H269525   1.167   3.044   4.793  0.5521  0.4470 -0.9027
16012TIP3   OH269526   2.489   0.919   5.511 -0.3623  0.2904  0.1765
16012TIP3    H169527   2.497   0.828   5.539  1.1516  1.0884  2.7558
16012TIP3    H269528   2.431   0.916   5.435 -1.2423 -2.6792  0.8142
16013TIP3   OH269529   3.073   4.051   2.107 -0.2386  0.2644  0.3815
16013TIP3    H169530   2.981   4.022   2.104 -0.2467  0.3007 -2.4138
16013TIP3    H269531   3.111   4.001   2.180 -1.8929 -1.6435  0.0321
16014TIP3   OH269532   6.162   3.571   6.614  0.2201  0.4498  0.1169
16014TIP3    H169533   6.219   3.621   6.672  1.8460  0.8095 -1.6805
16014TIP3    H269534   6.110   3.637   6.569  1.5934  0.5185 -1.4617
16015TIP3   OH269535   5.722   1.891   5.878 -0.1359 -0.2374 -0.2473
16015TIP3    H169536   5.708   1.851   5.792 -2.0144 -0.0923 -0.0618
16015TIP3    H269537   5.635   1.892   5.918  0.6855 -0.2780  1.6628
16016TIP3   OH269538   6.355   5.119  10.692 -0.2685 -0.4485 -0.1413
16016TIP3    H169539   6.271   5.161  10.713 -0.3830 -0.2486 -0.9659
16016TIP3    H269540   6.367   5.055  10.762 -0.8969 -0.1841  0.2261
16017TIP3   OH269541   5.332   1.543   3.032  0.4365  0.0109  0.9043
16017TIP3    H169542   5.362   1.614   2.975  0.1994 -0.0507  0.7055
16017TIP3    H269543   5.239   1.559   3.044  0.3335 -0.4078  0.6602
16018TIP3   OH269544   2.087   1.517  15.037 -0.3149 -0.1293  0.0968
16018TIP3    H169545   2.143   1.594  15.021  0.6063 -0.9399 -0.7160
16018TIP3    H269546   2.008   1.553  15.077 -0.0168  1.2792 -0.5159
16019TIP3   OH269547   2.661   2.524   5.265  0.7663  0.0773  0.2822
16019TIP3    H169548   2.705   2.498   5.185 -1.5601  1.4232 -1.5718
16019TIP3    H269549   2.665   2.620   5.265 -0.3912  0.1495  1.0747
16020TIP3   OH269550   4.806   0.392  11.022  0.1271 -0.3099  0.3747
16020TIP3    H169551   4.783   0.484  11.038  0.3509  0.1255 -1.5306
16020TIP3    H269552   4.895   0.395  10.987 -0.0459 -1.1967 -0.1765
16021TIP3   OH269553   0.419   1.288   1.742  0.0979  0.2062  0.2464
16021TIP3    H169554   0.490   1.292   1.679  0.1334 -1.2818  0.1695
16021TIP3    H269555   0.348   1.242   1.697 -0.3205  0.2091  0.8847
16022TIP3   OH269556   6.732   5.350   3.507  0.2441  0.1771 -0.6232
16022TIP3    H169557   6.773   5.436   3.495  1.8269 -0.5165 -0.3838
16022TIP3    H269558   6.772   5.315   3.586 -2.2968  0.2546  0.7923
16023TIP3   OH269559   5.411   1.949  13.934 -0.3435  0.5514  0.3403
16023TIP3    H169560   5.387   2.008  14.005 -0.0792  2.1598 -0.8628
16023TIP3    H269561   5.452   2.005  13.869  1.2679 -1.1883 -0.2379
16024TIP3   OH269562   5.229   4.927  13.350  0.6422 -1.0454  0.0278
16024TIP3    H169563   5.204   4.914  13.259 -0.3620  2.3188 -0.3230
16024TIP3    H269564   5.162   4.880  13.400 -0.2906 -0.8488 -0.9950
16025TIP3   OH269565   1.097   3.831   3.083  0.5684  0.1748  0.6653
16025TIP3    H169566   1.155   3.893   3.038  1.3391 -0.6463  0.5084
16025TIP3    H269567   1.127   3.745   3.056 -0.5078 -0.2825  0.8750
16026TIP3   OH269568   1.844   2.088   4.759 -0.3252 -0.5203 -0.4103
16026TIP3    H169569   1.755   2.058   4.776 -0.4046  0.0237  0.1449
16026TIP3    H269570   1.835   2.157   4.694 -0.3243 -0.3307 -0.2079
16027TIP3   OH269571   0.884   3.114  11.836 -0.5903 -0.1175 -0.0482
16027TIP3    H169572   0.937   3.040  11.865  0.8392  0.4315 -1.1222
16027TIP3    H269573   0.917   3.134  11.748 -1.3491  1.4086 -0.0191
16028TIP3   OH269574   0.160   6.673  11.375  0.0829 -0.1615 -0.1755
16028TIP3    H169575   0.184   6.693  11.466  0.4896 -0.1246 -0.2882
16028TIP3    H269576   0.088   6.733  11.356 -0.2340 -0.4028  0.2314
16029TIP3   OH269577   2.243   2.628   4.800  0.2246  0.1519  0.3650
16029TIP3    H169578   2.248   2.534   4.817  0.7675  0.1498  0.2143
16029TIP3    H269579   2.331   2.661   4.817  0.5367  0.3147 -1.3890
16030TIP3   OH269580   4.072   4.148  14.253 -0.0334 -0.0325  0.3927
16030TIP3    H169581   3.983   4.133  14.286 -0.5677  2.2141  0.1560
16030TIP3    H269582   4.129   4.102  14.315 -1.2903 -0.6308  1.1521
16031TIP3   OH269583   6.502   0.473   5.169  0.0286 -1.0440  0.3227
16031TIP3    H169584   6.553   0.509   5.241 -0.7180  0.0649  0.3054
16031TIP3    H269585   6.552   0.497   5.091 -0.2497 -0.4006  0.3387
16032TIP3   OH269586   2.631   3.865   6.335  0.6776 -0.0499 -0.4425
16032TIP3    H169587   2.709   3.920   6.342  0.6049 -0.1212  1.5538
16032TIP3    H269588   2.591   3.891   6.253  2.9634 -0.2564 -1.7148
16033TIP3   OH269589   3.500   0.898   5.879 -0.1578 -0.0569  0.2877
16033TIP3    H169590   3.505   0.951   5.799  0.6124  1.7601  1.4615
16033TIP3    H269591   3.592   0.878   5.900 -0.4325 -1.8049 -0.0611
16034TIP3   OH269592   4.875   1.957  16.156  0.0863  0.2878 -0.3139
16034TIP3    H169593   4.963   1.952  16.117 -0.1895  1.5364 -1.1728
16034TIP3    H269594   4.851   1.866  16.173  1.6166 -0.0662  0.1119
16035TIP3   OH269595   4.712   4.203  11.702 -0.2882 -0.4851 -0.3078
16035TIP3    H169596   4.682   4.260  11.632 -1.0752 -1.3758 -0.7147
16035TIP3    H269597   4.632   4.167  11.740  0.0624  0.7216  1.7104
16036TIP3   OH269598   6.283   2.085  14.207  0.5888 -0.3463  0.4736
16036TIP3    H169599   6.338   2.094  14.128  2.4402  0.3460  1.7563
16036TIP3    H269600   6.216   2.021  14.183  1.0629 -0.1306 -1.6637
16037TIP3   OH269601   2.523   4.081  14.021  0.1352 -0.3209 -0.3890
16037TIP3    H169602   2.523   4.022  14.096 -2.2139 -0.7264 -0.6462
16037TIP3    H269603   2.615   4.107  14.011  0.5984 -0.6829  2.2590
16038TIP3   OH269604   2.365   1.096  17.213 -0.3263  0.7573  0.1214
16038TIP3    H169605   2.338   1.140  17.294 -1.0344 -0.2806  0.4732
16038TIP3    H269606   2.397   1.010  17.242 -0.6148  0.3592 -0.6989
16039TIP3   OH269607   5.147   4.332   5.956  0.1410  0.2388  1.0608
16039TIP3    H169608   5.112   4.264   6.014 -0.2555  0.2297  0.8181
16039TIP3    H269609   5.188   4.283   5.885 -0.6369  0.2403  0.5936
16040TIP3   OH269610   4.994   3.031   5.660 -0.1769  0.1710 -0.0930
16040TIP3    H169611   4.912   2.983   5.650  0.0724 -0.5909  1.2683
16040TIP3    H269612   4.978   3.089   5.734  0.7154 -0.4819  0.6340
16041TIP3   OH269613   3.460   0.763   1.347 -0.0768 -0.4441  0.3318
16041TIP3    H169614   3.471   0.806   1.432  0.1624 -1.1811  0.6825
16041TIP3    H269615   3.366   0.773   1.328 -0.4985 -1.7876  1.5310
16042TIP3   OH269616   5.965   4.355  17.152 -0.0511  0.4215 -0.6973
16042TIP3    H169617   6.012   4.400  17.082  1.9203 -2.3991 -1.3805
16042TIP3    H269618   5.989   4.263  17.141 -0.8017 -0.3384  2.8553
16043TIP3   OH269619   5.133   5.463  10.453 -0.1034 -0.4863  0.2768
16043TIP3    H169620   5.155   5.517  10.377 -0.6507 -1.1232 -0.3492
16043TIP3    H269621   5.185   5.500  10.524  0.4979  0.0628 -0.4260
16044TIP3   OH269622   5.625   4.495  15.931  0.1530  0.5369  0.3748
16044TIP3    H169623   5.579   4.557  15.875  1.5036 -0.1715 -1.6586
16044TIP3    H269624   5.715   4.495  15.897  0.9282 -0.2699  2.3015
16045TIP3   OH269625   2.196   5.116  14.907 -0.2597 -0.1763  0.3277
16045TIP3    H169626   2.233   5.082  14.988 -1.1004  0.5340  1.0273
16045TIP3    H269627   2.271   5.146  14.856  0.4519 -2.2480  0.0460
16046TIP3   OH269628   4.466   6.480  14.659 -0.0942 -0.0175  0.0143
16046TIP3    H169629   4.508   6.556  14.618 -1.0632 -0.1961 -1.3855
16046TIP3    H269630   4.373   6.492  14.641 -0.4644 -0.5814  1.4439
16047TIP3   OH269631   0.834   5.270  11.454 -0.3419  0.3783 -0.2234
16047TIP3    H169632   0.896   5.199  11.470 -1.7079 -0.7591  0.2019
16047TIP3    H269633   0.748   5.228  11.451 -1.1103  1.8806 -0.9491
16048TIP3   OH269634   1.693   0.856   1.406  0.0959 -0.0616  0.2237
16048TIP3    H169635   1.718   0.941   1.441  2.1931  0.3558 -1.9600
16048TIP3    H269636   1.735   0.792   1.463  1.2317  0.5004  0.0366
16049TIP3   OH269637   5.111   6.170  13.432  0.1584 -0.3457 -0.3236
16049TIP3    H169638   5.202   6.195  13.418  0.0502 -0.2540 -0.8671
16049TIP3    H269639   5.105   6.081  13.398  0.3425 -0.8305  0.8587
16050TIP3   OH269640   0.837   0.972   4.111  0.2744  0.0549  0.2947
16050TIP3    H169641   0.790   0.974   4.027  1.5765 -0.4876 -0.4656
16050TIP3    H269642   0.919   0.926   4.092 -0.3283 -2.0706  2.3425
16051TIP3   OH269643   1.645   1.123   0.769  0.1120  0.1401 -0.4062
16051TIP3    H169644   1.585   1.059   0.730  0.6221 -2.2922  2.4601
16051TIP3    H269645   1.731   1.101   0.733 -0.2877  2.5545 -3.2132
16052TIP3   OH269646   0.300   0.330  11.076  0.4782 -0.3956  0.4709
16052TIP3    H169647   0.329   0.242  11.102  0.6964  0.4163  3.2833
16052TIP3    H269648   0.379   0.374  11.048  0.8242 -0.3221  1.5328
16053TIP3   OH269649   0.525   6.363   2.805 -0.1459  0.7047  0.3825
16053TIP3    H169650   0.515   6.292   2.867 -0.8096  2.1149  1.9658
16053TIP3    H269651   0.569   6.323   2.729 -0.5629 -1.3610  1.1720
16054TIP3   OH269652   2.957   6.626  16.520  0.4447  0.6053 -0.4193
16054TIP3    H169653   2.916   6.553  16.566  0.5946  0.6811 -0.1653
16054TIP3    H269654   3.046   6.629  16.554  0.1647  1.5010  0.2665
16055TIP3   OH269655   1.933   1.787   1.251 -0.3998 -0.2798 -0.3568
16055TIP3    H169656   1.909   1.700   1.220 -0.2804 -0.8483  1.0655
16055TIP3    H269657   1.977   1.828   1.177 -1.4630 -1.0054 -1.4216
16056TIP3   OH269658   3.099   6.534  11.261  0.3011  0.2357 -0.3188
16056TIP3    H169659   3.163   6.466  11.282  1.8074  1.9905  1.1515
16056TIP3    H269660   3.052   6.548  11.344 -0.7323  0.2882 -0.8916
16057TIP3   OH269661   5.497   1.023   2.599  0.0049 -0.1529 -1.0704
16057TIP3    H169662   5.528   0.948   2.648 -1.0123  0.0627 -0.0413
16057TIP3    H269663   5.573   1.081   2.593  0.4775 -0.7414 -0.8257
16058TIP3   OH269664   5.498   1.682   5.155  0.0761 -0.5959 -0.7759
16058TIP3    H169665   5.409   1.656   5.181 -0.4170  1.7261  0.0716
16058TIP3    H269666   5.488   1.715   5.066 -0.2006  0.8177 -0.2501
16059TIP3   OH269667   0.040   1.345  13.240  0.4348 -0.3195 -0.2500
16059TIP3    H169668  -0.003   1.423  13.205  0.6226 -0.0772  0.0607
16059TIP3    H269669   0.106   1.323  13.175  1.4498  0.7039  0.4049
16060TIP3   OH269670   1.977   4.305  10.522 -0.0094 -0.2624  0.1729
16060TIP3    H169671   1.916   4.231  10.523  0.3432 -0.6350 -1.6234
16060TIP3    H269672   2.064   4.264  10.514  0.3176  0.3103  0.7534
16061TIP3   OH269673   4.334   4.820  15.281  0.0099 -0.6376 -0.2930
16061TIP3    H169674   4.315   4.885  15.349  1.4931 -0.3771 -0.0859
16061TIP3    H269675   4.263   4.831  15.217  1.0928  2.4477 -1.1444
16062TIP3   OH269676   0.640   2.737  11.732 -0.2288 -0.0002 -0.4617
16062TIP3    H169677   0.565   2.678  11.727 -0.8154  0.8051 -1.9732
16062TIP3    H269678   0.622   2.804  11.666  2.0925 -0.1239 -1.3299
16063TIP3   OH269679   1.309   0.677   3.903  0.1782  0.4213  0.2711
16063TIP3    H169680   1.243   0.687   3.834  1.2747  0.3011 -0.8210
16063TIP3    H269681   1.355   0.760   3.905  2.3305 -0.6181 -1.5045
16064TIP3   OH269682   5.774   0.810   4.038 -0.0809 -0.2394  0.1482
16064TIP3    H169683   5.826   0.885   4.067 -1.1795  0.5917  0.0841
16064TIP3    H269684   5.691   0.849   4.009  0.8945 -0.9639 -4.2204
16065TIP3   OH269685   6.721   5.206  15.282 -0.2582 -0.1376  0.4396
16065TIP3    H169686   6.685   5.221  15.369 -0.3694  1.1658  0.1899
16065TIP3    H269687   6.717   5.291  15.239  1.2629 -0.3964 -0.2940
16066TIP3   OH269688   0.832   5.468   0.333 -0.6674 -0.3618 -0.2850
16066TIP3    H169689   0.827   5.554   0.373 -1.6167 -0.6338  0.2128
16066TIP3    H269690   0.835   5.407   0.407 -3.6766 -0.9426 -0.5166
16067TIP3   OH269691   5.021   2.617  15.302  0.0945 -0.7766 -0.4653
16067TIP3    H169692   4.978   2.699  15.328 -3.7345 -2.8128  0.3215
16067TIP3    H269693   5.082   2.598  15.373 -0.3696  0.4428  0.2872
16068TIP3   OH269694   0.199   5.864   0.933  0.1322 -0.5438 -0.4113
16068TIP3    H169695   0.136   5.866   1.005  1.0648  0.5027  0.4119
16068TIP3    H269696   0.215   5.956   0.913 -2.0547 -0.7191 -3.7735
16069TIP3   OH269697   3.443   1.384   1.188 -0.1972  0.1568 -0.3767
16069TIP3    H169698   3.525   1.337   1.180  0.5079  1.5665 -2.1509
16069TIP3    H269699   3.457   1.466   1.141 -2.3769  0.7833 -0.0748
16070TIP3   OH269700   6.167   0.519  15.769  0.3123  0.3411 -0.2800
16070TIP3    H169701   6.155   0.587  15.836 -1.1937 -1.1238  1.0162
16070TIP3    H269702   6.243   0.548  15.719  1.6007  1.4356  2.1507
16071TIP3   OH269703   1.664   0.642   2.543 -0.2445 -1.1212  0.5546
16071TIP3    H169704   1.599   0.575   2.520 -0.1988 -0.8748 -0.2897
16071TIP3    H269705   1.732   0.634   2.477  0.4505 -1.1668  1.2569
16072TIP3   OH269706   0.924   3.276  11.558  0.6456  0.3725 -0.2554
16072TIP3    H169707   0.946   3.328  11.480  0.6538 -0.4357 -0.7972
16072TIP3    H269708   0.833   3.250  11.544  0.1865  1.3793  0.6716
16073TIP3   OH269709   3.138   0.306   5.520  0.2679 -0.3073  0.5172
16073TIP3    H169710   3.210   0.307   5.583 -1.6572 -0.2366  2.8394
16073TIP3    H269711   3.109   0.215   5.517 -0.7217 -0.0257  1.0539
16074TIP3   OH269712   1.767   4.678   1.724 -0.4510 -0.0263  0.1401
16074TIP3    H169713   1.699   4.646   1.664 -1.8186  2.4669  0.2159
16074TIP3    H269714   1.836   4.711   1.667 -0.2008 -0.7267  0.0280
16075TIP3   OH269715   2.669   0.467   1.871 -0.1695 -0.1424  0.2335
16075TIP3    H169716   2.716   0.527   1.928 -0.7627  0.6252 -0.0589
16075TIP3    H269717   2.713   0.383   1.882  0.3929  0.2433  0.9938
16076TIP3   OH269718   1.383   1.565  12.504 -0.0721 -0.7264 -0.2630
16076TIP3    H169719   1.373   1.650  12.547 -0.8891 -1.0490  0.2228
16076TIP3    H269720   1.427   1.510  12.569  0.1096 -0.7844 -0.4334
16077TIP3   OH269721   0.959   0.503  12.444  0.4612  0.1467  0.7676
16077TIP3    H169722   1.032   0.540  12.393  0.2988  0.4373  0.7480
16077TIP3    H269723   0.974   0.408  12.440  0.5056  0.1712  0.2604
16078TIP3   OH269724   3.053   0.472   0.655  0.1860 -0.2053 -0.3493
16078TIP3    H169725   3.099   0.422   0.588 -0.6211 -0.6008 -0.6221
16078TIP3    H269726   2.971   0.500   0.612 -0.1635 -0.1413  0.3464
16079TIP3   OH269727   3.877   0.173  16.593  0.7123 -0.0344  0.2416
16079TIP3    H169728   3.970   0.172  16.572  0.7087 -0.1581  0.2306
16079TIP3    H269729   3.850   0.264  16.580  0.5633 -0.2259 -0.9330
16080TIP3   OH269730   1.252   6.646  13.949 -0.0173 -0.1550  0.6819
16080TIP3    H169731   1.160   6.640  13.972 -0.4030  2.6361  0.2267
16080TIP3    H269732   1.252   6.668  13.856  0.9411  2.4290  1.2235
16081TIP3   OH269733   4.745   4.389   5.449 -0.3258 -0.6744 -0.2153
16081TIP3    H169734   4.666   4.369   5.398 -0.2524 -2.9032  0.4235
16081TIP3    H269735   4.817   4.361   5.393  0.1326  2.0210 -1.0956
16082TIP3   OH269736   0.330   1.690  15.975  0.3149  0.1270  0.0979
16082TIP3    H169737   0.308   1.781  15.993 -0.0363 -0.1452  1.1124
16082TIP3    H269738   0.271   1.640  16.031  1.0789 -0.7035  0.1711
16083TIP3   OH269739   3.176   1.572  11.316  1.0976 -0.0426  0.1091
16083TIP3    H169740   3.140   1.592  11.403  0.5013 -0.4672 -0.0339
16083TIP3    H269741   3.201   1.657  11.280 -1.5490  0.5116 -0.5788
16084TIP3   OH269742   0.245   3.936   3.014 -0.1843 -0.3771 -0.4023
16084TIP3    H169743   0.309   4.001   2.986 -1.8108  1.6071  0.1814
16084TIP3    H269744   0.238   3.875   2.941  1.3488  0.1511 -1.0139
16085TIP3   OH269745   0.596   0.343  12.738  0.1447 -0.3395 -0.2689
16085TIP3    H169746   0.519   0.301  12.775  0.1620 -2.0746 -2.0553
16085TIP3    H269747   0.604   0.307  12.650  3.4476 -0.8844  0.1136
16086TIP3   OH269748   2.887   5.967  16.697  0.0624  0.4363  0.0653
16086TIP3    H169749   2.896   5.952  16.603 -0.7750 -1.2187  0.1943
16086TIP3    H269750   2.975   5.955  16.732 -0.1791 -2.7672 -0.1204
16087TIP3   OH269751   4.973   3.357   4.651 -0.1360 -0.2572  0.1553
16087TIP3    H169752   4.879   3.351   4.636 -0.2331 -0.7441  0.8894
16087TIP3    H269753   5.010   3.283   4.603  0.2601  1.6549 -2.7736
16088TIP3   OH269754   2.646   1.088   3.943  0.5250 -0.3878 -0.0498
16088TIP3    H169755   2.665   1.174   3.905 -1.4883 -0.0102 -0.3490
16088TIP3    H269756   2.589   1.046   3.879 -1.0969 -0.6375  1.4556
16089TIP3   OH269757   3.633   0.618  13.492 -0.1917 -0.3053 -0.1193
16089TIP3    H169758   3.613   0.703  13.452 -2.3843 -1.5963 -2.0568
16089TIP3    H269759   3.589   0.620  13.577  0.6371  0.8491  0.2956
16090TIP3   OH269760   1.402   4.825  12.931  0.4727 -0.4512 -0.7914
16090TIP3    H169761   1.432   4.754  12.988  1.0652 -0.1283 -0.6913
16090TIP3    H269762   1.310   4.836  12.954  0.3197 -1.3100 -0.9421
16091TIP3   OH269763   1.951   2.006  17.140 -0.2256 -0.2654 -0.4754
16091TIP3    H169764   1.992   2.042  17.061  0.7176 -1.0254 -0.3511
16091TIP3    H269765   1.994   2.052  17.212 -0.8846  0.2238 -0.3867
16092TIP3   OH269766   0.381   2.593  14.928 -0.1157  0.3290 -0.1048
16092TIP3    H169767   0.428   2.638  14.999  2.7641 -0.4178 -1.4295
16092TIP3    H269768   0.342   2.664  14.877 -0.5323  0.9618  1.0342
16093TIP3   OH269769   5.135   4.620   5.657 -0.2685 -0.6760  0.2066
16093TIP3    H169770   5.079   4.685   5.616  1.3016  1.4113  1.1421
16093TIP3    H269771   5.139   4.646   5.749  1.8482 -0.9302  0.2558
16094TIP3   OH269772   2.922   1.881  17.085 -0.3223 -0.0302  0.0336
16094TIP3    H169773   2.845   1.824  17.080  0.3250 -1.0833  1.3399
16094TIP3    H269774   2.943   1.901  16.994 -0.5144 -2.0026 -0.4937
16095TIP3   OH269775   1.447   6.004   0.003  0.3217 -0.4539  0.2254
16095TIP3    H169776   1.465   6.052   0.084 -1.4930  1.7292 -0.5519
16095TIP3    H269777   1.530   6.005  -0.045  0.5404  1.3749  0.5643
16096TIP3   OH269778   5.553   6.016  14.864 -0.0486  0.0975  0.1282
16096TIP3    H169779   5.510   6.079  14.921 -0.1992  0.6145 -0.5435
16096TIP3    H269780   5.520   5.931  14.893  0.5478  0.2712  1.3727
16097TIP3   OH269781   4.029   1.931   4.383 -0.2400  0.0512  0.8675
16097TIP3    H169782   3.977   1.856   4.357 -1.2062  1.5545 -1.8860
16097TIP3    H269783   4.059   1.910   4.472 -1.7570 -2.8317  0.7979
16098TIP3   OH269784   0.083   6.655   0.497 -0.2247 -0.8965  0.8421
16098TIP3    H169785   0.017   6.711   0.539 -0.2379  0.8766 -1.3915
16098TIP3    H269786   0.163   6.672   0.546  0.2287  2.6142 -0.7674
16099TIP3   OH269787   5.619   1.828   4.933 -0.2577  0.4099 -0.2556
16099TIP3    H169788   5.673   1.907   4.940 -0.2324  0.3655  0.0768
16099TIP3    H269789   5.681   1.757   4.921 -0.2729  0.4222 -0.4110
16100TIP3   OH269790   3.865   6.655   0.482  0.7429  0.2845  0.0155
16100TIP3    H169791   3.836   6.567   0.505 -0.8974  0.6858 -0.3995
16100TIP3    H269792   3.947   6.667   0.530 -0.0200 -0.7306  1.6656
16101TIP3   OH269793   5.477   0.488  15.884  0.3065 -0.1799  0.0855
16101TIP3    H169794   5.560   0.454  15.914 -0.3567 -1.8420  0.1496
16101TIP3    H269795   5.463   0.446  15.799  0.9386  2.4461 -1.4290
16102TIP3   OH269796   3.112   5.418  12.102  0.3310  0.3168 -0.2863
16102TIP3    H169797   3.122   5.498  12.153 -0.3688  0.6916 -0.7178
16102TIP3    H269798   3.201   5.386  12.089  0.6824  1.4602 -0.7886
16103TIP3   OH269799   2.280   6.764  13.272  0.0983 -0.1957 -0.2259
16103TIP3    H169800   2.307   6.855  13.270 -3.7406  1.1204 -0.9095
16103TIP3    H269801   2.309   6.728  13.188 -1.6566  1.6191 -1.7105
16104TIP3   OH269802   2.073   1.753   2.096  0.3116  0.1286  0.3350
16104TIP3    H169803   2.140   1.780   2.159  1.0874  0.6363 -0.6848
16104TIP3    H269804   2.116   1.761   2.011 -0.4008 -1.5072 -0.2035
16105TIP3   OH269805   1.478   5.958  12.192  0.3864 -0.0553  0.7967
16105TIP3    H169806   1.484   6.018  12.118  0.1449 -1.0695 -0.0722
16105TIP3    H269807   1.567   5.927  12.206  0.5666  0.7108  1.4485
16106TIP3   OH269808   3.040   6.582  12.600 -0.5486  0.4456 -0.0941
16106TIP3    H169809   2.959   6.539  12.574 -1.5077  2.9337 -1.5479
16106TIP3    H269810   3.014   6.644  12.668  0.9370 -1.6743  2.5743
16107TIP3   OH269811   6.493   6.681  15.609 -0.4586  0.0177 -0.3479
16107TIP3    H169812   6.576   6.718  15.640 -1.3470  0.9266  1.0783
16107TIP3    H269813   6.461   6.629  15.683 -1.6117  0.4690 -0.5084
16108TIP3   OH269814   1.084   5.170   5.305 -0.1547  0.4731  0.6535
16108TIP3    H169815   1.178   5.152   5.313 -0.0426  0.7331 -0.0018
16108TIP3    H269816   1.051   5.098   5.251  0.1991  1.8759 -1.5372
16109TIP3   OH269817   3.768   1.557   2.307 -0.4056 -0.0272  0.0278
16109TIP3    H169818   3.751   1.610   2.229 -1.0798 -0.2405  0.0273
16109TIP3    H269819   3.817   1.616   2.365  2.4289 -0.6398 -1.5470
16110TIP3   OH269820   0.340   1.221  13.193 -0.1455  0.0068 -0.0849
16110TIP3    H169821   0.290   1.236  13.113  1.2541  0.7645 -0.8649
16110TIP3    H269822   0.408   1.289  13.192  2.0398 -2.0295 -0.0614
16111TIP3   OH269823   2.107   0.482  12.960 -0.1644 -0.0362 -0.3230
16111TIP3    H169824   2.116   0.430  13.040  0.8113  0.2097 -0.2650
16111TIP3    H269825   2.059   0.560  12.988 -1.2412 -0.6808 -0.3169
16112TIP3   OH269826   4.883   6.589   5.173 -0.1274 -0.0659  0.0453
16112TIP3    H169827   4.850   6.549   5.253  0.3254 -2.3466 -0.8151
16112TIP3    H269828   4.828   6.553   5.103 -0.1238  1.3833 -0.7498
16113TIP3   OH269829   5.302   3.941   5.329  0.1324  0.0849  0.6193
16113TIP3    H169830   5.263   4.025   5.304  0.1770 -0.0107  0.2241
16113TIP3    H269831   5.354   3.915   5.253 -0.9081 -0.9305  0.2199
16114TIP3   OH269832   0.543   6.389  10.787  0.0176 -0.2127  0.6364
16114TIP3    H169833   0.582   6.463  10.739  0.8529 -1.1025 -0.0946
16114TIP3    H269834   0.617   6.346  10.830  0.0206 -2.2867 -1.2660
16115TIP3   OH269835   2.798   1.014  11.957  0.3208 -0.4437  0.0827
16115TIP3    H169836   2.811   1.085  11.894  3.8077  0.6951  1.8522
16115TIP3    H269837   2.876   0.960  11.949  0.2240 -1.0496  2.4319
16116TIP3   OH269838   2.158   0.821   3.346 -0.4356  0.2662  0.4956
16116TIP3    H169839   2.227   0.888   3.337  0.1301 -0.5272 -2.1060
16116TIP3    H269840   2.206   0.740   3.366 -0.7549 -0.0060  0.1755
16117TIP3   OH269841   1.793   0.834   4.009 -0.9281 -0.2021  1.0087
16117TIP3    H169842   1.797   0.924   4.041  2.2665  0.0659  0.1541
16117TIP3    H269843   1.775   0.843   3.916  3.6232 -0.0009 -0.0535
16118TIP3   OH269844   0.497   1.724   0.681 -0.5988 -0.3192 -0.1149
16118TIP3    H169845   0.406   1.751   0.669 -0.4642  0.7895  1.1375
16118TIP3    H269846   0.543   1.758   0.604 -0.9775  0.3857 -0.0306
16119TIP3   OH269847   6.786   2.765   5.960 -0.3618  0.2759  0.0473
16119TIP3    H169848   6.738   2.683   5.965 -0.2993  0.0552 -2.0936
16119TIP3    H269849   6.785   2.799   6.049 -4.1745  0.0872  0.2470
16120TIP3   OH269850   4.356   3.129   1.580  0.0056 -0.0178  0.8775
16120TIP3    H169851   4.403   3.205   1.547 -0.2655 -0.5544 -0.8585
16120TIP3    H269852   4.407   3.054   1.550 -0.7247 -0.5568  0.9550
16121TIP3   OH269853   6.370   0.870   4.078  0.1223  0.1187  0.0737
16121TIP3    H169854   6.425   0.947   4.092 -0.2075  0.5531 -0.9639
16121TIP3    H269855   6.369   0.826   4.163  1.1559  0.7004  0.4029
16122TIP3   OH269856   6.599   5.254   4.680 -0.4406  0.6160  0.2579
16122TIP3    H169857   6.557   5.304   4.750 -1.0585  1.8322 -0.9360
16122TIP3    H269858   6.591   5.163   4.709  1.0733  1.1600  2.6677
16123TIP3   OH269859   6.195   4.659  13.421  0.2718 -0.0370 -0.1856
16123TIP3    H169860   6.101   4.677  13.421  0.4124  0.7538 -0.2288
16123TIP3    H269861   6.203   4.569  13.454 -0.5480 -0.4138 -0.9813
16124TIP3   OH269862   6.147   4.424  11.069 -0.0417 -0.6719 -0.9151
16124TIP3    H169863   6.148   4.408  11.163 -0.0671 -0.5937 -0.9014
16124TIP3    H269864   6.102   4.508  11.059  2.6597  0.9462 -0.7389
16125TIP3   OH269865   3.407   2.216   0.094 -0.2117 -0.0005 -0.4082
16125TIP3    H169866   3.490   2.226   0.141  0.0359 -1.1100 -0.5545
16125TIP3    H269867   3.405   2.123   0.071 -1.7794 -0.1085  0.0938
16126TIP3   OH269868   2.664   6.756   2.420  0.2060 -0.6750  0.6350
16126TIP3    H169869   2.675   6.717   2.333 -0.0101  0.8240 -0.1005
16126TIP3    H269870   2.655   6.681   2.479 -0.5070 -1.7256 -0.7450
16127TIP3   OH269871   4.669   0.175  15.693 -0.1275 -0.0495  0.2234
16127TIP3    H169872   4.721   0.250  15.665 -0.1334  0.1378  0.7158
16127TIP3    H269873   4.596   0.173  15.631 -0.2678  0.5044  0.3678
16128TIP3   OH269874   6.435   5.482  12.957 -0.6616  0.2900 -0.3378
16128TIP3    H169875   6.490   5.531  13.018 -2.1191  1.5893 -0.0205
16128TIP3    H269876   6.421   5.543  12.884 -0.2642 -0.6669 -1.2440
16129TIP3   OH269877   4.422   6.103   4.905  0.0341 -0.1491 -0.3094
16129TIP3    H169878   4.465   6.095   4.990 -0.5907 -0.5123 -0.0229
16129TIP3    H269879   4.335   6.064   4.918 -0.0178 -0.3332 -1.1438
16130TIP3   OH269880   2.840   3.541   2.510  0.1557  0.2435 -0.7409
16130TIP3    H169881   2.753   3.544   2.469 -1.0818  0.8094  1.7037
16130TIP3    H269882   2.886   3.470   2.465 -2.3213 -1.4664 -0.7563
16131TIP3   OH269883   2.559   2.510  11.467  0.0347 -0.3461  0.1887
16131TIP3    H169884   2.645   2.538  11.436 -0.1027 -1.4028 -1.2351
16131TIP3    H269885   2.524   2.456  11.396 -2.2078  0.8184  0.2999
16132TIP3   OH269886   3.866   6.414  12.046 -0.5058 -0.4010 -0.3685
16132TIP3    H169887   3.871   6.502  12.010  0.9472  0.7347  2.3000
16132TIP3    H269888   3.947   6.371  12.019 -0.4156 -0.3035 -0.2547
16133TIP3   OH269889   1.229   6.626  16.265  0.2189 -0.2942  0.1390
16133TIP3    H169890   1.170   6.638  16.340 -1.0121 -1.8128 -0.5407
16133TIP3    H269891   1.209   6.700  16.207 -0.8621 -0.6477  0.0394
16134TIP3   OH269892   1.701   1.063  16.230 -0.0665  0.0160  0.0621
16134TIP3    H169893   1.623   1.007  16.229 -1.1067  1.4176  0.3352
16134TIP3    H269894   1.731   1.064  16.138 -1.4744  0.9405 -0.4108
16135TIP3   OH269895   2.961   1.232  10.432 -0.0843  0.1461 -0.3135
16135TIP3    H169896   2.899   1.252  10.502 -1.3349  0.2500 -1.3993
16135TIP3    H269897   2.969   1.314  10.383  1.2968  0.2653  0.0833
16136TIP3   OH269898   4.959   3.369   3.776  0.1874  0.5824  0.5612
16136TIP3    H169899   4.893   3.311   3.738 -0.2787  1.1091  0.5545
16136TIP3    H269900   4.986   3.426   3.704  0.7734  0.2645  0.5235
16137TIP3   OH269901   5.531   3.611  11.407 -0.2204 -0.4887 -0.4117
16137TIP3    H169902   5.521   3.637  11.315 -0.4109  1.1142  0.0500
16137TIP3    H269903   5.624   3.624  11.425 -0.6174  1.6592  0.3151
16138TIP3   OH269904   1.615   2.894  13.107  0.0681 -0.3541 -0.1987
16138TIP3    H169905   1.546   2.943  13.062 -0.4705 -0.1255  0.8591
16138TIP3    H269906   1.570   2.815  13.139  0.6582 -0.9681 -0.8369
16139TIP3   OH269907   0.641   5.167  13.433 -0.1225 -0.1115 -0.0186
16139TIP3    H169908   0.641   5.076  13.464  1.2296  0.5646  2.1783
16139TIP3    H269909   0.723   5.176  13.386  0.2216  0.2305  0.6398
16140TIP3   OH269910   4.272   3.306  13.213 -0.3229  0.7330  0.6972
16140TIP3    H169911   4.348   3.256  13.245 -0.5174  0.7732  1.2303
16140TIP3    H269912   4.305   3.351  13.135 -0.5026 -1.2516 -0.5925
16141TIP3   OH269913   0.092   2.934   0.070 -0.5388  0.4414  0.0858
16141TIP3    H169914   0.111   2.870   0.138 -0.5391  1.0580  0.6808
16141TIP3    H269915   0.023   2.989   0.108 -2.4097 -0.7422 -1.3728
16142TIP3   OH269916   2.927   0.250   3.959 -0.3262 -0.1022 -0.3642
16142TIP3    H169917   3.013   0.290   3.969 -0.0272 -0.9400  0.6804
16142TIP3    H269918   2.936   0.165   4.003 -1.8583  0.0562  0.3062
16143TIP3   OH269919   1.572   4.520  13.677  0.3194  0.0024  0.0679
16143TIP3    H169920   1.562   4.612  13.654  0.2798 -0.0134  0.0212
16143TIP3    H269921   1.491   4.498  13.723  0.4640  0.0785  0.3691
16144TIP3   OH269922   4.143   4.217   4.847 -0.7471  0.1438 -0.1835
16144TIP3    H169923   4.092   4.150   4.801 -0.7821  0.7100 -0.9883
16144TIP3    H269924   4.222   4.227   4.794  0.2937 -0.8307  1.1330
16145TIP3   OH269925   4.448   3.071   3.487 -0.1243 -0.0379  0.3805
16145TIP3    H169926   4.457   3.132   3.414 -3.0026  1.3819  1.0906
16145TIP3    H269927   4.410   2.992   3.448  1.3594 -0.5360 -0.1301
16146TIP3   OH269928   2.598   1.553   1.323 -0.3645 -0.1735  0.6422
16146TIP3    H169929   2.654   1.500   1.265  0.7152 -0.0085  1.4966
16146TIP3    H269930   2.646   1.556   1.406 -0.1676  2.4916  0.5135
16147TIP3   OH269931   0.349   6.436   1.683 -0.1707 -0.2908  0.0297
16147TIP3    H169932   0.292   6.364   1.654 -0.0462  0.0510 -1.1064
16147TIP3    H269933   0.298   6.481   1.750 -1.6434  0.5400 -1.5768
16148TIP3   OH269934   4.435   1.281  14.341 -0.3542 -0.3827 -0.1745
16148TIP3    H169935   4.489   1.211  14.377  1.6378  0.6534 -0.9467
16148TIP3    H269936   4.429   1.261  14.248  0.5376  0.6161 -0.4675
16149TIP3   OH269937   4.537   5.657   5.141 -0.1679  0.6120 -0.1188
16149TIP3    H169938   4.457   5.629   5.098 -0.2239  0.7401 -0.0977
16149TIP3    H269939   4.595   5.580   5.138 -0.8689 -0.0068  1.2737
16150TIP3   OH269940   4.375   5.797  14.415 -0.0986  0.1583 -0.0713
16150TIP3    H169941   4.374   5.878  14.363  1.9958 -0.3681 -1.0176
16150TIP3    H269942   4.381   5.827  14.506  3.0671  1.1580 -0.5050
16151TIP3   OH269943   5.214   1.411   2.410  0.2427  0.2017 -0.0370
16151TIP3    H169944   5.144   1.471   2.437  0.0861  0.2842 -0.6025
16151TIP3    H269945   5.245   1.371   2.491  2.0357  2.8481  0.6943
16152TIP3   OH269946   0.035   2.906  16.956  0.2104 -0.5465 -0.3746
16152TIP3    H169947   0.041   2.892  16.861  0.8040  2.4072 -0.8848
16152TIP3    H269948  -0.056   2.930  16.971 -0.0709 -1.7547 -0.0227
16153TIP3   OH269949   2.735   6.496  12.206 -0.3047  0.2678  0.2215
16153TIP3    H169950   2.720   6.449  12.124  0.0917 -0.7563  0.7295
16153TIP3    H269951   2.785   6.574  12.180  0.8513 -0.6390 -0.3754
16154TIP3   OH269952   0.163   4.871  15.352 -0.1074 -0.8908 -0.1855
16154TIP3    H169953   0.168   4.806  15.421 -0.9745 -0.4878  0.2685
16154TIP3    H269954   0.199   4.951  15.391  1.6305 -1.2291 -0.9617
16155TIP3   OH269955   4.572   4.740   5.827  0.0111  0.0356  0.4631
16155TIP3    H169956   4.555   4.828   5.795  0.1116  0.1535  0.7328
16155TIP3    H269957   4.580   4.687   5.748 -1.9838 -0.1097  0.3027
16156TIP3   OH269958   4.257   5.931   5.404  0.0912 -0.1561 -0.4948
16156TIP3    H169959   4.257   5.969   5.492 -0.0896 -1.0483 -0.0905
16156TIP3    H269960   4.343   5.891   5.395 -0.3116 -1.1257 -0.2245
16157TIP3   OH269961   5.399   4.966   5.488  0.1212 -0.4671 -0.4214
16157TIP3    H169962   5.477   5.008   5.452  0.9795 -1.1560  0.5657
16157TIP3    H269963   5.369   4.908   5.418 -0.3704  0.8291 -1.3423
16158TIP3   OH269964   3.870   0.832  16.451  0.5940  0.0790 -0.2920
16158TIP3    H169965   3.786   0.861  16.487  0.6769 -0.5346  0.4350
16158TIP3    H269966   3.899   0.762  16.511  1.0857 -0.4872 -1.1599
16159TIP3   OH269967   2.350   2.679  11.523 -0.8104 -0.4164 -0.1315
16159TIP3    H169968   2.430   2.627  11.516 -1.0915 -1.1003  1.3636
16159TIP3    H269969   2.381   2.765  11.552 -0.5177 -0.3234 -0.7091
16160TIP3   OH269970   4.359   3.779  12.291 -0.6689  0.1096 -0.0414
16160TIP3    H169971   4.401   3.846  12.345  2.4245 -0.4302 -1.5838
16160TIP3    H269972   4.351   3.703  12.348  2.7628 -0.5362 -0.2173
16161TIP3   OH269973   5.371   5.696   0.652 -0.1783  0.4416  0.0213
16161TIP3    H169974   5.363   5.772   0.595  0.0432  0.5030  0.0733
16161TIP3    H269975   5.462   5.697   0.682  1.2227 -2.3003 -3.4405
16162TIP3   OH269976   1.151   2.077  12.443  0.4083 -0.3057 -0.2553
16162TIP3    H169977   1.211   2.010  12.476  1.1269  0.0765 -0.7508
16162TIP3    H269978   1.083   2.083  12.510  2.1740  0.9243  1.5545
16163TIP3   OH269979   0.469   4.350   1.180  0.3811  0.2192  0.0092
16163TIP3    H169980   0.467   4.423   1.119  0.6404  0.1104 -0.1324
16163TIP3    H269981   0.552   4.306   1.162 -0.6340 -1.2882 -1.3135
16164TIP3   OH269982   2.646   6.262  15.012  0.0720  0.0895 -0.0165
16164TIP3    H169983   2.626   6.215  14.931  1.3218 -1.6398  0.5890
16164TIP3    H269984   2.603   6.210  15.081  1.8006 -0.4634  0.7144
16165TIP3   OH269985   3.363   0.725   1.673  0.1661  0.8414  0.2305
16165TIP3    H169986   3.442   0.766   1.707  0.7300 -1.8853  2.5746
16165TIP3    H269987   3.347   0.651   1.731 -1.9323 -1.0096 -2.4219
16166TIP3   OH269988   1.852   1.417  11.272  0.2707 -1.0956 -0.0609
16166TIP3    H169989   1.930   1.363  11.259  1.4417  0.7421 -1.2922
16166TIP3    H269990   1.820   1.434  11.183  0.5298  0.9752  0.1875
16167TIP3   OH269991   0.378   3.561   6.389  0.1773 -0.2324  0.5664
16167TIP3    H169992   0.348   3.621   6.458 -0.7433 -0.7705  0.6599
16167TIP3    H269993   0.306   3.560   6.326  0.1667 -1.2609  0.5879
16168TIP3   OH269994   3.595   6.613  16.705  0.3175 -0.0362 -0.0613
16168TIP3    H169995   3.612   6.580  16.617  0.8938  0.1642 -0.0296
16168TIP3    H269996   3.587   6.535  16.760  0.7273 -0.1461 -0.1559
16169TIP3   OH269997   1.492   3.877   3.547 -0.3411 -0.2638  0.6255
16169TIP3    H169998   1.499   3.938   3.620  0.8305  2.9675 -1.9304
16169TIP3    H269999   1.578   3.834   3.542 -0.5757 -0.8392  1.3577
16170TIP3   OH270000   2.840   4.596  12.212  0.0176  0.2433 -0.9001
16170TIP3    H170001   2.897   4.630  12.281  2.2449 -2.5853 -1.1506
16170TIP3    H270002   2.797   4.674  12.176 -1.7225  1.8967  3.8680
16171TIP3   OH270003   6.396   3.682  16.108 -0.4721  0.2875  0.3807
16171TIP3    H170004   6.348   3.600  16.116 -0.7677  0.3976 -0.2581
16171TIP3    H270005   6.482   3.657  16.075 -0.5263  0.2216  0.2905
16172TIP3   OH270006   1.244   0.867  16.059 -0.1626 -0.7353 -0.0100
16172TIP3    H170007   1.201   0.792  16.101 -0.2027 -0.1836  0.9694
16172TIP3    H270008   1.173   0.925  16.035 -0.0760 -0.6129  0.0298
16173TIP3   OH270009   1.390   0.503   0.327 -0.3320 -0.0320 -0.2693
16173TIP3    H170010   1.331   0.484   0.254 -0.0630  0.3854 -0.6029
16173TIP3    H270011   1.458   0.559   0.289  0.0317 -0.1385  0.2134
16174TIP3   OH270012   1.793   5.495  14.389  0.0345 -0.4548 -0.7305
16174TIP3    H170013   1.764   5.419  14.440 -0.0345 -0.5198 -0.8677
16174TIP3    H270014   1.878   5.469  14.354  0.7513  0.1031  0.5018
16175TIP3   OH270015   0.965   5.042  14.175 -0.6926  0.0840 -0.1411
16175TIP3    H170016   0.904   5.084  14.237 -0.3283 -0.1769  0.4013
16175TIP3    H270017   1.045   5.094  14.182 -1.1380  1.0624 -1.6036
16176TIP3   OH270018   1.808   0.139   5.409 -0.1640  0.4524  0.6810
16176TIP3    H170019   1.903   0.131   5.408 -0.2647 -1.8530 -1.6595
16176TIP3    H270020   1.791   0.226   5.372  1.0073  0.9393  1.2321
16177TIP3   OH270021   3.345   6.560  17.324  0.4874 -0.9600  0.1483
16177TIP3    H170022   3.269   6.610  17.293 -0.0851 -0.7479  1.8191
16177TIP3    H270023   3.400   6.550  17.246 -0.7363 -0.1889 -0.8569
16178TIP3   OH270024   2.501   1.656   5.028  0.0487 -0.0449  0.1560
16178TIP3    H170025   2.569   1.624   4.969 -0.2246 -0.0361 -0.1651
16178TIP3    H270026   2.543   1.728   5.076  0.3408 -0.2015  0.1333
16179TIP3   OH270027   0.111   4.734  14.450 -0.3769 -0.1481  0.3104
16179TIP3    H170028   0.034   4.694  14.411 -0.5223  0.9813 -0.6058
16179TIP3    H270029   0.083   4.823  14.474  0.9367  0.7011 -1.1370
16180TIP3   OH270030   4.975   2.911  15.832 -0.2567 -0.1645  0.1107
16180TIP3    H170031   4.972   2.879  15.922 -0.9965  0.0548  0.1714
16180TIP3    H270032   4.920   2.989  15.833  1.6077  1.2216  0.0034
16181TIP3   OH270033   1.187   3.451  13.699  0.0053 -0.3247 -0.4800
16181TIP3    H170034   1.124   3.418  13.635 -0.6431 -1.6635  0.7848
16181TIP3    H270035   1.265   3.397  13.685 -0.2099 -0.7634 -0.0291
16182TIP3   OH270036   1.130   5.714  11.413  0.4237  0.4340  0.2599
16182TIP3    H170037   1.211   5.663  11.413  0.4269  0.2980 -2.6571
16182TIP3    H270038   1.063   5.652  11.386 -0.1117  1.2620 -0.3380
16183TIP3   OH270039   1.227   5.738   3.516 -0.4831  0.0552 -0.2591
16183TIP3    H170040   1.159   5.747   3.449 -1.1195  2.4273  0.6286
16183TIP3    H270041   1.234   5.824   3.556  0.5635 -1.0315  2.1165
16184TIP3   OH270042   1.729   3.096  12.334  0.0777  0.2720  0.2988
16184TIP3    H170043   1.681   3.030  12.284 -0.6461 -1.4573  3.0482
16184TIP3    H270044   1.821   3.072  12.324 -0.0928 -0.3700  0.2157
16185TIP3   OH270045   5.192   5.035   4.426 -0.4072 -0.0016  0.4317
16185TIP3    H170046   5.286   5.053   4.439 -0.3171 -0.4481  0.4072
16185TIP3    H270047   5.152   5.121   4.422  0.0169  0.1961  0.3639
16186TIP3   OH270048   1.296   3.217  14.848  0.4973  0.3014  0.5726
16186TIP3    H170049   1.273   3.125  14.834  0.3316  0.5408 -0.7811
16186TIP3    H270050   1.257   3.264  14.775  0.2591  1.5185  1.4473
16187TIP3   OH270051   0.055   4.354  15.807  0.0432  0.3550 -0.1491
16187TIP3    H170052  -0.007   4.281  15.818  0.6417 -0.1270  0.0732
16187TIP3    H270053   0.073   4.356  15.713 -0.7693  0.8845 -0.2996
16188TIP3   OH270054   6.659   2.003   0.952  0.0294 -0.8334  0.0560
16188TIP3    H170055   6.692   1.916   0.973 -1.3011 -1.8362 -1.7632
16188TIP3    H270056   6.601   1.990   0.877  1.2402  1.8650 -1.5102
16189TIP3   OH270057   1.560   0.104   6.093  0.3576  0.0412  0.5405
16189TIP3    H170058   1.610   0.090   6.174  1.5877  1.5124  0.1005
16189TIP3    H270059   1.490   0.164   6.119 -0.3672 -0.9323  0.8743
16190TIP3   OH270060   1.441   6.744  15.980 -0.2656  0.3842 -0.0859
16190TIP3    H170061   1.508   6.685  16.015 -0.4419 -1.3030 -2.3454
16190TIP3    H270062   1.386   6.688  15.926 -2.1570  2.1621 -0.1109
16191TIP3   OH270063   5.535   2.300  14.235 -0.7096 -0.6460  0.6304
16191TIP3    H170064   5.474   2.309  14.308 -0.9071  1.5791  0.2634
16191TIP3    H270065   5.484   2.325  14.158  0.8751  2.4216  0.4536
16192TIP3   OH270066   4.619   2.701   4.723  0.2974 -0.2870 -0.1832
16192TIP3    H170067   4.580   2.627   4.676 -1.5466  0.0489  0.7044
16192TIP3    H270068   4.548   2.766   4.728  1.5206  1.0790  0.0588
16193TIP3   OH270069   0.098   0.760   2.246  0.1832  0.2027  0.3999
16193TIP3    H170070   0.108   0.680   2.298  0.3210  0.6862  1.1387
16193TIP3    H270071   0.004   0.775   2.243 -0.0403 -1.2544 -1.7436
16194TIP3   OH270072   0.602   1.847   4.155  0.3939 -0.2956  0.2142
16194TIP3    H170073   0.620   1.753   4.148  2.7677 -0.1699  2.8348
16194TIP3    H270074   0.658   1.887   4.088  0.6910 -0.6494  0.2507
16195TIP3   OH270075   6.409   4.966   1.240  0.0573 -0.4868  0.2639
16195TIP3    H170076   6.364   4.889   1.275 -0.4175 -1.0189 -1.4214
16195TIP3    H270077   6.339   5.020   1.203  0.5346 -0.0094  0.0454
16196TIP3   OH270078   5.632   4.619  12.338  0.3425  0.0357 -0.5253
16196TIP3    H170079   5.654   4.528  12.358 -0.1140  0.0074 -0.1242
16196TIP3    H270080   5.687   4.670  12.397  0.1870  0.0006 -0.3481
16197TIP3   OH270081   4.897   3.835   5.358  0.3241 -0.4576  0.1479
16197TIP3    H170082   4.930   3.920   5.329  2.5772 -1.8374 -1.7372
16197TIP3    H270083   4.910   3.835   5.453 -2.6940  2.3867  0.7342
16198TIP3   OH270084   5.653   5.644   4.324 -0.1702  0.1390  0.1130
16198TIP3    H170085   5.614   5.672   4.407  2.0128  0.2542  1.1582
16198TIP3    H270086   5.697   5.722   4.291  1.3233 -0.6166  0.2727
16199TIP3   OH270087   6.178   6.339  12.253 -0.4943  0.1601 -0.4061
16199TIP3    H170088   6.182   6.298  12.340  0.0703  1.6566  0.2979
16199TIP3    H270089   6.211   6.272  12.193  2.4639  0.2721  0.9713
16200TIP3   OH270090   1.994   4.615   1.183  0.2332 -0.2771  0.4731
16200TIP3    H170091   1.954   4.529   1.190 -1.7400  0.4465 -0.8616
16200TIP3    H270092   1.946   4.658   1.112  3.4958  0.6776 -1.3984
16201TIP3   OH270093   0.547   6.226  12.753 -0.3612 -0.2254  0.3979
16201TIP3    H170094   0.490   6.258  12.823  2.1904  0.6781  2.2093
16201TIP3    H270095   0.599   6.157  12.794  0.4917 -0.4106 -0.9324
16202TIP3   OH270096   0.717   6.579  13.058 -0.1084 -0.0207 -0.0332
16202TIP3    H170097   0.803   6.603  13.092 -0.4011  0.6472  0.2499
16202TIP3    H270098   0.736   6.519  12.986  0.7342  2.0373 -1.6365
16203TIP3   OH270099   2.303   5.015  12.661 -0.3432 -0.7236  0.7771
16203TIP3    H170100   2.317   4.980  12.572  2.3999 -1.6109  1.4661
16203TIP3    H270101   2.317   5.109  12.652 -3.1739 -0.2831 -0.2180
16204TIP3   OH270102   1.917   3.982   1.013 -0.4872 -0.3346  0.4411
16204TIP3    H170103   1.848   4.022   1.066  0.5809  0.9980  0.8728
16204TIP3    H270104   1.872   3.952   0.934 -1.8420 -0.9992  1.4284
16205TIP3   OH270105   6.735   6.781   1.962 -0.6434 -0.1580 -0.3377
16205TIP3    H170106   6.760   6.714   2.025 -1.5926  1.7356  2.2240
16205TIP3    H270107   6.817   6.810   1.923 -0.0516 -1.4309 -0.0752
16206TIP3   OH270108   3.067   5.636   1.101 -0.6736  0.5263  0.4852
16206TIP3    H170109   3.074   5.589   1.018 -1.1105  1.7051 -0.2549
16206TIP3    H270110   3.157   5.647   1.130 -0.5636 -0.7244  0.6731
16207TIP3   OH270111   5.175   5.978   2.945 -0.0343 -0.1555 -0.3324
16207TIP3    H170112   5.132   6.060   2.921 -0.2964 -0.3179 -0.4228
16207TIP3    H270113   5.172   5.926   2.865  2.4634  0.7148 -1.0830
16208TIP3   OH270114   4.344   2.119   4.270 -0.7094  0.0342  0.3776
16208TIP3    H170115   4.384   2.108   4.357  0.8881 -1.2209 -0.4547
16208TIP3    H270116   4.359   2.211   4.248  0.1370  0.0169  0.8525
16209TIP3   OH270117   2.990   6.152  17.316 -0.1591 -0.0632  0.1615
16209TIP3    H170118   3.043   6.229  17.336 -1.9751  0.8670  1.7168
16209TIP3    H270119   2.912   6.187  17.273 -1.0474 -1.0047  0.9674
16210TIP3   OH270120   0.195   4.404   1.080  0.0801 -0.4403 -0.2109
16210TIP3    H170121   0.219   4.351   1.156  2.2705  0.6135 -0.0904
16210TIP3    H270122   0.182   4.492   1.116  0.7946 -0.0049 -0.9918
16211TIP3   OH270123   1.919   2.028  16.743 -0.2387  0.7777  0.3652
16211TIP3    H170124   1.986   2.058  16.805 -0.3600  0.7904  0.4927
16211TIP3    H270125   1.837   2.039  16.790 -0.2017 -1.0449  0.9354
16212TIP3   OH270126   0.427   1.728  14.339 -0.1546  0.1629 -0.7136
16212TIP3    H170127   0.463   1.646  14.305  0.8275 -0.6227  1.9482
16212TIP3    H270128   0.333   1.712  14.345 -0.0274 -0.6013 -0.6655
16213TIP3   OH270129   6.749   6.709  14.525 -0.0859  0.6367  0.2711
16213TIP3    H170130   6.677   6.705  14.463  0.1864  0.8360 -0.0649
16213TIP3    H270131   6.721   6.654  14.599  0.2328 -0.9094 -0.7098
16214TIP3   OH270132   3.129   1.568   1.069  0.6925  0.4529  0.5141
16214TIP3    H170133   3.147   1.661   1.083 -1.2875  0.9082  0.3165
16214TIP3    H270134   3.075   1.543   1.143 -2.2310  0.5601 -1.4127
16215TIP3   OH270135   1.838   0.634   1.290  0.0427 -0.0550 -0.1432
16215TIP3    H170136   1.884   0.670   1.214  0.4943  2.3362  1.1787
16215TIP3    H270137   1.781   0.705   1.320 -0.7854 -1.2477  1.2340
16216TIP3   OH270138   1.560   1.563   5.641  0.5081  0.4506 -0.6106
16216TIP3    H170139   1.493   1.631   5.643  0.6346  0.5908 -1.1038
16216TIP3    H270140   1.570   1.536   5.733  1.3115  1.9197 -0.2404
16217TIP3   OH270141   0.688   0.430  14.253 -0.0078 -0.3157 -0.2185
16217TIP3    H170142   0.687   0.397  14.343 -0.3386  2.3737  0.8420
16217TIP3    H270143   0.663   0.354  14.200  0.7131 -2.1275  1.8611
16218TIP3   OH270144   2.646   3.876  15.141 -0.4968 -0.3895 -0.1615
16218TIP3    H170145   2.574   3.831  15.186 -0.3705 -0.1201  0.3217
16218TIP3    H270146   2.618   3.881  15.050 -1.0676 -0.3459  0.0092
16219TIP3   OH270147   3.954   2.186   6.924 -0.3978  0.0570  0.1442
16219TIP3    H170148   4.038   2.230   6.940  0.1064 -1.1466  0.9916
16219TIP3    H270149   3.975   2.120   6.858 -1.1024  0.9334 -0.9810
16220TIP3   OH270150   1.449   6.299  13.503  1.0902  0.1071 -0.1591
16220TIP3    H170151   1.438   6.209  13.473 -3.3334 -0.1608  1.5842
16220TIP3    H270152   1.518   6.295  13.569 -1.9997 -3.2022  3.3524
16221TIP3   OH270153   4.149   4.588  14.301  0.1686 -0.2637  0.0292
16221TIP3    H170154   4.126   4.636  14.380 -0.1176  0.1388 -0.2950
16221TIP3    H270155   4.239   4.615  14.283 -0.5165  1.4670 -1.0764
16222TIP3   OH270156   3.083   0.648   3.604  0.1419  0.5834  0.0434
16222TIP3    H170157   3.011   0.708   3.585 -1.5326 -0.9186  1.2861
16222TIP3    H270158   3.057   0.565   3.565  2.0396  0.3794 -0.9414
16223TIP3   OH270159   6.384   3.128  11.930  0.1892  0.3327 -0.1707
16223TIP3    H170160   6.392   3.126  11.834 -0.7142  0.1728 -0.2497
16223TIP3    H270161   6.383   3.035  11.955  0.4249  0.3746  0.0006
16224TIP3   OH270162   1.273   1.811   1.310  0.2729  0.2416  0.1599
16224TIP3    H170163   1.327   1.815   1.231  1.5822 -0.1949  0.9949
16224TIP3    H270164   1.294   1.892   1.357  0.5242 -0.1093  0.6710
16225TIP3   OH270165   0.010   2.517  16.012  0.6072  0.1448 -0.0675
16225TIP3    H170166  -0.076   2.557  16.022  0.4302 -0.5278  1.4019
16225TIP3    H270167   0.010   2.482  15.923  0.0105  1.5825 -0.6682
16226TIP3   OH270168   2.224   0.051  12.900 -0.0559 -0.5992 -0.2188
16226TIP3    H170169   2.294   0.041  12.965 -1.4318 -0.1307  1.4219
16226TIP3    H270170   2.144   0.055  12.952 -1.2453 -0.2948 -1.9857
16227TIP3   OH270171   4.170   0.026  13.977 -0.2241  0.1236  0.3712
16227TIP3    H170172   4.254   0.036  14.022 -0.7497  0.4707  1.2772
16227TIP3    H270173   4.162   0.105  13.924 -0.2977  0.4201  0.8191
16228TIP3   OH270174   5.586   6.111   5.016  0.2437 -0.0649  0.3471
16228TIP3    H170175   5.608   6.197   5.052 -0.6315 -0.0466  0.8499
16228TIP3    H270176   5.498   6.122   4.980  0.3914 -0.5780 -0.1925
16229TIP3   OH270177   5.887   1.465  14.469 -0.5481 -0.6565  0.2441
16229TIP3    H170178   5.815   1.417  14.428 -0.3483 -0.5092 -0.2845
16229TIP3    H270179   5.846   1.513  14.541 -1.0942 -0.1326 -0.3989
16230TIP3   OH270180   6.214   3.163  16.662 -0.3860  0.6126  0.4331
16230TIP3    H170181   6.209   3.239  16.604  1.7642 -0.5799 -1.4877
16230TIP3    H270182   6.178   3.091  16.611  3.1895 -0.8491 -0.3756
16231TIP3   OH270183   1.960   0.571  11.274 -0.4381 -0.2907 -1.0103
16231TIP3    H170184   1.899   0.581  11.347 -1.1101  2.0153 -1.7991
16231TIP3    H270185   2.043   0.606  11.307 -1.5637  4.1379 -2.2147
16232TIP3   OH270186   1.031   2.760  13.311  0.1587 -0.1211  0.7582
16232TIP3    H170187   1.116   2.777  13.270  0.5484  1.3548  2.0638
16232TIP3    H270188   1.053   2.726  13.398 -0.6417 -2.6388  0.0323
16233TIP3   OH270189   2.070   1.055   3.599  0.1484  0.1587  0.5574
16233TIP3    H170190   2.050   1.066   3.692 -2.2769  0.8522  0.0333
16233TIP3    H270191   2.105   1.140   3.572 -0.9301  0.6003  0.4800
16234TIP3   OH270192   3.610   3.492  12.616 -0.0689  0.6242  0.3340
16234TIP3    H170193   3.605   3.487  12.520  0.3450 -0.9183  0.3626
16234TIP3    H270194   3.678   3.429  12.639 -0.3382  0.7992  1.6623
16235TIP3   OH270195   5.914   3.951  16.976 -0.5638  0.3580 -0.1414
16235TIP3    H170196   5.922   3.865  17.016  1.4760 -0.3657 -1.9251
16235TIP3    H270197   5.955   4.010  17.039 -0.0229 -0.3130  0.1472
16236TIP3   OH270198   5.877   5.027  11.042  0.3467  0.1871 -0.0290
16236TIP3    H170199   5.817   5.020  10.967  1.0056 -1.5098 -0.4508
16236TIP3    H270200   5.876   5.119  11.066  1.5360  1.1938 -3.3333
16237TIP3   OH270201   4.683   4.594  15.784  0.0330  0.3331  0.3923
16237TIP3    H170202   4.775   4.574  15.770  0.3795 -0.4243  3.0391
16237TIP3    H270203   4.677   4.689  15.778  1.0299  0.4007  0.3445
16238TIP3   OH270204   3.536   2.766  15.479 -0.0368 -0.0124 -0.3530
16238TIP3    H170205   3.595   2.814  15.538 -1.2830  1.4958 -0.2643
16238TIP3    H270206   3.468   2.733  15.537  1.3702 -3.0063 -0.2263
16239TIP3   OH270207   6.552   0.184  15.599  0.4100  1.0316 -0.3347
16239TIP3    H170208   6.599   0.101  15.614 -0.3702  0.5173 -0.6689
16239TIP3    H270209   6.522   0.178  15.509  0.6911  1.8741 -0.4968
16240TIP3   OH270210   2.550   4.264   3.963  0.3354  0.3339  0.3751
16240TIP3    H170211   2.580   4.240   3.876 -0.9527 -1.8835  0.4805
16240TIP3    H270212   2.578   4.192   4.020 -1.3484  0.3177  1.2463
16241TIP3   OH270213   5.924   5.078  15.969 -0.2362  0.1732  0.0190
16241TIP3    H170214   5.971   5.047  16.046 -0.8517  0.8213  0.6630
16241TIP3    H270215   5.839   5.036  15.974 -0.9331  1.5847  0.6830
16242TIP3   OH270216   6.039   3.003   0.732  0.4178  0.1637 -0.7612
16242TIP3    H170217   6.017   2.912   0.752  0.9088 -0.1953 -1.7959
16242TIP3    H270218   6.043   3.006   0.637 -1.6263  1.7717 -0.8638
16243TIP3   OH270219   0.786   2.800  16.325 -0.5517  0.1993 -0.4188
16243TIP3    H170220   0.807   2.875  16.381 -1.8118  0.6356 -0.5097
16243TIP3    H270221   0.695   2.779  16.346  0.3221 -2.5795  1.0648
16244TIP3   OH270222   1.648   5.273  13.001  1.0514 -0.1103  0.6020
16244TIP3    H170223   1.591   5.344  13.032  0.8501  0.6864 -1.4331
16244TIP3    H270224   1.588   5.204  12.974  0.8310  1.0668 -2.3800
16245TIP3   OH270225   1.480   2.598   5.348 -0.6296 -0.2546 -0.2845
16245TIP3    H170226   1.431   2.523   5.381  0.2896 -0.8281 -0.1780
16245TIP3    H270227   1.572   2.572   5.357 -0.3257 -0.2413 -2.8311
16246TIP3   OH270228   4.261   3.257   4.098  0.5864 -0.4386  0.1896
16246TIP3    H170229   4.289   3.281   4.010 -0.5831  1.0523  0.1989
16246TIP3    H270230   4.195   3.189   4.085 -0.3459  0.5193 -0.1507
16247TIP3   OH270231   1.966   5.955   1.920  0.2247 -0.0700 -0.4541
16247TIP3    H170232   1.995   5.980   1.832 -0.0505  2.2982  0.0647
16247TIP3    H270233   1.871   5.949   1.913  0.2716 -0.9290 -0.5249
16248TIP3   OH270234   6.186   5.812   3.323  0.2507 -0.1109 -0.0379
16248TIP3    H170235   6.274   5.830   3.291  0.6052  0.6555  1.2857
16248TIP3    H270236   6.198   5.746   3.392 -0.2858 -0.4746 -0.2817
16249TIP3   OH270237   0.094   2.910   2.149  0.0474  0.0605  0.1057
16249TIP3    H170238   0.073   2.985   2.094 -0.9457  0.2543  0.7232
16249TIP3    H270239   0.014   2.893   2.199  0.4436 -1.0361  0.4113
16250TIP3   OH270240   5.509   0.092   1.127 -0.3462 -0.6300 -0.2784
16250TIP3    H170241   5.526   0.027   1.059  1.6342 -1.2527  0.7152
16250TIP3    H270242   5.435   0.143   1.094 -0.7771 -2.2077 -1.9232
16251TIP3   OH270243   3.721   5.017  10.979 -0.0281 -1.0230  0.1563
16251TIP3    H170244   3.779   4.986  10.910 -0.6214 -0.7405 -0.4818
16251TIP3    H270245   3.656   4.946  10.990 -0.9520 -0.3447 -0.7918
16252TIP3   OH270246   0.952   3.598   0.814 -0.3184 -0.1600 -0.0553
16252TIP3    H170247   1.000   3.681   0.810  0.3375 -0.4654  1.0964
16252TIP3    H270248   0.893   3.601   0.738  0.6839  0.7351 -0.8265
16253TIP3   OH270249   2.014   1.298   5.463  0.2845 -0.1090 -0.0510
16253TIP3    H170250   1.967   1.335   5.538  0.6134 -2.7345  1.5826
16253TIP3    H270251   1.945   1.261   5.408  0.0902  1.2903 -0.8053
16254TIP3   OH270252   5.224   1.283   2.172  0.1085  0.0938 -0.3882
16254TIP3    H170253   5.200   1.326   2.254  0.6457  3.1953 -1.7129
16254TIP3    H270254   5.316   1.308   2.158 -0.0978 -0.0247 -2.1264
16255TIP3   OH270255   1.735   2.459  12.134  0.0882  0.7743  0.1997
16255TIP3    H170256   1.727   2.529  12.199 -1.1322 -0.3420  1.3158
16255TIP3    H270257   1.825   2.464  12.104  0.1004  2.6392  0.4477
16256TIP3   OH270258   2.733   0.382  13.198 -0.0088  0.7431 -0.0616
16256TIP3    H170259   2.797   0.370  13.268  1.4319  2.6407 -0.9660
16256TIP3    H270260   2.705   0.473  13.206  0.1991  1.0092 -1.9108
16257TIP3   OH270261   3.258   2.063  15.259  0.4839 -0.4182  0.0923
16257TIP3    H170262   3.268   1.975  15.221 -2.9719 -1.5711  1.4703
16257TIP3    H270263   3.200   2.109  15.198  1.3177  0.5325 -0.0052
16258TIP3   OH270264   4.990   2.494  15.034  0.4222  0.4153 -0.2180
16258TIP3    H170265   4.988   2.531  15.123  0.0729  1.4416 -0.6323
16258TIP3    H270266   5.016   2.403  15.046  1.7582  0.9060  0.8183
16259TIP3   OH270267   5.478   1.094   1.147  0.2659  0.1107  0.5899
16259TIP3    H170268   5.473   1.007   1.187 -1.2997 -1.2126 -2.2005
16259TIP3    H270269   5.557   1.091   1.093 -0.3870 -0.0087 -0.3735
16260TIP3   OH270270   1.459   3.792  10.953 -0.1618  0.3580  0.0804
16260TIP3    H170271   1.384   3.777  11.011  0.2069 -1.8671  0.0558
16260TIP3    H270272   1.511   3.713  10.960  0.6547  0.6168 -2.2119
16261TIP3   OH270273   0.754   5.343   4.109  0.1274 -0.0583 -0.5279
16261TIP3    H170274   0.769   5.249   4.106  4.7090  0.4338 -0.3718
16261TIP3    H270275   0.758   5.366   4.202 -0.5589  0.3246 -0.5899
16262TIP3   OH270276   3.763   0.765  11.282 -0.1532  0.8799 -0.1017
16262TIP3    H170277   3.756   0.781  11.188 -1.3630  3.1972  0.3013
16262TIP3    H270278   3.697   0.698  11.300 -1.3743  1.8713 -0.6657
16263TIP3   OH270279   0.254   3.353  14.171 -0.0414  0.1350  0.3376
16263TIP3    H170280   0.213   3.366  14.085  0.0097  0.6851  0.3922
16263TIP3    H270281   0.269   3.442  14.203 -0.2045 -0.0673  0.9845
16264TIP3   OH270282   3.507   3.968  16.494  0.3421 -0.0618  0.0990
16264TIP3    H170283   3.476   4.021  16.420 -0.4710 -2.1922 -1.1866
16264TIP3    H270284   3.592   3.935  16.465  0.6371  0.1579  0.7035
16265TIP3   OH270285   1.367   4.662   3.346 -0.6331 -0.3207 -0.1141
16265TIP3    H170286   1.321   4.730   3.395 -1.4084 -0.5195 -0.5526
16265TIP3    H270287   1.450   4.702   3.322  0.0113 -0.3861  1.8116
16266TIP3   OH270288   1.827   1.306   3.531 -0.5129 -0.4100 -0.0211
16266TIP3    H170289   1.772   1.229   3.538  1.7431 -2.0326  1.3435
16266TIP3    H270290   1.906   1.275   3.487  0.5307  1.0565  0.7296
16267TIP3   OH270291   2.083   2.154  16.927 -0.2405  0.1132  0.1175
16267TIP3    H170292   2.090   2.230  16.984  0.0941  0.2301 -0.0765
16267TIP3    H270293   2.173   2.137  16.898 -0.4566  0.2706 -0.6602
16268TIP3   OH270294   0.059   5.207   2.210  0.4654  0.3506  0.8741
16268TIP3    H170295   0.122   5.165   2.151  0.6495  1.3410  0.3546
16268TIP3    H270296   0.088   5.182   2.298 -0.2694 -1.8031  0.5760
16269TIP3   OH270297   3.693   2.976   1.997  0.3367  0.0851  0.0533
16269TIP3    H170298   3.635   3.049   1.976  0.0939  0.1575  0.9040
16269TIP3    H270299   3.725   2.996   2.086  0.3023 -0.8103  0.2789
16270TIP3   OH270300   2.449   6.432  15.081  0.3747 -0.6191 -0.3664
16270TIP3    H170301   2.531   6.404  15.040  0.6505 -1.1891  0.5372
16270TIP3    H270302   2.383   6.421  15.013  0.9037 -1.0295 -0.8234
16271TIP3   OH270303   5.655   1.773   4.325  0.3338 -0.2406 -0.0430
16271TIP3    H170304   5.700   1.856   4.313 -1.3914  0.6229 -0.8950
16271TIP3    H270305   5.599   1.764   4.248  0.5472 -2.2529 -0.0221
16272TIP3   OH270306   6.600   6.533  16.522  0.1332  0.1905 -0.0506
16272TIP3    H170307   6.678   6.478  16.530 -1.1640 -1.4655  2.3870
16272TIP3    H270308   6.561   6.532  16.609 -0.8342  3.8191 -0.2541
16273TIP3   OH270309   2.113   6.010   5.307 -0.2719 -0.1758 -0.1249
16273TIP3    H170310   2.123   5.942   5.240  0.6252 -0.6742  0.4911
16273TIP3    H270311   2.199   6.052   5.311 -0.8242  1.0335 -0.5187
16274TIP3   OH270312   1.957   0.468   4.106 -0.0485  0.2766  0.1992
16274TIP3    H170313   1.992   0.523   4.176 -0.3257 -0.9797  1.3665
16274TIP3    H270314   1.963   0.379   4.140  0.3175 -0.4423 -1.6101
16275TIP3   OH270315   0.788   5.520   3.880  0.5171  0.1557 -0.3378
16275TIP3    H170316   0.852   5.578   3.922  1.2399 -1.2338  0.6020
16275TIP3    H270317   0.804   5.435   3.921 -1.2175 -0.4734 -0.8965
16276TIP3   OH270318   1.449   1.765   4.900  0.3361  0.1116 -0.4315
16276TIP3    H170319   1.393   1.714   4.841 -1.9995  0.5706  1.2764
16276TIP3    H270320   1.482   1.701   4.963 -0.7403  0.2882  0.3402
16277TIP3   OH270321   3.908   1.828   6.708  0.0661 -0.0325 -0.1128
16277TIP3    H170322   3.924   1.777   6.788  0.4286 -1.0661 -0.8198
16277TIP3    H270323   3.957   1.909   6.721  0.6701 -0.4711  0.4496
16278TIP3   OH270324   2.274   2.317   1.440 -0.2837 -0.1948 -0.2209
16278TIP3    H170325   2.294   2.395   1.388 -1.8677  1.6321  1.7205
16278TIP3    H270326   2.248   2.251   1.376  0.0569  1.2078 -1.8699
16279TIP3   OH270327   3.170   1.929   4.039 -0.8260  0.4414 -0.0574
16279TIP3    H170328   3.079   1.950   4.063 -0.6311 -0.5560  1.7826
16279TIP3    H270329   3.212   2.014   4.030 -1.4344  0.9406  1.3721
16280TIP3   OH270330   2.251   5.446   0.326  0.4342 -0.0106  0.0202
16280TIP3    H170331   2.332   5.453   0.277  1.0406 -1.8053  0.6768
16280TIP3    H270332   2.228   5.353   0.323 -1.0589  0.2929  0.6974
16281TIP3   OH270333   1.046   2.501  14.271 -0.0688  0.7177  0.7687
16281TIP3    H170334   0.958   2.527  14.244  0.0164  0.0192 -0.2511
16281TIP3    H270335   1.071   2.432  14.209  1.5535  1.5134  0.4707
16282TIP3   OH270336   5.151   3.116   0.564  0.0040 -0.2692 -0.0988
16282TIP3    H170337   5.176   3.198   0.522  2.0702 -0.2027  1.1061
16282TIP3    H270338   5.096   3.144   0.638  2.5791  0.3279  1.7060
16283TIP3   OH270339   1.377   3.274   1.679 -0.0988  0.1719  0.1111
16283TIP3    H170340   1.298   3.328   1.668 -0.6970 -0.6718  0.1447
16283TIP3    H270341   1.393   3.237   1.592 -0.0340 -0.0525  0.2184
16284TIP3   OH270342   0.300   1.161  14.629  0.7958 -0.8069 -0.2490
16284TIP3    H170343   0.274   1.174  14.538  1.3513  0.6245 -0.2282
16284TIP3    H270344   0.218   1.163  14.678  0.2731 -3.5074 -0.8548
16285TIP3   OH270345   0.551   6.333   0.134  0.6740 -0.5136  0.1722
16285TIP3    H170346   0.589   6.371   0.213 -0.1098 -1.8780  1.2532
16285TIP3    H270347   0.605   6.367   0.063  0.4519  2.0048  1.1036
16286TIP3   OH270348   4.489   5.219   1.828 -0.3689 -0.3812  0.3547
16286TIP3    H170349   4.563   5.280   1.818 -0.0044 -0.9399 -0.4742
16286TIP3    H270350   4.520   5.156   1.893 -0.4793 -0.0862  0.6970
16287TIP3   OH270351   0.899   4.968  15.705 -0.3951 -0.2688 -0.2829
16287TIP3    H170352   0.857   4.948  15.788 -0.3470 -0.9430 -0.4135
16287TIP3    H270353   0.912   5.063  15.707  0.8141 -0.4281  1.0482
16288TIP3   OH270354   6.139   3.217   3.609  0.3610 -0.4752 -0.5482
16288TIP3    H170355   6.068   3.154   3.596 -0.1525 -0.4133  1.5739
16288TIP3    H270356   6.189   3.214   3.528 -0.1714 -2.9465 -0.8635
16289TIP3   OH270357   1.557   2.118   2.337 -1.1815 -0.2592 -0.5531
16289TIP3    H170358   1.551   2.061   2.414 -0.3592  0.7326  0.2847
16289TIP3    H270359   1.557   2.206   2.373 -1.7377  0.2593 -1.7770
16290TIP3   OH270360   4.954   0.904  14.674 -0.5556  0.1289  0.1191
16290TIP3    H170361   4.892   0.867  14.612 -0.7729  0.1190  0.3415
16290TIP3    H270362   4.948   0.999  14.660  0.5263  0.0648 -0.9543
16291TIP3   OH270363   6.089   0.315  16.663  0.6007 -0.1990 -0.4772
16291TIP3    H170364   6.154   0.349  16.724 -1.6513  1.3247  1.2706
16291TIP3    H270365   6.122   0.229  16.638  2.4072 -0.2404  1.6963
16292TIP3   OH270366   4.717   0.813   3.482  0.2317  0.5731  0.2155
16292TIP3    H170367   4.679   0.839   3.566 -0.9917  0.5887 -0.3166
16292TIP3    H270368   4.709   0.891   3.427  0.6506  0.4371 -0.0482
16293TIP3   OH270369   4.698   3.550  13.422 -0.2225  0.4141 -0.0291
16293TIP3    H170370   4.776   3.501  13.447  0.3586  0.4461 -1.6996
16293TIP3    H270371   4.730   3.620  13.364 -1.5944 -0.3244 -1.7713
16294TIP3   OH270372   3.970   5.700   4.526 -1.3748  0.7578 -0.2388
16294TIP3    H170373   3.997   5.725   4.615  0.3668 -2.3851  0.2779
16294TIP3    H270374   3.875   5.691   4.532 -1.1995 -0.5982  1.7835
16295TIP3   OH270375   2.494   6.628  12.304  0.5108 -0.0989  0.1261
16295TIP3    H170376   2.570   6.593  12.257  1.1793 -0.4684  1.4521
16295TIP3    H270377   2.443   6.551  12.328 -0.9782  0.2081 -1.8307
16296TIP3   OH270378   0.689   6.003   1.188  0.7458  0.2767  0.7624
16296TIP3    H170379   0.652   5.941   1.250  0.9605  2.1886  2.9539
16296TIP3    H270380   0.614   6.036   1.138 -0.2654  2.0956  3.2728
16297TIP3   OH270381   4.017   5.373   4.704 -0.1232  0.3243  0.1350
16297TIP3    H170382   3.995   5.361   4.611  0.3540  0.4305  0.0084
16297TIP3    H270383   4.089   5.312   4.720 -1.3044 -0.9360  0.8667
16298TIP3   OH270384   1.405   0.593   0.820 -0.1202  0.3208  0.2484
16298TIP3    H170385   1.431   0.598   0.728  0.5704  1.3705  0.4899
16298TIP3    H270386   1.312   0.571   0.817 -0.4819  1.8128 -0.7492
16299TIP3   OH270387   1.830   5.951  14.692 -0.7872 -0.5100 -0.0306
16299TIP3    H170388   1.865   5.931  14.779 -1.8717  2.9302  1.3714
16299TIP3    H270389   1.892   5.911  14.631  2.7270  0.9465  2.2975
16300TIP3   OH270390   6.420   2.234   4.221 -0.4243  0.1626  0.1036
16300TIP3    H170391   6.386   2.272   4.302  0.4541 -1.4203  1.2776
16300TIP3    H270392   6.348   2.245   4.158 -1.1479  1.3762  1.0909
16301TIP3   OH270393   2.256   1.509   6.359  0.2590 -0.1031  0.4378
16301TIP3    H170394   2.262   1.577   6.426  0.6842 -0.1221  0.4189
16301TIP3    H270395   2.199   1.442   6.398  1.2828 -0.5679  1.1761
16302TIP3   OH270396   2.869   1.779   3.557 -0.5423 -0.4175 -0.0790
16302TIP3    H170397   2.915   1.825   3.627 -0.9716 -0.4439  0.2233
16302TIP3    H270398   2.784   1.822   3.551 -0.2281  0.1038 -1.1281
16303TIP3   OH270399   0.467   4.142   2.566  0.2610  0.4251 -0.5775
16303TIP3    H170400   0.531   4.076   2.540  0.0275 -0.6684  1.4161
16303TIP3    H270401   0.509   4.188   2.638 -0.2475  1.3703 -0.8730
16304TIP3   OH270402   5.235   4.291  12.362  0.2902  0.1445 -0.8450
16304TIP3    H170403   5.284   4.244  12.294  0.7283  0.0407 -0.4618
16304TIP3    H270404   5.301   4.318  12.425  0.0840  1.4950 -1.1764
16305TIP3   OH270405   2.446   4.675   4.887 -0.4059  0.1463 -0.6185
16305TIP3    H170406   2.416   4.667   4.797  0.4584  0.0113 -0.9061
16305TIP3    H270407   2.488   4.591   4.906  3.4178  1.6009 -1.6431
16306TIP3   OH270408   6.513   5.998   1.676  0.4212  0.0707 -0.0033
16306TIP3    H170409   6.468   6.040   1.749  1.3659 -0.6420  1.0142
16306TIP3    H270410   6.504   5.904   1.693  1.9275 -0.0885  0.0139
16307TIP3   OH270411   1.315   0.453  14.874 -0.1525 -0.5024  0.2648
16307TIP3    H170412   1.272   0.433  14.957 -2.4002  0.4862 -0.5858
16307TIP3    H270413   1.309   0.372  14.824  1.4267 -1.1790  1.0836
16308TIP3   OH270414   1.449   4.768  15.676  0.1948 -0.2287  0.2463
16308TIP3    H170415   1.422   4.850  15.719 -1.1033 -0.9867  0.9469
16308TIP3    H270416   1.371   4.740  15.628  0.7418 -0.8927 -0.2675
16309TIP3   OH270417   6.439   0.588  13.810  0.0940  0.2844 -0.1711
16309TIP3    H170418   6.355   0.573  13.767 -0.5464  0.3727  0.9859
16309TIP3    H270419   6.444   0.682  13.823  0.3744  0.2809 -0.2467
16310TIP3   OH270420   0.613   3.462   4.368 -0.6394  0.0143 -0.7352
16310TIP3    H170421   0.536   3.518   4.381 -0.3714  0.0519  1.0055
16310TIP3    H270422   0.578   3.380   4.334 -1.3409  0.3505 -0.8365
16311TIP3   OH270423   6.695   6.239   5.311 -0.6391 -0.0123  0.8095
16311TIP3    H170424   6.761   6.175   5.341 -0.7681 -0.9373 -0.7247
16311TIP3    H270425   6.643   6.258   5.389  1.7388  1.1861  2.2360
16312TIP3   OH270426   5.096   4.331  17.000  0.3958 -0.0306  0.5298
16312TIP3    H170427   5.042   4.350  17.077 -1.8704  2.4376 -1.4569
16312TIP3    H270428   5.043   4.273  16.946  1.0944 -0.1350 -0.0673
16313TIP3   OH270429   3.978   4.262  14.838 -0.3718 -0.4470 -0.7815
16313TIP3    H170430   4.013   4.334  14.785  0.3908 -1.0670 -1.1484
16313TIP3    H270431   4.038   4.189  14.820  1.1269 -0.1714  2.4057
16314TIP3   OH270432   0.231   3.738   2.424  0.1192 -0.7079  0.0419
16314TIP3    H170433   0.289   3.798   2.378 -0.9514  0.0509 -0.3498
16314TIP3    H270434   0.151   3.735   2.372 -1.0912  0.0901  1.7413
16315TIP3   OH270435   3.476   4.465  16.457  0.0148 -0.1499  0.2758
16315TIP3    H170436   3.462   4.487  16.549 -0.6935 -0.0123  0.1467
16315TIP3    H270437   3.528   4.385  16.459  1.1082  0.5520  0.7710
16316TIP3   OH270438   4.572   3.927   4.775 -0.0947  0.1847  0.2534
16316TIP3    H170439   4.589   3.899   4.865 -1.2701  0.6564  0.6323
16316TIP3    H270440   4.584   3.848   4.722 -0.1281 -0.2620  0.9141
16317TIP3   OH270441   0.070   5.772  16.084 -0.6599 -0.1878  0.3044
16317TIP3    H170442   0.077   5.710  16.011 -1.2036  1.0706 -0.8524
16317TIP3    H270443   0.132   5.739  16.149 -0.5560 -1.6449 -0.4952
16318TIP3   OH270444   0.126   5.697   5.243  0.3498 -0.5206 -0.1341
16318TIP3    H170445   0.192   5.726   5.307 -0.0496  0.9679 -0.3583
16318TIP3    H270446   0.141   5.752   5.167 -0.6316 -0.7292 -0.4894
16319TIP3   OH270447   2.762   0.728  11.033  0.4068 -0.0710  0.1229
16319TIP3    H170448   2.800   0.698  10.951  0.1893  0.1355 -0.0559
16319TIP3    H270449   2.807   0.678  11.101  1.3141  0.4948 -0.0514
16320TIP3   OH270450   4.057   5.826   5.554  0.0495 -0.0830 -0.1589
16320TIP3    H170451   4.081   5.779   5.474 -0.3178  0.7306 -0.7581
16320TIP3    H270452   4.135   5.819   5.610  0.5767 -0.0486 -0.8779
16321TIP3   OH270453   5.933   0.651  12.555  0.5294  0.4044  1.0216
16321TIP3    H170454   6.020   0.623  12.581 -0.2134 -2.0278  1.1557
16321TIP3    H270455   5.947   0.712  12.483  2.3362 -1.9029 -0.7351
16322TIP3   OH270456   5.680   0.569  13.504 -0.0605 -0.2185  0.3680
16322TIP3    H170457   5.735   0.639  13.470 -1.0413  1.3945  1.9123
16322TIP3    H270458   5.591   0.595  13.483 -0.6540  0.4619  3.2619
16323TIP3   OH270459   0.061   0.276  13.274 -0.5014  0.5517  0.1746
16323TIP3    H170460  -0.023   0.268  13.318 -0.4563  0.9220  0.3356
16323TIP3    H270461   0.111   0.338  13.328 -0.0993  0.2814  0.1222
16324TIP3   OH270462   5.562   5.743  16.604 -0.4024  0.0679 -0.4243
16324TIP3    H170463   5.543   5.775  16.692  0.6006  2.2918 -0.9509
16324TIP3    H270464   5.497   5.675  16.589  0.0401 -1.1473  2.4128
16325TIP3   OH270465   4.734   6.702   3.252 -0.2475 -0.0185  0.2202
16325TIP3    H170466   4.813   6.699   3.306 -0.2690  0.7065  0.3126
16325TIP3    H270467   4.663   6.678   3.311 -0.2541  0.6337  0.4897
16326TIP3   OH270468   1.554   3.598  12.986  0.4749 -0.1440 -0.4637
16326TIP3    H170469   1.462   3.581  12.969  0.1826  1.8967 -1.1924
16326TIP3    H270470   1.601   3.552  12.916 -0.1741  0.7563 -1.5293
16327TIP3   OH270471   4.223   5.920  13.947 -0.0636 -0.0310  0.8491
16327TIP3    H170472   4.305   5.873  13.935  0.3197  0.7074  0.5102
16327TIP3    H270473   4.227   5.992  13.885 -2.7584 -2.2476 -2.2545
16328TIP3   OH270474   0.868   4.635  14.677  0.4947  0.4237 -0.0338
16328TIP3    H170475   0.925   4.688  14.621 -0.4803  0.8709 -0.6464
16328TIP3    H270476   0.857   4.687  14.756  2.6727 -0.6474  1.0588
16329TIP3   OH270477   6.568   6.718   5.419 -0.7329  0.3524 -0.6612
16329TIP3    H170478   6.531   6.722   5.331  0.9591  2.7818 -1.3533
16329TIP3    H270479   6.560   6.807   5.453  1.9486  0.3555  0.1749
16330TIP3   OH270480   3.139   3.124  11.377  0.3287  0.1588 -0.5452
16330TIP3    H170481   3.139   3.209  11.422 -1.4317 -0.0669 -0.0241
16330TIP3    H270482   3.103   3.063  11.442  2.4560 -1.2231 -0.5743
16331TIP3   OH270483   2.182   5.106   5.627 -0.3161 -0.4474  0.5611
16331TIP3    H170484   2.240   5.154   5.686  2.1709 -2.2234 -0.3079
16331TIP3    H270485   2.133   5.048   5.685 -0.4658  0.2807  1.1942
16332TIP3   OH270486   5.049   1.073   4.386 -0.4920 -0.4996 -0.1386
16332TIP3    H170487   5.103   0.999   4.357  0.0838 -0.1162 -0.0648
16332TIP3    H270488   5.092   1.104   4.466 -0.8713 -0.2400 -0.0338
16333TIP3   OH270489   2.684   2.342   0.936  0.1772  0.2054  0.7959
16333TIP3    H170490   2.648   2.415   0.885 -0.4486 -1.5590 -1.4546
16333TIP3    H270491   2.733   2.384   1.007 -0.4608  2.7803 -0.1792
16334TIP3   OH270492   5.586   4.373   0.950  0.2179  0.5005  0.0996
16334TIP3    H170493   5.626   4.440   1.006 -0.4229  0.0283  1.1442
16334TIP3    H270494   5.613   4.290   0.988  0.7319  0.1510 -0.9970
16335TIP3   OH270495   6.426   2.776  17.225  0.3605  0.4679 -0.1328
16335TIP3    H170496   6.379   2.859  17.231  0.5548  0.5484  0.3298
16335TIP3    H270497   6.370   2.720  17.172 -1.0680  0.0137  1.7775
16336TIP3   OH270498   1.493   4.078  12.620  0.0833  0.0215 -0.2010
16336TIP3    H170499   1.486   4.173  12.626  1.6498  0.0725  1.2657
16336TIP3    H270500   1.583   4.061  12.594 -0.6745 -1.0598 -2.4728
16337TIP3   OH270501   0.566   3.148  14.291 -0.3497 -0.3128  0.0232
16337TIP3    H170502   0.496   3.083  14.281  0.0927 -1.5729  3.7135
16337TIP3    H270503   0.543   3.197  14.370  2.0333  0.4821  0.3137
16338TIP3   OH270504   6.581   0.890   3.292 -0.3354  0.1338  0.1493
16338TIP3    H170505   6.624   0.969   3.324 -0.3353  0.2531 -0.1483
16338TIP3    H270506   6.607   0.822   3.354 -0.4188  0.3882  0.4656
16339TIP3   OH270507   2.038   2.838  11.177 -0.7544  0.1684 -0.2898
16339TIP3    H170508   2.075   2.861  11.092 -0.5976 -1.3165 -0.6457
16339TIP3    H270509   1.943   2.840  11.164 -0.7354  0.1931 -0.4204
16340TIP3   OH270510   4.585   3.755   2.486  0.5543  0.0215  0.7391
16340TIP3    H170511   4.651   3.819   2.513 -0.0146 -0.5901  4.0148
16340TIP3    H270512   4.509   3.774   2.541 -0.8799 -1.3282 -0.6585
16341TIP3   OH270513   0.767   4.285   1.122  0.0164  0.2397  0.5177
16341TIP3    H170514   0.789   4.377   1.106  0.2865  0.1361  0.2725
16341TIP3    H270515   0.776   4.275   1.217  0.3923  0.3667  0.4989
16342TIP3   OH270516   4.078   0.242  13.302 -0.3764  0.4462 -1.0676
16342TIP3    H170517   4.098   0.236  13.396 -0.8502 -0.5955 -1.0153
16342TIP3    H270518   4.053   0.333  13.289 -0.2844  0.6120 -0.1761
16343TIP3   OH270519   5.319   5.688  15.270 -0.1549 -0.0813  0.0418
16343TIP3    H170520   5.280   5.676  15.183  0.2546 -1.6612  0.0493
16343TIP3    H270521   5.344   5.780  15.272 -0.9790  0.1991 -1.1715
16344TIP3   OH270522   6.146   1.364  13.366 -0.2552 -0.0163 -0.0850
16344TIP3    H170523   6.188   1.301  13.307  2.1264  0.8164  0.5861
16344TIP3    H270524   6.181   1.449  13.339 -0.7894  0.6247  1.1521
16345TIP3   OH270525   0.985   2.409   3.199  0.0321  0.0797 -0.2169
16345TIP3    H170526   0.920   2.441   3.261 -0.2259  0.0724 -0.4815
16345TIP3    H270527   1.032   2.487   3.170  0.2915  0.0563  0.1488
16346TIP3   OH270528   3.023   6.710  14.884 -0.6920  0.3946 -0.0852
16346TIP3    H170529   2.954   6.777  14.892 -1.7325 -0.4273 -1.6684
16346TIP3    H270530   2.992   6.652  14.815  1.2516 -0.4658 -0.2965
16347TIP3   OH270531   3.118   1.981   1.332 -0.1579  0.3818 -0.1683
16347TIP3    H170532   3.185   1.927   1.290 -0.2705  0.7632 -0.8565
16347TIP3    H270533   3.158   2.068   1.337 -0.5723  0.5918 -0.5037
16348TIP3   OH270534   2.013   2.355  17.119  0.1154 -0.3674  0.4732
16348TIP3    H170535   1.946   2.309  17.169  0.0463 -0.0198  0.7006
16348TIP3    H270536   2.002   2.447  17.142 -1.3790  0.1284 -1.8341
16349TIP3   OH270537   0.497   4.022   5.604  0.0939  0.1062  0.0297
16349TIP3    H170538   0.552   4.034   5.681  2.0500  0.1084 -1.3048
16349TIP3    H270539   0.468   4.110   5.580  0.7708  0.2857 -0.1362
16350TIP3   OH270540   0.357   2.660  15.789  0.2670 -0.4254 -0.0125
16350TIP3    H170541   0.427   2.669  15.854  0.8151  1.9708 -0.7980
16350TIP3    H270542   0.386   2.590  15.731  0.9840 -0.8870  0.8928
16351TIP3   OH270543   6.103   3.814   3.304 -0.0373  0.0512 -0.3504
16351TIP3    H170544   6.182   3.794   3.354 -0.1744 -1.4783 -0.6894
16351TIP3    H270545   6.074   3.730   3.269 -1.2523  0.7285 -1.0841
16352TIP3   OH270546   1.530   4.979  15.482  0.6915  0.1219  0.1026
16352TIP3    H170547   1.602   4.917  15.478  0.9644  0.4955 -1.4254
16352TIP3    H270548   1.461   4.939  15.428  0.7366  0.9477 -0.5952
16353TIP3   OH270549   3.068   3.172   5.216  1.1577  0.0597  0.5253
16353TIP3    H170550   3.064   3.252   5.163  0.2985  0.2636  0.8697
16353TIP3    H270551   3.071   3.204   5.307 -0.8499 -0.2624  0.7624
16354TIP3   OH270552   1.703   4.650  14.895 -0.3193  0.2189  0.4840
16354TIP3    H170553   1.638   4.709  14.858 -1.5642 -1.8823 -0.9204
16354TIP3    H270554   1.758   4.625  14.820 -0.6187 -1.3185  0.7326
16355TIP3   OH270555   3.477   2.261  16.998 -0.2376 -0.9424  0.0416
16355TIP3    H170556   3.524   2.200  17.056  0.2570  1.6283  2.5746
16355TIP3    H270557   3.406   2.294  17.052 -0.1981  1.0590 -1.0605
16356TIP3   OH270558   5.488   3.942  14.938  0.2941 -0.2033 -0.2819
16356TIP3    H170559   5.555   3.900  14.884  0.7565 -0.0787  0.1784
16356TIP3    H270560   5.532   3.959  15.021 -0.4866 -0.6476  0.2329
16357TIP3   OH270561   2.184   4.872   5.970 -0.7414  0.1829 -0.0639
16357TIP3    H170562   2.203   4.948   6.026  0.5437 -1.4382  1.8330
16357TIP3    H270563   2.171   4.800   6.032  1.8149 -1.9756 -1.8360
16358TIP3   OH270564   3.169   0.324   2.339  0.0152 -0.1002  0.8618
16358TIP3    H170565   3.210   0.362   2.261  0.8034 -1.8200  0.4063
16358TIP3    H270566   3.201   0.234   2.342 -1.0425 -0.4604  2.4468
16359TIP3   OH270567   0.790   0.618   5.489  0.1878 -0.0977  0.6418
16359TIP3    H170568   0.810   0.547   5.428 -0.5188  1.0504 -1.0034
16359TIP3    H270569   0.863   0.679   5.481 -0.8261  1.0155 -0.5986
16360TIP3   OH270570   5.627   2.083   4.340  0.7791  0.7026 -0.1608
16360TIP3    H170571   5.631   2.178   4.331 -1.8688  0.7443 -1.7402
16360TIP3    H270572   5.561   2.069   4.408  1.4643 -0.0307  0.3665
16361TIP3   OH270573   2.689   4.952  12.373  0.2591 -0.1917 -0.7217
16361TIP3    H170574   2.626   4.935  12.442  0.3351 -1.1850 -0.8843
16361TIP3    H270575   2.642   4.931  12.292  0.5213 -0.1043 -0.8979
16362TIP3   OH270576   6.231   5.518   0.260 -0.3416  0.1751 -0.9046
16362TIP3    H170577   6.291   5.479   0.324 -0.2360 -0.0890 -1.1655
16362TIP3    H270578   6.274   5.506   0.176 -1.1486 -0.7804 -1.1979
16363TIP3   OH270579   4.167   3.474   0.326  0.1509  0.1943  0.3367
16363TIP3    H170580   4.089   3.484   0.380  1.0261 -0.5008  1.7713
16363TIP3    H270581   4.137   3.421   0.252 -0.4335 -1.3368  1.6051
16364TIP3   OH270582   2.276   3.728  13.499 -0.4669 -0.2045  0.3943
16364TIP3    H170583   2.304   3.819  13.488  0.0329 -0.3822  0.1693
16364TIP3    H270584   2.218   3.712  13.424  0.3366 -0.4129 -0.1875
16365TIP3   OH270585   3.806   0.784  10.560  0.3230  0.0260 -0.2407
16365TIP3    H170586   3.860   0.859  10.587  0.9677 -0.9941  1.5148
16365TIP3    H270587   3.830   0.715  10.622  1.0183 -2.2034 -2.8109
16366TIP3   OH270588   6.443   1.675   4.178  0.1519  0.0980  0.5575
16366TIP3    H170589   6.385   1.616   4.226 -1.9772  1.2029 -0.5152
16366TIP3    H270590   6.472   1.739   4.243 -2.4261  1.3739  0.5802
16367TIP3   OH270591   4.893   0.873   2.200 -0.7987  0.0969 -0.1990
16367TIP3    H170592   4.919   0.948   2.146  0.4280  0.6347  1.0612
16367TIP3    H270593   4.922   0.796   2.152 -1.2910  0.4564 -1.1003
16368TIP3   OH270594   2.123   1.552   4.968 -0.5661 -0.1977 -0.1815
16368TIP3    H170595   2.051   1.596   4.923 -0.6561  0.8021  0.8873
16368TIP3    H270596   2.090   1.535   5.056  0.6418  0.7089  0.4730
16369TIP3   OH270597   5.428   0.279  14.423 -0.2088  0.0994 -0.2837
16369TIP3    H170598   5.395   0.361  14.460 -1.1744 -0.8953  1.2025
16369TIP3    H270599   5.522   0.293  14.414 -0.3712  1.3994 -0.1334
16370TIP3   OH270600   2.681   6.031   5.783 -0.2449  0.3351 -0.4183
16370TIP3    H170601   2.755   6.062   5.836 -1.4096  0.9312  0.9259
16370TIP3    H270602   2.713   5.951   5.741  1.0957  0.4815  0.2809
16371TIP3   OH270603   0.985   1.042  10.443 -0.0217 -0.7983  0.4428
16371TIP3    H170604   0.910   1.015  10.391 -0.4149 -0.6873  0.9438
16371TIP3    H270605   1.040   1.092  10.383  0.3167 -1.9943 -0.2793
16372TIP3   OH270606   4.498   4.327  13.479 -0.3691  0.5023 -0.5399
16372TIP3    H170607   4.536   4.319  13.392 -0.4794  0.6781 -0.6055
16372TIP3    H270608   4.466   4.239  13.499  2.2669 -0.3033  0.5644
16373TIP3   OH270609   2.027   0.068   3.006 -0.1813  0.0999  0.7249
16373TIP3    H170610   2.036   0.151   3.053 -0.9024 -0.0764  1.1834
16373TIP3    H270611   2.085   0.078   2.930 -0.5579  1.1737  0.5565
16374TIP3   OH270612   0.561   0.279  10.133  0.2092 -0.0763  0.3261
16374TIP3    H170613   0.486   0.222  10.150 -1.6053  1.9052 -0.5151
16374TIP3    H270614   0.616   0.229  10.072 -0.4618 -1.5280  0.8643
16375TIP3   OH270615   2.713   0.381  15.253  0.8267  0.9493 -0.4514
16375TIP3    H170616   2.636   0.373  15.197  0.6052 -0.9354  0.0353
16375TIP3    H270617   2.777   0.429  15.201 -0.3172  1.6716 -1.2323
16376TIP3   OH270618   0.158   0.314  14.877  0.4504  0.2446  0.2948
16376TIP3    H170619   0.108   0.235  14.858  3.3249 -1.5609 -0.2853
16376TIP3    H270620   0.164   0.360  14.793  0.6243 -0.0446  0.1510
16377TIP3   OH270621   0.400   4.869   0.157  0.1694  0.6060  0.5523
16377TIP3    H170622   0.322   4.850   0.210 -0.4553 -0.1249 -0.5787
16377TIP3    H270623   0.412   4.963   0.163  0.4293  0.4809  2.4078
16378TIP3   OH270624   0.996   2.706   3.552  0.3845 -0.0970  0.4844
16378TIP3    H170625   1.037   2.783   3.511  0.4977  0.0238  0.8163
16378TIP3    H270626   0.902   2.723   3.547  0.4312  0.9964  2.2746
16379TIP3   OH270627   3.098   2.854   5.524 -0.1523  0.4096 -0.1654
16379TIP3    H170628   3.088   2.794   5.597  2.5853 -0.0531 -0.0606
16379TIP3    H270629   3.164   2.917   5.553 -0.2210  1.2250 -1.6367
16380TIP3   OH270630   0.907   0.588   1.979  0.0184 -0.0147  0.7745
16380TIP3    H170631   0.898   0.682   1.990 -1.8759 -0.1691  0.9554
16380TIP3    H270632   0.883   0.552   2.065  0.5778 -0.6667  0.6662
16381TIP3   OH270633   2.610   3.433  12.416 -0.1257 -0.1168 -0.4636
16381TIP3    H170634   2.691   3.483  12.402 -0.2834  0.4287  0.4646
16381TIP3    H270635   2.640   3.343  12.427  0.6029  0.3105  1.7168
16382TIP3   OH270636   2.155   5.999  13.467  0.1277 -0.5867 -0.5968
16382TIP3    H170637   2.202   5.944  13.530  1.2764  0.9776 -0.0381
16382TIP3    H270638   2.204   5.987  13.385  1.6034  1.0562 -0.0116
16383TIP3   OH270639   6.819   3.140  12.618 -0.0912 -0.0561  0.0660
16383TIP3    H170640   6.898   3.190  12.597 -0.8967  1.0109 -0.5195
16383TIP3    H270641   6.757   3.205  12.650 -1.3236 -0.5749 -1.1653
16384TIP3   OH270642   0.155   2.191  13.603 -0.1659 -0.3777 -0.2052
16384TIP3    H170643   0.090   2.254  13.572  1.0499  0.8118 -0.4079
16384TIP3    H270644   0.163   2.208  13.696  1.0800  0.6668 -0.4789
16385TIP3   OH270645   6.816   5.545  16.803 -1.2470 -0.8439  0.0425
16385TIP3    H170646   6.770   5.463  16.821 -2.0305 -0.9061 -1.9449
16385TIP3    H270647   6.794   5.565  16.712  1.4622 -0.0731 -0.5452
16386TIP3   OH270648   5.037   0.104   2.960  0.0434  0.6057 -0.3627
16386TIP3    H170649   4.964   0.159   2.932 -1.6056 -1.4132 -0.3192
16386TIP3    H270650   5.007   0.014   2.944  1.6099 -0.4023  1.7655
16387TIP3   OH270651   1.415   3.296   4.158 -0.0250  0.0556 -0.7447
16387TIP3    H170652   1.342   3.323   4.103 -0.3683 -0.3634 -0.4969
16387TIP3    H270653   1.376   3.275   4.243  0.5499  1.0992 -0.1961
16388TIP3   OH270654   0.878   4.356  14.769  0.6160  0.1857 -0.0232
16388TIP3    H170655   0.836   4.434  14.734 -0.0642 -0.4274 -0.6329
16388TIP3    H270656   0.912   4.382  14.854  0.7750  1.2503 -0.4013
16389TIP3   OH270657   4.432   2.479  15.638  0.1398 -0.0468  0.5566
16389TIP3    H170658   4.425   2.420  15.714  1.7784 -0.4906  0.3934
16389TIP3    H270659   4.506   2.445  15.588 -1.2559 -0.1133 -1.5837
16390TIP3   OH270660   2.929   2.080  15.863  0.1444  0.2285 -0.6597
16390TIP3    H170661   2.860   2.146  15.865  0.9532  1.1881 -2.3433
16390TIP3    H270662   3.008   2.127  15.889  0.2633 -0.7863  0.9545
16391TIP3   OH270663   4.364   2.336  13.263  0.4180  0.3569 -0.1160
16391TIP3    H170664   4.410   2.383  13.194  0.2311  0.4919 -0.1486
16391TIP3    H270665   4.285   2.387  13.279  0.7220  0.6190  0.5765
16392TIP3   OH270666   1.666   6.778  13.517 -0.1019  0.2599  0.6198
16392TIP3    H170667   1.645   6.757  13.608  1.4606 -0.4315  0.8594
16392TIP3    H270668   1.582   6.781  13.472 -0.8231 -0.3520  1.8986
16393TIP3   OH270669   3.925   1.656   6.932 -0.0067  0.2430 -0.4879
16393TIP3    H170670   3.998   1.666   6.994 -0.9493  1.4611  0.4709
16393TIP3    H270671   3.945   1.575   6.885  1.3821 -0.0541  0.5354
16394TIP3   OH270672   5.300   5.586  10.632 -0.7831 -0.4217 -0.1046
16394TIP3    H170673   5.374   5.560  10.688 -0.3820  0.6780 -0.0913
16394TIP3    H270674   5.338   5.651  10.573 -1.5124 -0.6244 -0.8009
16395TIP3   OH270675   0.573   1.569   9.968 -0.0150  0.6475 -0.3534
16395TIP3    H170676   0.542   1.509   9.900  0.5514 -0.7676  0.6009
16395TIP3    H270677   0.511   1.560  10.039  0.8700  0.0681  0.3704
16396TIP3   OH270678   1.055   1.602   1.207  0.6389  0.6616  0.4176
16396TIP3    H170679   1.025   1.541   1.274 -0.2901  1.3196  0.6230
16396TIP3    H270680   1.139   1.634   1.239  1.4345 -0.9480  0.0133
16397TIP3   OH270681   4.440   4.682   4.800  0.1612 -0.0649  0.8864
16397TIP3    H170682   4.394   4.656   4.720  0.5448 -0.8340  0.9080
16397TIP3    H270683   4.373   4.726   4.853 -0.1391  0.2956  0.2229
16398TIP3   OH270684   1.458   2.095   4.310 -0.0095  0.0132  0.2504
16398TIP3    H170685   1.514   2.108   4.386 -0.3557 -0.9027  0.6811
16398TIP3    H270686   1.372   2.076   4.347 -0.9349  2.5355 -0.3856
16399TIP3   OH270687   0.922   5.709   2.015 -0.2060 -0.3346  0.1448
16399TIP3    H170688   0.969   5.628   2.033 -0.2208 -0.1688  0.9599
16399TIP3    H270689   0.833   5.681   1.995 -0.8406 -0.4144  2.7642
16400TIP3   OH270690   6.286   0.456  16.783 -0.1725 -0.3635 -0.1887
16400TIP3    H170691   6.253   0.495  16.863  0.1752  0.0004 -0.2170
16400TIP3    H270692   6.375   0.426  16.805  0.0971  0.1431 -0.5515
16401TIP3   OH270693   3.374   5.396  17.231  0.4800 -0.1636  0.0969
16401TIP3    H170694   3.438   5.421  17.298  1.9724 -2.0952 -0.5005
16401TIP3    H270695   3.412   5.428  17.149 -0.3508  0.4389 -0.0671
16402TIP3   OH270696   2.418   0.723  11.779  0.3833  0.1686 -0.1997
16402TIP3    H170697   2.408   0.636  11.739  0.0439  0.6255 -1.1409
16402TIP3    H270698   2.335   0.767  11.761  0.7698  0.8891 -0.2459
16403TIP3   OH270699   5.720   4.168   2.612  0.1013  0.0520 -0.1622
16403TIP3    H170700   5.764   4.241   2.570  0.0924  0.0604 -0.1572
16403TIP3    H270701   5.638   4.205   2.645 -0.1415 -0.0747 -0.6139
16404TIP3   OH270702   4.273   5.687   0.583  0.2891  0.7582 -0.0157
16404TIP3    H170703   4.364   5.714   0.580  0.3995  0.2902 -1.5262
16404TIP3    H270704   4.240   5.723   0.666  1.7550  1.1545  0.4190
16405TIP3   OH270705   1.854   3.404  14.533 -0.1901  0.2270 -0.3262
16405TIP3    H170706   1.784   3.370  14.477 -0.4982 -1.3526  0.9306
16405TIP3    H270707   1.935   3.382  14.487 -0.4613  0.5340 -0.9679
16406TIP3   OH270708   4.767   0.554  13.961  0.0068  0.2661  0.0775
16406TIP3    H170709   4.822   0.487  13.922 -1.1166 -0.4084 -0.3978
16406TIP3    H270710   4.743   0.519  14.047 -0.1671  0.2858  0.0374
16407TIP3   OH270711   0.800   5.994   2.926 -0.8694 -0.0873 -0.2941
16407TIP3    H170712   0.812   5.900   2.915 -2.3969 -0.6278  1.8915
16407TIP3    H270713   0.884   6.026   2.957 -0.8440 -1.1239  0.7870
16408TIP3   OH270714   5.581   2.375   3.725 -0.6175  0.4844  0.4578
16408TIP3    H170715   5.595   2.453   3.671 -0.4323  0.7076  0.8268
16408TIP3    H270716   5.554   2.409   3.811 -0.8682  0.1325  0.5239
16409TIP3   OH270717   2.027   2.494   1.690  0.5948 -0.1932 -0.3283
16409TIP3    H170718   2.089   2.432   1.652  0.5328 -0.1048 -0.5777
16409TIP3    H270719   2.027   2.474   1.783  0.8577 -0.3165 -0.3541
16410TIP3   OH270720   5.931   5.844   5.716  0.3074  0.2474 -0.1846
16410TIP3    H170721   5.959   5.897   5.642 -1.7717  0.2131 -1.0532
16410TIP3    H270722   5.837   5.830   5.702  0.5784 -2.9622  0.4066
16411TIP3   OH270723   3.242   4.095  11.289 -0.0005 -0.2635 -0.2767
16411TIP3    H170724   3.151   4.123  11.295  0.0953 -0.1392  0.6742
16411TIP3    H270725   3.269   4.119  11.200 -0.0533  2.2859  0.3306
16412TIP3   OH270726   3.538   0.769   2.093  0.5622 -0.3947 -0.3143
16412TIP3    H170727   3.615   0.788   2.040  0.6876  0.9084  0.3143
16412TIP3    H270728   3.470   0.826   2.057  0.0327 -1.1259 -0.4993
16413TIP3   OH270729   0.355   5.783   1.870  0.3966  0.2137 -0.0903
16413TIP3    H170730   0.374   5.748   1.782 -1.4711  0.9688 -0.8412
16413TIP3    H270731   0.316   5.868   1.854 -1.2270 -0.2063  1.4156
16414TIP3   OH270732   1.874   0.830   2.056  0.4975  0.0720  0.5341
16414TIP3    H170733   1.825   0.748   2.063 -0.7641  0.6492 -0.9107
16414TIP3    H270734   1.963   0.807   2.082  0.2919 -1.8774 -0.2926
16415TIP3   OH270735   3.092   3.358  13.720  0.6407  0.1103 -0.4129
16415TIP3    H170736   3.098   3.376  13.626 -0.6221  0.1266 -0.5156
16415TIP3    H270737   3.012   3.404  13.748  1.0189  0.1351  0.6740
16416TIP3   OH270738   4.524   4.572   6.183 -0.3050 -0.1520  0.7183
16416TIP3    H170739   4.490   4.653   6.222  1.7007  1.2328 -0.2207
16416TIP3    H270740   4.617   4.589   6.171 -0.3801 -1.3596 -2.4574
16417TIP3   OH270741   5.382   5.920  16.001  0.2246  0.0451  0.4352
16417TIP3    H170742   5.353   5.903  15.912  0.7842  1.9293 -0.1518
16417TIP3    H270743   5.357   5.842  16.050 -1.6811 -0.3016 -0.9864
16418TIP3   OH270744   4.148   0.115  11.277 -0.6574  0.1271  0.5731
16418TIP3    H170745   4.072   0.108  11.335 -0.7096 -0.7731  0.4085
16418TIP3    H270746   4.124   0.185  11.215 -0.5202  1.2333  1.7298
16419TIP3   OH270747   2.497   5.686  14.971 -0.2485 -0.4886  0.1840
16419TIP3    H170748   2.566   5.715  15.031 -0.4920 -0.3388  0.3928
16419TIP3    H270749   2.540   5.681  14.886 -0.3846  1.2582 -0.0160
16420TIP3   OH270750   0.932   2.535  15.107  0.2986 -0.5268  0.8469
16420TIP3    H170751   0.901   2.527  15.016 -0.6095  2.4114  0.8064
16420TIP3    H270752   1.026   2.517  15.102  0.3558  0.0602 -0.7899
16421TIP3   OH270753   2.539   1.986  16.260  0.0645 -0.6156 -0.2950
16421TIP3    H170754   2.542   1.939  16.344  2.0564 -1.3586 -0.7283
16421TIP3    H270755   2.540   1.917  16.194 -1.9220 -0.0568 -0.9946
16422TIP3   OH270756   3.142   5.695   2.058  0.1742 -0.8757  0.2797
16422TIP3    H170757   3.047   5.700   2.072  0.0723 -3.0660  0.7227
16422TIP3    H270758   3.165   5.605   2.079  2.4691 -0.2671  0.6974
16423TIP3   OH270759   3.953   3.094  11.634  0.1515  0.7104  0.0057
16423TIP3    H170760   3.990   3.179  11.612  0.6825  0.6879  0.7483
16423TIP3    H270761   3.993   3.033  11.573 -0.1508  0.9732 -0.4595
16424TIP3   OH270762   2.142   6.328   4.034  0.0109  0.7181 -0.3447
16424TIP3    H170763   2.122   6.287   4.119 -0.2410  1.1575 -0.1859
16424TIP3    H270764   2.238   6.330   4.031  0.0556 -0.7224 -0.7739
16425TIP3   OH270765   6.447   0.679   0.433  0.1208  0.6163 -0.0609
16425TIP3    H170766   6.367   0.705   0.478 -0.1404 -0.4901  0.1572
16425TIP3    H270767   6.421   0.603   0.381  1.2901 -0.5584  0.9948
16426TIP3   OH270768   0.435   0.608  10.456 -0.0850  0.0971 -0.4582
16426TIP3    H170769   0.483   0.604  10.373 -0.1341  0.4880 -0.5041
16426TIP3    H270770   0.364   0.545  10.446 -1.8145  2.1366 -1.8063
16427TIP3   OH270771   0.597   6.336   3.528 -0.3204  0.1692  0.2951
16427TIP3    H170772   0.630   6.332   3.438  1.2641 -0.5055  0.8698
16427TIP3    H270773   0.652   6.402   3.570 -1.1369  0.5710  0.7636
16428TIP3   OH270774   3.193   1.147   5.622  0.5937  0.9881  0.5090
16428TIP3    H170775   3.135   1.164   5.547 -0.8230 -1.8448  0.8401
16428TIP3    H270776   3.153   1.197   5.693  0.0126  1.0905  0.1263
16429TIP3   OH270777   3.094   4.444  15.960 -0.0162  0.5202  0.8942
16429TIP3    H170778   3.112   4.512  15.895  1.2204  0.5017  1.2028
16429TIP3    H270779   3.129   4.479  16.042 -0.7223  0.1452  1.3623
16430TIP3   OH270780   1.591   0.934   5.243  0.3058  0.1676  0.6498
16430TIP3    H170781   1.575   0.892   5.328 -1.5268 -1.6728 -0.5098
16430TIP3    H270782   1.517   0.994   5.231  0.7366  0.6748  0.4899
16431TIP3   OH270783   6.701   1.778   0.277 -0.2466  0.3090 -0.4097
16431TIP3    H170784   6.769   1.827   0.231 -0.1349  0.6577  0.1095
16431TIP3    H270785   6.730   1.687   0.273 -0.4183  0.2854 -1.3255
16432TIP3   OH270786   5.212   4.750  11.497 -0.4038 -0.4530 -1.2122
16432TIP3    H170787   5.121   4.763  11.473 -0.7224  1.1996  0.6835
16432TIP3    H270788   5.258   4.826  11.461  0.1166 -0.8946 -1.5023
16433TIP3   OH270789   0.798   5.952   4.510  0.2347  0.9819 -0.5016
16433TIP3    H170790   0.858   5.903   4.455 -1.9113 -0.3179 -1.8490
16433TIP3    H270791   0.787   6.036   4.465 -0.6080  0.3707 -1.4929
16434TIP3   OH270792   6.413   0.511   3.096  0.4152 -0.5548 -0.6185
16434TIP3    H170793   6.350   0.447   3.062 -1.9267  1.8346 -1.0656
16434TIP3    H270794   6.383   0.531   3.184  2.0812 -1.1470  0.1455
16435TIP3   OH270795   3.228   5.381  16.018 -0.5471 -0.4844 -0.5039
16435TIP3    H170796   3.152   5.399  16.073 -0.5101  1.4916 -1.0163
16435TIP3    H270797   3.215   5.436  15.941  1.4510 -0.0027 -0.5489
16436TIP3   OH270798   4.758   1.356   3.970  0.2132 -0.1638 -0.0362
16436TIP3    H170799   4.762   1.406   4.052  0.8189 -0.3990  0.0903
16436TIP3    H270800   4.840   1.307   3.969  0.6851  0.5855 -1.2676
16437TIP3   OH270801   3.526   3.489  14.571 -0.1463  0.3777 -0.4542
16437TIP3    H170802   3.498   3.580  14.573 -0.4767  0.2604  1.0623
16437TIP3    H270803   3.619   3.493  14.594  0.3414  0.4622 -2.2337
16438TIP3   OH270804   5.138   5.644   2.909 -0.0264  0.4907 -0.0627
16438TIP3    H170805   5.178   5.668   2.993 -0.2923 -0.3325  0.3162
16438TIP3    H270806   5.126   5.549   2.916  0.8021  0.2634 -1.4070
16439TIP3   OH270807   4.577   3.145   1.348  0.1750 -0.0776  0.6345
16439TIP3    H170808   4.589   3.113   1.259 -0.5284  3.4284 -0.8664
16439TIP3    H270809   4.637   3.219   1.356 -2.0308  1.7143  1.8661
16440TIP3   OH270810   3.946   2.124  14.137 -0.5400  0.5402 -0.3817
16440TIP3    H170811   4.001   2.078  14.200 -2.6508  0.3379  1.4219
16440TIP3    H270812   3.941   2.213  14.171  0.2852  1.1038 -1.6658
16441TIP3   OH270813   3.537   2.569  13.039  0.2878 -0.0806 -0.4281
16441TIP3    H170814   3.447   2.562  13.005  0.8743 -2.4427 -1.6716
16441TIP3    H270815   3.564   2.657  13.015 -1.4927  0.4963 -0.5002
16442TIP3   OH270816   5.834   2.286   0.728  0.6118 -0.4417  0.0076
16442TIP3    H170817   5.784   2.359   0.691 -0.7694 -1.8625 -1.0057
16442TIP3    H270818   5.875   2.323   0.806  1.1882  1.8361 -1.2649
16443TIP3   OH270819   0.159   3.891  12.191 -0.2892  0.4254 -0.2393
16443TIP3    H170820   0.194   3.873  12.278 -0.7288 -0.2566 -0.1947
16443TIP3    H270821   0.123   3.979  12.197 -2.2060 -0.3643  0.9105
16444TIP3   OH270822   0.005   1.786   1.044 -0.1243  0.5823 -0.7416
16444TIP3    H170823   0.080   1.735   1.014 -0.0569 -0.8425  1.5447
16444TIP3    H270824   0.028   1.810   1.134 -2.3771  0.1076  0.0082
16445TIP3   OH270825   5.008   4.915   4.104  0.1098  0.2664  0.5028
16445TIP3    H170826   5.081   4.892   4.161  0.4562 -0.4758 -0.2098
16445TIP3    H270827   5.033   4.880   4.018 -1.5667 -1.0127  0.4783
16446TIP3   OH270828   0.580   1.432  16.033  0.3838 -0.1480  0.2957
16446TIP3    H170829   0.602   1.482  15.954 -0.1180  1.0563  0.8842
16446TIP3    H270830   0.547   1.498  16.094  0.3319 -1.1218  1.3541
16447TIP3   OH270831   5.404   4.070   0.943 -0.5813  0.2661  0.0899
16447TIP3    H170832   5.396   4.009   0.869 -0.4379 -2.2497  1.9883
16447TIP3    H270833   5.344   4.034   1.009 -0.5617  2.3041  1.2982
16448TIP3   OH270834   2.701   0.731  15.237  0.7546 -0.3452  0.6039
16448TIP3    H170835   2.696   0.804  15.176 -1.4900 -0.0379  1.0713
16448TIP3    H270836   2.728   0.656  15.184  0.2310  0.2095 -0.4588
16449TIP3   OH270837   1.962   6.609   0.807 -0.2791 -0.4004 -0.1238
16449TIP3    H170838   1.961   6.655   0.723 -2.5687  1.4780  0.8399
16449TIP3    H270839   1.870   6.594   0.828  0.3032 -2.7261  1.1216
16450TIP3   OH270840   6.599   6.730  12.120 -0.0421  0.4347 -0.1380
16450TIP3    H170841   6.670   6.701  12.177 -0.2471  2.4361  1.2384
16450TIP3    H270842   6.625   6.700  12.033  1.1118 -1.2450  0.7175
16451TIP3   OH270843   2.329   6.093   1.249  0.9423 -0.0496 -0.0279
16451TIP3    H170844   2.290   6.070   1.333 -1.4798 -2.2670 -1.6053
16451TIP3    H270845   2.285   6.173   1.222 -0.7176 -1.0690 -0.5427
16452TIP3   OH270846   2.938   2.878   3.801  0.2888 -0.5320  0.3093
16452TIP3    H170847   2.879   2.819   3.754 -1.0216 -0.8028  2.1797
16452TIP3    H270848   3.026   2.852   3.772 -0.4109 -0.9691 -1.5850
16453TIP3   OH270849   4.412   2.038   2.932  0.0183 -0.1500  0.2780
16453TIP3    H170850   4.321   2.066   2.929 -0.1135 -0.6919 -1.5366
16453TIP3    H270851   4.424   1.986   2.853  1.6108 -1.0078  1.0476
16454TIP3   OH270852   3.487   2.088   6.544  0.3330  0.5720  0.4531
16454TIP3    H170853   3.448   2.104   6.630  1.3768  4.1899  0.4127
16454TIP3    H270854   3.546   2.162   6.530  0.9677 -0.4040 -2.9914
16455TIP3   OH270855   2.158   4.673   1.573  0.3431 -0.1442  0.6480
16455TIP3    H170856   2.165   4.724   1.492  0.0374 -0.4193  0.4484
16455TIP3    H270857   2.080   4.620   1.562  0.9123 -1.0017  0.6606
16456TIP3   OH270858   4.594   0.028   0.601 -0.1608  0.0289  0.5864
16456TIP3    H170859   4.655   0.004   0.671  1.5405  0.2631 -0.7471
16456TIP3    H270860   4.574  -0.054   0.557 -0.2360  0.0377  0.6059
16457TIP3   OH270861   4.949   2.531  14.012 -0.0910  0.2541 -0.3233
16457TIP3    H170862   4.956   2.625  14.027 -1.4353  0.4985 -1.0544
16457TIP3    H270863   4.934   2.523  13.918  0.6346 -0.7444 -0.3668
16458TIP3   OH270864   1.885   4.897   1.903 -0.8639 -0.4538  0.2911
16458TIP3    H170865   1.854   4.811   1.931 -2.0022  0.6377  2.7070
16458TIP3    H270866   1.975   4.902   1.936 -1.1069 -0.3989  0.9636
16459TIP3   OH270867   2.463   6.401   0.771 -0.6572  0.4598  0.8054
16459TIP3    H170868   2.402   6.353   0.826 -1.1957  1.2187  0.8906
16459TIP3    H270869   2.430   6.388   0.682  1.1216 -2.1056  0.4167
16460TIP3   OH270870   5.607   5.968  14.089 -0.2374 -0.1725 -0.1758
16460TIP3    H170871   5.523   5.923  14.083  0.0010 -0.4895 -1.2643
16460TIP3    H270872   5.665   5.906  14.134 -0.5857  0.0673  0.6197
16461TIP3   OH270873   0.535   0.869   4.279 -0.2585 -0.1196 -0.0607
16461TIP3    H170874   0.539   0.888   4.373 -2.5543  0.5414 -0.0474
16461TIP3    H270875   0.448   0.898   4.252  1.1700  2.1225 -2.9167
16462TIP3   OH270876   5.548   6.227   2.699 -0.0921  0.0420  0.7688
16462TIP3    H170877   5.554   6.133   2.681  0.9358 -0.0807  1.6598
16462TIP3    H270878   5.497   6.232   2.780 -1.2066  0.3479  0.0751
16463TIP3   OH270879   2.261   4.690  13.482 -0.3101 -0.3319 -0.4298
16463TIP3    H170880   2.303   4.608  13.457 -0.5632 -0.6848  0.2691
16463TIP3    H270881   2.330   4.756  13.475  0.4491 -0.9468  0.9769
16464TIP3   OH270882   2.049   4.532  11.621 -0.7254  0.6344 -0.1899
16464TIP3    H170883   2.140   4.509  11.640 -0.7553 -1.3108 -2.0396
16464TIP3    H270884   2.048   4.628  11.622  0.9409  0.6969  1.4909
16465TIP3   OH270885   0.687   0.565  10.570 -0.2055 -0.0534 -0.0297
16465TIP3    H170886   0.599   0.573  10.533 -0.8338 -0.6755  1.2612
16465TIP3    H270887   0.678   0.597  10.660  0.6429 -1.0988  0.4469
16466TIP3   OH270888   6.096   0.047  13.563 -0.6288  0.2494  0.0245
16466TIP3    H170889   6.026   0.113  13.557 -0.9077  0.0575  0.9528
16466TIP3    H270890   6.049  -0.036  13.575 -0.2560  0.0156 -0.1188
16467TIP3   OH270891   6.621   1.621   1.622  0.3628 -0.0466  0.1067
16467TIP3    H170892   6.707   1.605   1.582 -0.1384 -1.3727 -0.4842
16467TIP3    H270893   6.619   1.560   1.697  0.7302  1.4200  1.3663
16468TIP3   OH270894   6.770   3.818   0.462  0.4124 -0.3998 -0.0013
16468TIP3    H170895   6.799   3.807   0.372  2.6802 -1.7051  0.8240
16468TIP3    H270896   6.769   3.730   0.499  1.7455  0.2911  1.8586
16469TIP3   OH270897   5.465   1.624   5.819 -0.2060 -0.5145 -0.8415
16469TIP3    H170898   5.401   1.674   5.869  0.7267 -0.4287  0.2939
16469TIP3    H270899   5.445   1.644   5.728  0.8773  2.9049 -0.4487
16470TIP3   OH270900   4.810   4.228   1.623 -0.0948  0.1456 -0.0205
16470TIP3    H170901   4.800   4.298   1.688 -1.0811 -0.6818  0.7711
16470TIP3    H270902   4.720   4.201   1.603  0.2671 -1.2164  0.0815
16471TIP3   OH270903   2.871   1.482   4.295  0.2696  0.0273 -0.1833
16471TIP3    H170904   2.933   1.488   4.366 -3.1787 -0.9821  3.2763
16471TIP3    H270905   2.852   1.573   4.270  0.3599  0.4989  1.3974
16472TIP3   OH270906   2.519   5.385  13.494 -0.4796 -0.2694  0.1668
16472TIP3    H170907   2.430   5.422  13.493 -0.7008 -0.7880  0.3950
16472TIP3    H270908   2.571   5.451  13.539 -1.0728 -0.6548  1.4690
16473TIP3   OH270909   0.053   3.664  15.485  0.6810 -0.3867  0.0697
16473TIP3    H170910  -0.011   3.705  15.543 -1.4024 -1.2740 -1.4605
16473TIP3    H270911   0.100   3.602  15.540 -0.4324 -0.3824  1.0599
16474TIP3   OH270912   5.254   1.902  13.497 -0.1694 -0.4959 -0.0883
16474TIP3    H170913   5.272   1.855  13.578  2.8298 -1.0693 -0.9705
16474TIP3    H270914   5.196   1.974  13.523  1.9724  0.3144  2.8929
16475TIP3   OH270915   3.697   0.940   5.365  0.4247  0.2995 -0.5317
16475TIP3    H170916   3.651   1.000   5.306 -1.1939 -0.4020 -0.0481
16475TIP3    H270917   3.653   0.951   5.450 -2.3277 -3.8206 -1.1045
16476TIP3   OH270918   6.479   1.897   1.622 -0.4809 -0.0478  0.2670
16476TIP3    H170919   6.552   1.953   1.597 -2.7022  2.7314 -0.5964
16476TIP3    H270920   6.515   1.809   1.623  2.1555  0.7821 -3.1131
16477TIP3   OH270921   1.373   4.489  15.546 -0.0143 -0.0729 -0.1441
16477TIP3    H170922   1.332   4.571  15.519  0.6069 -0.3846 -2.2492
16477TIP3    H270923   1.317   4.421  15.508 -0.7074 -0.6787  1.8510
16478TIP3   OH270924   3.745   2.957  11.746  0.0474 -0.4479  0.8853
16478TIP3    H170925   3.809   3.002  11.691 -0.6771 -1.9969 -1.3674
16478TIP3    H270926   3.663   3.005  11.733 -0.6842 -2.0889 -1.3850
16479TIP3   OH270927   3.587   1.307   5.625 -0.0959 -0.2768  0.0083
16479TIP3    H170928   3.506   1.358   5.632 -1.0535 -1.6899 -0.3182
16479TIP3    H270929   3.656   1.368   5.651 -0.8969  1.8781 -2.5510
16480TIP3   OH270930   0.859   5.935   5.151 -0.2322  0.3468  0.2636
16480TIP3    H170931   0.792   5.874   5.121 -0.7150  0.8468  0.3062
16480TIP3    H270932   0.876   5.910   5.242 -0.4805  0.3194  0.3028
16481TIP3   OH270933   5.836   0.148  12.397  0.2603 -0.7509  0.0664
16481TIP3    H170934   5.892   0.084  12.441 -0.3235  1.0205  3.7053
16481TIP3    H270935   5.760   0.158  12.454 -1.0748  1.0827 -1.8696
16482TIP3   OH270936   1.475   5.875  14.270  0.0613 -0.0033  0.2282
16482TIP3    H170937   1.465   5.948  14.208 -0.6303 -0.8879 -0.7365
16482TIP3    H270938   1.519   5.914  14.346  1.6429  0.9568 -1.1092
16483TIP3   OH270939   4.104   2.563   1.556 -0.3755  0.0165 -0.0402
16483TIP3    H170940   4.120   2.607   1.639 -1.1131  0.0741  0.0765
16483TIP3    H270941   4.149   2.479   1.564  1.9652  1.1067 -0.6622
16484TIP3   OH270942   3.991   0.072  11.676 -0.0613 -0.2882  0.0823
16484TIP3    H170943   3.914   0.124  11.654  0.7581  1.9470  2.0457
16484TIP3    H270944   3.987  -0.003  11.617 -3.2583  0.1612 -0.4578
16485TIP3   OH270945   0.152   6.745   3.452  0.7075 -0.4249  0.2701
16485TIP3    H170946   0.108   6.724   3.370 -0.1451 -0.4431  0.7187
16485TIP3    H270947   0.245   6.728   3.435  0.4779 -0.9316 -0.5222
16486TIP3   OH270948   2.416   2.413  13.434 -0.4912  0.9084  0.0417
16486TIP3    H170949   2.465   2.405  13.352  0.8712 -2.9032  1.0155
16486TIP3    H270950   2.483   2.418  13.502 -1.5209  0.6156  1.1237
16487TIP3   OH270951   1.434   3.722   6.559 -0.2730  0.1535 -0.6343
16487TIP3    H170952   1.528   3.712   6.548 -0.0504  1.9580 -0.6558
16487TIP3    H270953   1.399   3.720   6.470 -0.1371  0.3852 -0.6943
16488TIP3   OH270954   2.994   4.709   3.614  0.6159 -0.4134  0.1134
16488TIP3    H170955   3.007   4.680   3.524 -0.1054 -1.2766  0.2802
16488TIP3    H270956   3.026   4.800   3.615 -1.6517  0.4927 -1.6489
16489TIP3   OH270957   1.015   1.491  11.659 -0.4908 -0.3251 -0.1313
16489TIP3    H170958   1.026   1.493  11.563  0.2172 -0.1260 -0.0585
16489TIP3    H270959   0.951   1.559  11.677  1.1170  1.3163 -0.2888
16490TIP3   OH270960   5.400   4.780   2.883 -0.6128 -0.2908 -0.1231
16490TIP3    H170961   5.317   4.822   2.863 -0.7267  0.2492  1.4202
16490TIP3    H270962   5.387   4.688   2.857 -1.3081  0.0048 -0.8661
16491TIP3   OH270963   4.842   4.109   3.406  0.3255  0.1498  0.2359
16491TIP3    H170964   4.795   4.166   3.345  0.2310 -0.6051 -0.4156
16491TIP3    H270965   4.788   4.110   3.486 -0.4403 -0.1692 -0.2654
16492TIP3   OH270966   0.875   3.415  15.318 -0.7425 -0.8116 -0.3622
16492TIP3    H170967   0.953   3.465  15.293 -1.4516  1.0335  0.8461
16492TIP3    H270968   0.832   3.393  15.235  1.6097 -2.9330 -1.1290
16493TIP3   OH270969   4.267   1.378  15.752  0.7493 -0.6337 -0.4972
16493TIP3    H170970   4.338   1.411  15.697 -0.1053 -2.7603 -3.0433
16493TIP3    H270971   4.247   1.451  15.811  2.7657  1.2255 -1.9514
16494TIP3   OH270972   4.921   3.043  12.509  0.7028 -0.0786 -0.3848
16494TIP3    H170973   4.993   3.011  12.455 -0.2004 -0.8843 -1.1461
16494TIP3    H270974   4.946   3.133  12.531  2.4088 -0.6641  0.2441
16495TIP3   OH270975   4.747   1.825   5.386  0.5224  0.2883  0.1216
16495TIP3    H170976   4.676   1.770   5.356  0.0261 -0.4594  2.4404
16495TIP3    H270977   4.794   1.771   5.450  2.4279  1.1989 -0.4501
16496TIP3   OH270978   6.370   2.635   6.503 -0.0368  0.1761  0.0710
16496TIP3    H170979   6.405   2.576   6.570  3.7273  0.3474 -1.4483
16496TIP3    H270980   6.330   2.578   6.438  0.1828 -0.3695  0.4117
16497TIP3   OH270981   3.458   5.049  11.244 -0.1080 -0.4910  0.3822
16497TIP3    H170982   3.406   4.992  11.187  0.1893 -0.9542  0.5658
16497TIP3    H270983   3.511   4.988  11.296  0.3823 -0.0364  0.4166
16498TIP3   OH270984   1.460   5.659  11.657 -0.1385  0.0877 -0.4133
16498TIP3    H170985   1.454   5.740  11.607 -2.8145  0.1420 -0.1470
16498TIP3    H270986   1.445   5.685  11.748 -1.8312 -0.7395 -0.4120
16499TIP3   OH270987   6.556   4.309  11.462 -0.0825  0.3631  0.2183
16499TIP3    H170988   6.525   4.376  11.523  0.3703  0.6493  0.1385
16499TIP3    H270989   6.481   4.250  11.452  0.0228 -0.0126  1.4879
16500TIP3   OH270990   4.333   5.498  16.696  0.3933  0.0584  0.1534
16500TIP3    H170991   4.317   5.406  16.718 -1.1227  0.0975 -0.6925
16500TIP3    H270992   4.312   5.546  16.777 -1.3098 -0.1433 -0.1363
16501TIP3   OH270993   2.607   3.805   4.479  0.3919 -0.4806 -0.1908
16501TIP3    H170994   2.546   3.871   4.511  0.5591 -1.0992  1.5416
16501TIP3    H270995   2.633   3.835   4.392 -1.0793  0.6548 -0.2676
16502TIP3   OH270996   5.433   1.070  11.581  0.4487 -0.3398  0.2015
16502TIP3    H170997   5.450   0.986  11.539  0.1911  0.3296 -1.3219
16502TIP3    H270998   5.470   1.061  11.669  0.0088 -2.1863  0.2392
16503TIP3   OH270999   2.669   0.688   0.170  0.0232 -0.1821 -0.7158
16503TIP3    H171000   2.672   0.628   0.095 -0.8249 -1.6211  0.3462
16503TIP3    H271001   2.709   0.769   0.138 -1.1525 -0.4160 -3.0214
16504TIP3   OH271002   3.454   0.677  13.057 -0.2922  0.3851 -0.2969
16504TIP3    H171003   3.532   0.701  13.108  0.4414 -1.6833 -0.3430
16504TIP3    H271004   3.398   0.632  13.120  0.1646 -1.2760 -1.0261
16505TIP3   OH271005   0.370   5.262   0.795 -0.4574  0.2049 -0.2313
16505TIP3    H171006   0.320   5.336   0.829 -0.1846  0.2418  0.1041
16505TIP3    H271007   0.461   5.289   0.804 -0.2239 -1.0317  2.0467
16506TIP3   OH271008   5.627   3.881  13.869 -0.2484  0.2100  0.0721
16506TIP3    H171009   5.709   3.840  13.841  0.2133  1.0832  0.1114
16506TIP3    H271010   5.619   3.959  13.814 -0.3710  0.8527  0.9859
16507TIP3   OH271011   3.441   0.926   4.794 -0.2446 -0.1588  0.2359
16507TIP3    H171012   3.366   0.981   4.772  0.1876  0.5096  0.4353
16507TIP3    H271013   3.423   0.843   4.749 -0.5651  0.3557 -0.6118
16508TIP3   OH271014   6.783   6.029  12.486  0.6125 -0.3091 -0.1195
16508TIP3    H171015   6.854   6.066  12.538 -1.0662  2.8150  0.1586
16508TIP3    H271016   6.763   6.096  12.420 -3.3308 -0.0281  1.0701
16509TIP3   OH271017   1.086   0.595  16.904 -0.3923 -0.0866  0.1581
16509TIP3    H171018   1.141   0.599  16.825  0.5269 -0.4786  0.7534
16509TIP3    H271019   1.094   0.505  16.934  2.1636  0.8197  2.6392
16510TIP3   OH271020   6.185   6.215  14.472  0.1998 -0.3831 -0.9188
16510TIP3    H171021   6.274   6.250  14.465  0.0650  0.3633  0.6453
16510TIP3    H271022   6.128   6.291  14.461 -0.1088 -0.0901  1.9762
16511TIP3   OH271023   5.096   2.770   0.923  0.1873  0.2618 -0.0256
16511TIP3    H171024   5.011   2.811   0.910  0.9110  2.3397  1.3370
16511TIP3    H271025   5.121   2.739   0.836 -2.0585 -0.7203 -0.4009
16512TIP3   OH271026   6.713   5.813  13.594 -0.2020  0.2349 -0.0501
16512TIP3    H171027   6.693   5.758  13.670  0.5176 -0.5437 -0.4045
16512TIP3    H271028   6.804   5.840  13.607 -0.4393  1.0646 -0.0576
16513TIP3   OH271029   4.490   4.590   3.423  0.2726  0.1337 -0.0969
16513TIP3    H171030   4.583   4.570   3.424  0.5683  1.2257  2.8459
16513TIP3    H271031   4.447   4.507   3.444  0.6649 -0.1183 -0.2927
16514TIP3   OH271032   1.834   3.776  13.217 -0.2964  0.1515  0.1099
16514TIP3    H171033   1.810   3.773  13.309 -3.3003 -0.0460 -0.5879
16514TIP3    H271034   1.787   3.852  13.182  0.2669 -0.1576 -1.4047
16515TIP3   OH271035   2.126   6.516   4.944 -0.2386 -0.4394  0.0061
16515TIP3    H171036   2.051   6.562   4.905 -0.8184  0.0353  1.5999
16515TIP3    H271037   2.199   6.577   4.933 -0.5253 -0.0603  0.1764
16516TIP3   OH271038   6.734   0.841  13.781 -0.3442  0.3134  0.3583
16516TIP3    H171039   6.780   0.917  13.744  0.7597 -0.4213  0.1608
16516TIP3    H271040   6.644   0.850  13.750  0.0676  0.8742 -0.7256
16517TIP3   OH271041   5.926   4.745   2.956 -0.3086 -0.3158 -0.1702
16517TIP3    H171042   5.878   4.662   2.958  1.3525 -1.3055  1.4435
16517TIP3    H271043   6.011   4.723   2.916  0.6048  0.3119  1.3415
16518TIP3   OH271044   2.212   2.341   6.020  0.5606  0.0947 -0.1254
16518TIP3    H171045   2.154   2.372   6.089  0.9620 -0.4028  0.4422
16518TIP3    H271046   2.157   2.341   5.941  0.5857  2.3852 -0.2054
16519TIP3   OH271047   6.794   0.466   5.985 -0.1633 -0.1296  0.0099
16519TIP3    H171048   6.790   0.370   5.987  0.8041 -0.1788  0.5324
16519TIP3    H271049   6.787   0.492   6.077  0.7342  0.2184 -0.0079
16520TIP3   OH271050   4.321   4.202   5.783  0.2801 -0.3911  0.3333
16520TIP3    H171051   4.384   4.210   5.854  1.7034 -1.5882 -0.7188
16520TIP3    H271052   4.366   4.238   5.707 -0.0831 -1.7863 -0.5673
16521TIP3   OH271053   1.617   3.435   1.632 -0.2851  0.0456 -0.0513
16521TIP3    H171054   1.631   3.512   1.687 -0.4159 -0.1235  0.2177
16521TIP3    H271055   1.528   3.407   1.651  0.1635 -0.8998  0.7763
16522TIP3   OH271056   4.042   0.421  14.883 -0.0907  0.5147  0.1351
16522TIP3    H171057   3.999   0.407  14.798 -0.9529 -0.7049  0.7354
16522TIP3    H271058   3.971   0.450  14.941  0.4519  1.1374  0.4958
16523TIP3   OH271059   5.200   4.072   2.610 -0.4573  0.4285  0.4515
16523TIP3    H171060   5.258   4.003   2.578 -0.8535  1.0063 -1.6308
16523TIP3    H271061   5.117   4.028   2.629  0.0653 -0.0776  1.6363
16524TIP3   OH271062   4.207   1.855  12.296 -0.0599  0.2251 -0.3782
16524TIP3    H171063   4.235   1.783  12.240  1.1365  0.2171  0.1925
16524TIP3    H271064   4.248   1.836  12.381 -1.9502  0.1394  0.5669
16525TIP3   OH271065   6.097   2.356  15.156  0.2780 -0.0328 -0.4093
16525TIP3    H171066   6.145   2.381  15.236  1.0144  3.0593 -1.6673
16525TIP3    H271067   6.006   2.377  15.175  0.3167 -0.1736 -0.0635
16526TIP3   OH271068   3.462   1.283   1.814  0.0347 -0.0466  0.3878
16526TIP3    H171069   3.481   1.376   1.828  0.9213  0.3177 -2.5125
16526TIP3    H271070   3.403   1.282   1.738  1.7632 -1.8736 -1.0435
16527TIP3   OH271071   4.203   0.463  10.705  0.0813  0.4940 -0.4578
16527TIP3    H171072   4.287   0.418  10.709 -0.5311 -0.6332  0.8129
16527TIP3    H271073   4.139   0.394  10.726 -1.1310  1.3894 -1.0949
16528TIP3   OH271074   0.791   0.844   3.828  0.0686 -0.5787 -0.1244
16528TIP3    H171075   0.705   0.878   3.805 -0.0529 -1.3323 -0.8223
16528TIP3    H271076   0.782   0.815   3.919  0.0027  0.6493  0.2681
16529TIP3   OH271077   0.699   2.039  16.736  0.8082 -0.7573  0.7055
16529TIP3    H171078   0.783   2.023  16.692  0.9938 -0.0154  0.7792
16529TIP3    H271079   0.646   2.087  16.672  0.0955 -2.0128  0.3279
16530TIP3   OH271080   0.757   3.275  17.141  0.0534 -0.2820 -0.2088
16530TIP3    H171081   0.823   3.227  17.191 -0.2449 -0.5633 -0.0796
16530TIP3    H271082   0.703   3.317  17.207  0.7659  0.8682 -0.3350
16531TIP3   OH271083   5.786   5.392   2.871 -0.8666 -0.0365  0.1083
16531TIP3    H171084   5.711   5.339   2.897 -0.0548 -0.5516  1.4459
16531TIP3    H271085   5.846   5.389   2.945  0.4894  0.3814 -0.9189
16532TIP3   OH271086   1.898   6.116   4.728 -0.5870  0.1654 -0.6966
16532TIP3    H171087   1.899   6.200   4.682 -0.7573 -0.2226 -1.4275
16532TIP3    H271088   1.816   6.075   4.701 -0.2998 -0.4234 -0.6895
16533TIP3   OH271089   6.611   3.069   3.711 -0.1211  0.0596 -0.2827
16533TIP3    H171090   6.607   2.987   3.662  0.6637 -1.2727  1.7331
16533TIP3    H271091   6.614   3.137   3.645 -3.0904 -1.3505 -2.0696
16534TIP3   OH271092   5.233   6.452   4.287  0.8024  0.4189  0.0221
16534TIP3    H171093   5.172   6.378   4.291  2.3304 -0.8805  0.3520
16534TIP3    H271094   5.182   6.523   4.248 -0.9133 -0.5992  0.3127
16535TIP3   OH271095   0.068   3.954   3.814 -0.4745 -0.3875  0.3615
16535TIP3    H171096   0.079   3.916   3.901 -1.3180 -1.1740  0.1453
16535TIP3    H271097  -0.015   4.001   3.820 -1.3269 -1.7253 -0.4275
16536TIP3   OH271098   2.998   5.967  13.373 -0.0695 -0.5333  0.3112
16536TIP3    H171099   3.094   5.963  13.366 -0.0005 -0.5221  1.1347
16536TIP3    H271100   2.982   6.045  13.426 -0.5562 -0.3337 -0.1246
16537TIP3   OH271101   2.828   6.114   5.436 -0.0208 -0.2079  0.1625
16537TIP3    H171102   2.835   6.138   5.528  2.4169 -0.8163  0.2103
16537TIP3    H271103   2.742   6.144   5.409 -0.8406 -0.1391  2.6662
16538TIP3   OH271104   5.139   5.737   4.174  0.4060 -0.0975 -0.2753
16538TIP3    H171105   5.108   5.763   4.087 -0.5400 -1.8686 -0.4981
16538TIP3    H271106   5.220   5.689   4.157 -0.1411 -1.0412 -0.2484
16539TIP3   OH271107   1.412   0.738   4.621  0.2512 -0.1128 -0.1819
16539TIP3    H171108   1.418   0.790   4.701 -0.2709  0.0184 -0.2197
16539TIP3    H271109   1.397   0.803   4.551 -1.3912 -0.3488 -0.1023
16540TIP3   OH271110   5.718   2.205  16.407  0.6197 -0.0529  0.6076
16540TIP3    H171111   5.626   2.199  16.382  1.1061 -1.5216 -0.9426
16540TIP3    H271112   5.724   2.289  16.454 -2.0127 -1.1239  3.1397
16541TIP3   OH271113   6.146   1.944   6.765 -0.2506 -0.4668  0.1832
16541TIP3    H171114   6.213   1.932   6.831  0.3992  2.5593  0.2545
16541TIP3    H271115   6.188   1.918   6.683  0.4757 -0.1490  0.4450
16542TIP3   OH271116   2.380   3.515  16.284 -0.0151 -0.3668 -0.6074
16542TIP3    H171117   2.347   3.528  16.195  1.1375  0.1544 -0.9801
16542TIP3    H271118   2.473   3.495  16.272  0.4410  0.9390  0.5293
16543TIP3   OH271119   4.765   2.707  11.774 -0.9519 -0.0675 -0.0532
16543TIP3    H171120   4.682   2.695  11.730 -1.2632 -0.3440  0.5893
16543TIP3    H271121   4.743   2.752  11.856 -0.6281 -1.0883  0.6204
16544TIP3   OH271122   6.577   6.003   0.147 -0.1050  0.2564 -0.0189
16544TIP3    H171123   6.568   5.911   0.171  0.6831 -1.4449 -5.1315
16544TIP3    H271124   6.487   6.035   0.141 -0.4500 -0.5869  0.4822
16545TIP3   OH271125   6.600   1.052   4.149 -0.1316  0.0777 -0.2025
16545TIP3    H171126   6.525   1.084   4.200 -1.2015 -1.7234 -0.5528
16545TIP3    H271127   6.676   1.075   4.202 -1.1200 -0.5867  1.6215
16546TIP3   OH271128   1.021   4.856   3.680 -0.1176  0.0464  0.2739
16546TIP3    H171129   0.949   4.844   3.742 -1.0808  3.4681  0.0250
16546TIP3    H271130   1.087   4.904   3.730 -0.0346  1.0442 -0.7630
16547TIP3   OH271131   0.778   6.297   6.021  0.8261  0.0081 -0.2763
16547TIP3    H171132   0.788   6.391   6.033 -0.7849 -0.1671  3.5475
16547TIP3    H271133   0.835   6.258   6.087 -2.5646 -1.4580  2.0367
16548TIP3   OH271134   4.146   5.854  13.146  0.5823  0.2844 -0.0315
16548TIP3    H171135   4.234   5.829  13.118  0.7572  0.3646  0.4390
16548TIP3    H271136   4.146   5.950  13.142  0.6854  0.3082  0.4562
16549TIP3   OH271137   1.563   3.301   1.935  0.8427 -0.3820  0.0028
16549TIP3    H171138   1.500   3.319   1.865  1.9329  0.9496 -0.6877
16549TIP3    H271139   1.607   3.221   1.908  0.4768 -0.4940 -0.2707
16550TIP3   OH271140   1.727   2.574   5.018 -0.0796  0.2432 -0.6523
16550TIP3    H171141   1.777   2.644   4.976  0.1611  0.4212 -0.0749
16550TIP3    H271142   1.640   2.580   4.979  0.1077  0.4846 -1.0365
16551TIP3   OH271143   0.678   1.386  13.869 -0.4405  0.0826  0.1478
16551TIP3    H171144   0.741   1.352  13.806  0.4238  0.0400  0.9963
16551TIP3    H271145   0.711   1.473  13.891 -2.2436  1.2599 -1.4780
16552TIP3   OH271146   4.328   1.979   6.390  0.2707  0.3650  0.9260
16552TIP3    H171147   4.316   2.068   6.424  0.4227  1.0265 -0.6657
16552TIP3    H271148   4.280   1.979   6.307  0.6889 -0.8914  0.6728
16553TIP3   OH271149   3.227   0.301   4.531  0.3866  0.0531  0.0794
16553TIP3    H171150   3.206   0.209   4.514  1.4489 -0.4599  1.3796
16553TIP3    H271151   3.207   0.346   4.449 -1.8066 -1.0332 -0.0355
16554TIP3   OH271152   0.323   6.278  12.912  0.1144  0.1724  0.0668
16554TIP3    H171153   0.241   6.266  12.960  0.5995 -0.3670  0.7828
16554TIP3    H271154   0.304   6.346  12.848 -1.0827 -0.4189 -0.2242
16555TIP3   OH271155   6.805   0.058  11.480 -0.4662  0.1819  0.1548
16555TIP3    H171156   6.858   0.118  11.532 -0.2875  0.4610 -0.3415
16555TIP3    H271157   6.745   0.114  11.432 -2.1488 -0.2051  1.7073
16556TIP3   OH271158   0.215   3.695   1.638  0.4949  0.1903  0.2745
16556TIP3    H171159   0.146   3.729   1.695  1.5425 -1.0053  2.3779
16556TIP3    H271160   0.291   3.686   1.695  1.8066 -0.5377 -1.4763
16557TIP3   OH271161   1.678   2.692  15.547  0.1561  0.4198 -0.7570
16557TIP3    H171162   1.755   2.644  15.516  0.8424  1.1519 -0.2328
16557TIP3    H271163   1.604   2.646  15.508  0.8813 -0.0216 -1.6584
16558TIP3   OH271164   4.288   3.005  14.541  0.3162  0.4241  0.2194
16558TIP3    H171165   4.277   3.030  14.449 -0.5061 -0.5670  0.0242
16558TIP3    H271166   4.210   3.039  14.585 -0.1012 -0.5166  0.2251
16559TIP3   OH271167   1.497   2.768  12.100 -0.2121  0.2309  0.7974
16559TIP3    H171168   1.572   2.822  12.074 -0.3491  0.3567  0.6554
16559TIP3    H271169   1.442   2.766  12.022 -0.3121  0.0655  0.8729
16560TIP3   OH271170   3.513   2.952   2.337 -0.3308 -0.0427 -0.0563
16560TIP3    H171171   3.493   2.899   2.414  0.4475 -1.5812 -0.8637
16560TIP3    H271172   3.600   2.922   2.310 -0.7412  0.2012 -1.7507
16561TIP3   OH271173   5.738   4.314   4.455 -0.1144  0.4751  0.5821
16561TIP3    H171174   5.719   4.221   4.461 -1.9228  0.8789  2.3240
16561TIP3    H271175   5.822   4.319   4.410 -0.6078 -1.9006 -0.7635
16562TIP3   OH271176   4.428   2.911  12.316  0.1678  0.2235 -0.0305
16562TIP3    H171177   4.422   2.991  12.368 -1.4201 -0.7884  1.4293
16562TIP3    H271178   4.432   2.942  12.225 -1.8062  1.9717  0.4082
16563TIP3   OH271179   4.121   0.055   2.535 -0.4108 -0.2174  0.5011
16563TIP3    H171180   4.089   0.128   2.588  0.2708  1.0941 -0.8008
16563TIP3    H271181   4.096  -0.024   2.584 -1.9749  0.8474  1.5079
16564TIP3   OH271182   4.920   5.064  12.871 -0.3605  0.1120 -0.2141
16564TIP3    H171183   4.825   5.061  12.860 -0.3448 -1.2772 -0.0614
16564TIP3    H271184   4.941   4.987  12.924  0.8400  0.4764 -0.1352
16565TIP3   OH271185   3.203   5.094   2.740  0.3823  0.4234  0.1491
16565TIP3    H171186   3.142   5.126   2.806 -0.7138 -1.5751  0.1636
16565TIP3    H271187   3.164   5.118   2.656  1.2264  1.9758  0.1571
16566TIP3   OH271188   4.818   2.867  15.327  0.2762  0.0580  0.0360
16566TIP3    H171189   4.875   2.885  15.401  1.7267  0.1680 -1.0537
16566TIP3    H271190   4.769   2.948  15.314 -1.2569 -0.4990  1.8726
16567TIP3   OH271191   5.108   6.592  11.704  0.2983 -0.6219 -0.3511
16567TIP3    H171192   5.075   6.612  11.791  0.1212 -0.1269 -0.5326
16567TIP3    H271193   5.188   6.542  11.719 -1.2969 -3.2522  0.1188
16568TIP3   OH271194   0.539   4.558  16.928 -0.6717 -0.1761 -0.0839
16568TIP3    H171195   0.470   4.622  16.946 -0.7907 -0.3814  0.1923
16568TIP3    H271196   0.521   4.485  16.987 -0.3507 -0.3303 -0.1711
16569TIP3   OH271197   0.648   0.687  14.444 -0.2260  0.4133 -0.0382
16569TIP3    H171198   0.737   0.713  14.420 -0.6700  0.8405 -1.2890
16569TIP3    H271199   0.660   0.625  14.516  0.9213  3.2348  2.4038
16570TIP3   OH271200   4.914   3.561   3.473  0.1622  0.1399  0.5720
16570TIP3    H171201   4.917   3.583   3.380 -0.2925 -1.9063  0.0080
16570TIP3    H271202   4.884   3.469   3.474  1.0664 -0.1757  2.6794
16571TIP3   OH271203   4.852   0.086   0.351  0.4204 -0.2345 -0.2650
16571TIP3    H171204   4.878  -0.006   0.352 -0.8533 -0.6091 -0.0118
16571TIP3    H271205   4.812   0.098   0.265  1.9494  0.5002 -0.9007
16572TIP3   OH271206   1.428   0.888  12.621 -0.0050  0.5905 -0.5905
16572TIP3    H171207   1.444   0.865  12.530  0.6931  0.4916 -0.4453
16572TIP3    H271208   1.428   0.984  12.622  0.9282  0.5940 -0.5358
16573TIP3   OH271209   6.244   2.112  11.504  0.2162  0.4365 -0.2292
16573TIP3    H171210   6.177   2.070  11.558 -1.3185  0.0235 -2.3283
16573TIP3    H271211   6.327   2.085  11.544 -0.8064 -0.0053  1.7456
16574TIP3   OH271212   3.570   2.744  12.384 -0.0364 -0.2332  0.0612
16574TIP3    H171213   3.565   2.803  12.309  0.0269 -0.5479 -0.1946
16574TIP3    H271214   3.490   2.692  12.380 -0.0590 -0.2150  0.2450
16575TIP3   OH271215   0.578   1.037   3.799 -0.0635 -0.4654  0.1576
16575TIP3    H171216   0.503   1.060   3.854 -0.7633 -0.9814 -0.5628
16575TIP3    H271217   0.634   1.115   3.800 -0.5128 -0.1537  0.8641
16576TIP3   OH271218   5.294   5.888  10.538 -0.3165 -0.1253  0.3449
16576TIP3    H171219   5.306   5.897  10.632 -0.0903  0.9709  0.2292
16576TIP3    H271220   5.235   5.961  10.514 -0.1833 -0.2485 -0.3886
16577TIP3   OH271221   0.874   3.210   3.017 -0.2739 -0.3387 -0.4477
16577TIP3    H171222   0.891   3.272   3.088  1.1438  0.0918 -1.1235
16577TIP3    H271223   0.825   3.261   2.952 -0.9588 -0.5356 -0.0924
16578TIP3   OH271224   2.775   5.359   4.741  0.0792  0.1667  0.1556
16578TIP3    H171225   2.721   5.391   4.669  1.1666  0.9258 -0.3696
16578TIP3    H271226   2.804   5.272   4.714  0.2702  0.3442 -0.2159
16579TIP3   OH271227   5.375   2.133  16.857 -0.5051  0.7053 -0.1317
16579TIP3    H171228   5.416   2.189  16.922 -2.0990  1.6303  0.1419
16579TIP3    H271229   5.292   2.106  16.897 -0.7695 -0.0314 -1.1371
16580TIP3   OH271230   4.350   6.782  12.409  0.2866  0.0880  0.4471
16580TIP3    H171231   4.390   6.704  12.446  0.9794 -0.5663 -1.5277
16580TIP3    H271232   4.333   6.838  12.484  0.6470 -1.5509  1.8279
16581TIP3   OH271233   6.341   2.867   5.589 -0.8878 -0.2595 -0.6282
16581TIP3    H171234   6.309   2.958   5.589 -1.7539 -0.5330 -2.0783
16581TIP3    H271235   6.433   2.874   5.564 -1.2320  0.1842 -1.8961
16582TIP3   OH271236   0.718   0.553  17.240  0.0579 -0.3107  0.0629
16582TIP3    H171237   0.754   0.607  17.310 -1.8317 -1.2069  1.8347
16582TIP3    H271238   0.661   0.612  17.190 -0.6303 -0.2629  0.9011
16583TIP3   OH271239   3.791   5.396   5.785  0.1474 -0.2243  0.3826
16583TIP3    H171240   3.822   5.387   5.875 -0.2592 -1.3666  0.4234
16583TIP3    H271241   3.696   5.398   5.793  0.1362  1.0569  0.0801
16584TIP3   OH271242   0.328   1.134  11.468  0.8693  0.2428 -0.3250
16584TIP3    H171243   0.389   1.208  11.471  1.0460  0.0692  1.1775
16584TIP3    H271244   0.382   1.058  11.492  0.6223 -0.3464 -1.5642
16585TIP3   OH271245   2.878   6.568   4.950 -0.7342 -0.4769  0.3012
16585TIP3    H171246   2.876   6.647   4.896  0.9523 -0.0992  0.7410
16585TIP3    H271247   2.846   6.596   5.035 -0.9999 -0.4910  0.2076
16586TIP3   OH271248   1.992   2.040  11.387 -0.6290  0.1064  0.0026
16586TIP3    H171249   1.992   1.954  11.428 -1.3099 -0.0938 -0.4052
16586TIP3    H271250   2.036   2.097  11.450  0.2967 -0.6344  0.0606
16587TIP3   OH271251   5.650   4.127   1.075  0.0784 -0.0407  0.3643
16587TIP3    H171252   5.561   4.117   1.043 -0.0310  1.2168  0.2030
16587TIP3    H271253   5.661   4.057   1.139 -0.8416 -0.5219  0.0159
16588TIP3   OH271254   3.521   6.342   2.593  0.2447 -0.0682  0.1804
16588TIP3    H171255   3.575   6.416   2.620  0.3605  0.1824 -0.7185
16588TIP3    H271256   3.432   6.377   2.587  0.5459  0.4919 -1.9631
16589TIP3   OH271257   5.025   1.903   0.633  0.2056 -0.0373  0.4276
16589TIP3    H171258   5.107   1.858   0.652  0.1379 -0.7094 -0.8255
16589TIP3    H271259   4.995   1.867   0.550 -2.3043 -1.1559  1.7016
16590TIP3   OH271260   1.258   1.069  15.560 -0.0743 -0.2739 -0.6971
16590TIP3    H171261   1.257   1.116  15.476 -0.3231 -0.1175 -0.6094
16590TIP3    H271262   1.351   1.057  15.580  0.0218  1.0394 -0.2518
16591TIP3   OH271263   3.664   6.756  13.411 -0.1229  0.4160 -0.2770
16591TIP3    H171264   3.597   6.698  13.374  1.4479 -0.1059 -2.4918
16591TIP3    H271265   3.647   6.841  13.370  0.4880  0.2974 -0.7970
16592TIP3   OH271266   1.214   6.277  12.046 -0.0911 -0.0438 -0.0696
16592TIP3    H171267   1.132   6.256  12.090  0.6625 -1.5519  0.7127
16592TIP3    H271268   1.193   6.274  11.952 -0.8859 -0.6435  0.1209
16593TIP3   OH271269   4.176   6.401   2.457 -0.1400 -0.0881  0.4020
16593TIP3    H171270   4.082   6.399   2.439 -0.3082 -0.0715  1.2652
16593TIP3    H271271   4.197   6.494   2.462  0.1811 -0.0589 -1.0600
16594TIP3   OH271272   0.678   5.026  12.668 -0.1050  0.2454 -0.4899
16594TIP3    H171273   0.672   5.085  12.743  1.3418  0.7434 -0.7292
16594TIP3    H271274   0.598   5.041  12.618 -0.4749  0.8530  0.2657
16595TIP3   OH271275   4.906   2.113   2.546 -0.4305 -0.4932 -0.0210
16595TIP3    H171276   4.868   2.196   2.576  0.4908 -0.2348  0.4764
16595TIP3    H271277   4.966   2.138   2.475 -1.2381 -0.9052 -0.8657
16596TIP3   OH271278   4.505   6.226  13.360  0.3577  0.9089  0.7539
16596TIP3    H171279   4.428   6.214  13.305  1.0077  0.0309  0.0084
16596TIP3    H271280   4.568   6.270  13.303  0.6084  1.1017  1.1798
16597TIP3   OH271281   5.264   2.830  12.600 -0.5208  0.5498  0.3417
16597TIP3    H171282   5.193   2.766  12.605  0.0686 -0.1535 -0.0998
16597TIP3    H271283   5.248   2.876  12.517  0.2140 -0.4460 -0.3764
16598TIP3   OH271284   3.697   3.360  13.593 -0.1571 -0.1839  0.4995
16598TIP3    H171285   3.789   3.334  13.589  0.3829  1.6423  0.1170
16598TIP3    H271286   3.666   3.352  13.504  0.1684  0.9088  0.2678
16599TIP3   OH271287   3.156   1.927   3.203  0.1247  0.1273  0.0763
16599TIP3    H171288   3.089   1.874   3.161  3.1709 -4.0109 -0.2381
16599TIP3    H271289   3.154   1.901   3.295  0.5088  0.8910  0.3114
16600TIP3   OH271290   0.597   3.292  13.265 -0.1254 -0.2030  0.0945
16600TIP3    H171291   0.621   3.208  13.226  0.5227 -1.3572  2.7621
16600TIP3    H271292   0.677   3.325  13.304 -0.4019  1.6623 -0.7583
16601TIP3   OH271293   5.498   4.800  15.157 -0.0682 -0.0442 -0.0514
16601TIP3    H171294   5.492   4.852  15.237 -0.5438 -1.7698  1.1011
16601TIP3    H271295   5.539   4.858  15.093  0.9808  1.1629  1.6438
16602TIP3   OH271296   2.650   4.946  11.581 -0.0784  0.2011 -0.0758
16602TIP3    H171297   2.661   4.912  11.492 -1.5170  3.0931 -1.4892
16602TIP3    H271298   2.559   4.975  11.584  0.5713  2.2721  1.5501
16603TIP3   OH271299   2.257   4.153  11.854 -0.5424 -0.0564 -0.2702
16603TIP3    H171300   2.286   4.231  11.901 -0.9187  0.4124 -0.8036
16603TIP3    H271301   2.165   4.144  11.879 -0.2971 -0.7998  0.4167
16604TIP3   OH271302   2.977   4.206  11.699 -0.0155  0.1538 -0.4008
16604TIP3    H171303   2.941   4.282  11.744 -1.4516 -0.6150 -0.2008
16604TIP3    H271304   3.072   4.220  11.700  0.0919  0.0658  3.0932
16605TIP3   OH271305   1.424   3.446   2.342  0.2283 -0.1909  0.2486
16605TIP3    H171306   1.403   3.445   2.248 -0.9013 -1.3735  0.4801
16605TIP3    H271307   1.480   3.369   2.355  0.5416  0.0813  0.5019
16606TIP3   OH271308   3.374   0.114   4.917  0.4049 -0.1590  0.1837
16606TIP3    H171309   3.453   0.061   4.927  0.5745  0.3443  1.6328
16606TIP3    H271310   3.406   0.202   4.898  0.1558 -0.1404 -0.1738
16607TIP3   OH271311   4.068   2.220   6.447  0.2198  0.7055  0.0041
16607TIP3    H171312   4.114   2.167   6.512  0.7370  1.2776  0.1082
16607TIP3    H271313   4.021   2.155   6.393  1.4519  0.0722 -0.3470
16608TIP3   OH271314   0.782   2.895  14.287 -0.0888 -0.3030  0.3427
16608TIP3    H171315   0.716   2.889  14.217  0.8283 -2.8817 -0.4070
16608TIP3    H271316   0.738   2.863  14.365 -0.4863  0.5765  0.4953
16609TIP3   OH271317   2.757   1.224  16.455  0.0843 -0.3442 -0.1923
16609TIP3    H171318   2.755   1.166  16.379 -1.0685 -0.9355  0.2800
16609TIP3    H271319   2.759   1.312  16.418 -1.7841 -0.5838 -0.9327
16610TIP3   OH271320   4.996   6.659   3.360 -0.3832 -0.1216 -0.0285
16610TIP3    H171321   4.991   6.576   3.407 -2.0651  1.0082  1.9806
16610TIP3    H271322   5.078   6.699   3.388 -1.1855  0.3598  1.7562
16611TIP3   OH271323   6.773   4.611   4.276  0.7186 -0.2731  0.3190
16611TIP3    H171324   6.768   4.672   4.202 -0.6996 -0.4702  0.2365
16611TIP3    H271325   6.836   4.545   4.247  1.0382  0.2617 -0.2495
16612TIP3   OH271326   1.671   3.096   3.012 -0.3749 -0.5596  0.3577
16612TIP3    H171327   1.741   3.162   3.013  0.7502 -1.7218  0.9708
16612TIP3    H271328   1.647   3.088   2.920 -0.4003  0.5615  0.2505
16613TIP3   OH271329   3.037   4.947   1.097  0.6510 -0.1297  0.1903
16613TIP3    H171330   2.964   4.967   1.039  0.8405  1.6706  0.5252
16613TIP3    H271331   3.114   4.953   1.042  0.7288  0.2784  0.3433
16614TIP3   OH271332   0.777   1.417   5.845  0.3083 -0.1515  0.2933
16614TIP3    H171333   0.687   1.449   5.849  0.2087 -0.3621 -0.1487
16614TIP3    H271334   0.826   1.489   5.805  0.2195 -0.2683 -0.0307
16615TIP3   OH271335   5.634   1.229  15.435 -0.3700  0.1883  0.2422
16615TIP3    H171336   5.547   1.240  15.473 -0.9034 -0.5193 -0.7411
16615TIP3    H271337   5.675   1.315  15.443 -1.4399  0.7359  0.0126
16616TIP3   OH271338   2.794   3.503   0.716  0.2484 -0.1312 -0.0428
16616TIP3    H171339   2.734   3.527   0.646  1.3309  0.4467 -0.8188
16616TIP3    H271340   2.798   3.408   0.714 -2.0583 -0.3407  1.2917
16617TIP3   OH271341   0.310   0.085   5.621  0.1025 -0.1797  0.3967
16617TIP3    H171342   0.268   0.140   5.687  1.4990  1.5413 -0.0593
16617TIP3    H271343   0.254   0.008   5.615 -0.8630  0.2689  2.5103
16618TIP3   OH271344   5.826   4.954  12.776  0.4032  0.0466  0.0834
16618TIP3    H171345   5.750   4.998  12.737 -0.1488 -0.1839  0.8746
16618TIP3    H271346   5.867   5.022  12.830  0.4565  0.0301  0.0626
16619TIP3   OH271347   2.089   4.623  12.828  0.2476 -0.1313 -0.0183
16619TIP3    H171348   2.030   4.548  12.835  1.3802 -0.9194  2.2390
16619TIP3    H271349   2.066   4.664  12.745 -0.8017 -2.6431 -1.0859
16620TIP3   OH271350   4.779   2.606  13.307  0.8184 -0.3602  0.2240
16620TIP3    H171351   4.830   2.663  13.249  1.7735  0.2521  1.6076
16620TIP3    H271352   4.761   2.528  13.254 -0.0283  0.9473 -1.5279
16621TIP3   OH271353   6.423   2.263   1.263  0.2015 -0.0766 -0.0491
16621TIP3    H171354   6.433   2.198   1.193 -0.8917 -0.4736  0.1416
16621TIP3    H271355   6.377   2.217   1.333  0.8267  0.4622  0.7389
16622TIP3   OH271356   2.925   0.871   4.336  0.6436 -0.0295  0.4438
16622TIP3    H171357   2.903   0.789   4.379  1.7856 -0.0572  1.0117
16622TIP3    H271358   2.845   0.897   4.290  0.2904 -1.4811  0.2043
16623TIP3   OH271359   4.715   2.520   2.207 -0.6330  0.4131 -0.1341
16623TIP3    H171360   4.773   2.447   2.185 -1.4794 -0.0134 -1.0561
16623TIP3    H271361   4.768   2.598   2.190 -0.5525  0.0484 -1.7738
16624TIP3   OH271362   4.698   2.832   0.307  0.3456 -0.2540 -0.1658
16624TIP3    H171363   4.755   2.884   0.249 -0.0088  0.4418  0.1000
16624TIP3    H271364   4.610   2.846   0.273 -0.3374  2.8491  2.3938
16625TIP3   OH271365   5.775   2.045  16.865 -0.0199  0.4493 -0.6168
16625TIP3    H171366   5.703   2.108  16.858  1.5959  2.6869  1.0580
16625TIP3    H271367   5.840   2.076  16.802 -0.0315 -0.8796 -1.3153
16626TIP3   OH271368   5.126   1.801   3.271  0.0246  0.1349 -0.2288
16626TIP3    H171369   5.186   1.844   3.332  0.4433 -0.3658 -0.2813
16626TIP3    H271370   5.159   1.824   3.184 -1.7420  2.5520 -0.3692
16627TIP3   OH271371   3.355   4.442   3.363  0.1258  0.5015 -0.0344
16627TIP3    H171372   3.431   4.410   3.314 -1.1367  0.3931 -2.0609
16627TIP3    H271373   3.319   4.364   3.404 -0.6691 -0.0499 -1.6967
16628TIP3   OH271374   0.421   0.407   6.531  0.0552 -0.2084  0.3965
16628TIP3    H171375   0.502   0.427   6.578 -0.2837 -0.1050  0.9527
16628TIP3    H271376   0.361   0.477   6.556 -0.1476 -0.1875 -0.1530
16629TIP3   OH271377   2.346   4.024   0.702  0.3272 -0.1094 -0.2581
16629TIP3    H171378   2.403   4.035   0.778  2.2750 -1.4264 -1.4278
16629TIP3    H271379   2.359   3.933   0.675 -1.1006  0.0229 -1.5772
16630TIP3   OH271380   3.819   6.604  13.765 -0.3836  0.4969 -0.8752
16630TIP3    H171381   3.895   6.662  13.763  1.0543 -1.2340  0.3471
16630TIP3    H271382   3.754   6.651  13.817  1.3173  0.4410  1.4371
16631TIP3   OH271383   2.973   5.373  11.465  0.3918  0.3324  0.4415
16631TIP3    H171384   3.041   5.390  11.531  0.0276  0.0736  0.8919
16631TIP3    H271385   2.901   5.430  11.491  0.1542  0.0459  0.4088
16632TIP3   OH271386   0.756   3.146   2.133 -0.1616  0.1126 -0.2391
16632TIP3    H171387   0.667   3.119   2.158 -0.6407  1.4789 -0.3747
16632TIP3    H271388   0.779   3.214   2.197  0.1992  0.7933 -1.0645
16633TIP3   OH271389   3.776   2.395  15.259 -0.2262 -0.3331 -0.4303
16633TIP3    H171390   3.716   2.374  15.330 -1.6976  2.8475 -0.5546
16633TIP3    H271391   3.810   2.482  15.281 -2.2440  1.7594 -4.3829
16634TIP3   OH271392   6.296   3.020   5.318 -0.0314 -0.3665  0.3516
16634TIP3    H171393   6.283   2.938   5.270 -1.0440 -1.3336  2.1921
16634TIP3    H271394   6.387   3.044   5.298  0.1310 -1.6529 -0.6463
16635TIP3   OH271395   2.016   3.351  12.785 -0.5380  0.0174 -0.3957
16635TIP3    H171396   1.997   3.391  12.870  1.0541 -2.4272  1.2290
16635TIP3    H271397   1.932   3.355  12.738 -1.2711  2.1054  0.9356
16636TIP3   OH271398   1.115   4.441  11.527  0.1751  0.2555  0.5225
16636TIP3    H171399   1.033   4.485  11.548  0.6194  2.5118 -1.9267
16636TIP3    H271400   1.169   4.453  11.605 -1.2530  0.0578  1.5922
16637TIP3   OH271401   2.279   1.763   3.607  0.5783  0.4139  0.0637
16637TIP3    H171402   2.186   1.779   3.591  0.3534  0.1367  1.0059
16637TIP3    H271403   2.316   1.748   3.520 -0.0951  1.3275 -0.4042
16638TIP3   OH271404   6.089   0.807   0.863  0.1186 -0.0175 -0.2655
16638TIP3    H171405   6.151   0.775   0.928  0.1172 -1.9543 -1.1525
16638TIP3    H271406   6.141   0.860   0.804  0.4588  0.3095  0.3200
16639TIP3   OH271407   5.727   5.255  15.216  0.2023  0.3034  0.5269
16639TIP3    H171408   5.752   5.248  15.308 -2.3720 -1.0420  1.2350
16639TIP3    H271409   5.749   5.170  15.178 -3.6007 -1.3016  1.4068
16640TIP3   OH271410   0.665   1.179  15.431 -0.3633 -0.2754 -0.3401
16640TIP3    H171411   0.701   1.096  15.464 -1.0041 -1.8738 -3.2651
16640TIP3    H271412   0.578   1.184  15.471 -0.1277 -0.7634  0.2572
16641TIP3   OH271413   1.528   1.139  16.559  0.0694 -0.3019  0.4353
16641TIP3    H171414   1.584   1.173  16.489 -0.8856 -1.6033 -1.0200
16641TIP3    H271415   1.584   1.078  16.607 -0.0290 -1.5589 -0.9807
16642TIP3   OH271416   5.196   3.592   2.486 -0.3308 -0.0066  0.0974
16642TIP3    H171417   5.262   3.622   2.423 -0.2715  3.6140  1.6581
16642TIP3    H271418   5.117   3.579   2.434  0.6943 -1.0819 -1.2675
16643TIP3   OH271419   2.099   4.865  15.274  0.1847 -0.1944  0.1241
16643TIP3    H171420   2.159   4.906  15.211 -0.0888 -1.4402 -0.9899
16643TIP3    H271421   2.012   4.881  15.238  0.1203 -4.3212 -2.1586
16644TIP3   OH271422   0.796   5.633   5.549  0.4514 -0.2273  0.4243
16644TIP3    H171423   0.784   5.590   5.633 -1.3138  0.4574  0.5714
16644TIP3    H271424   0.890   5.654   5.545  0.4734  0.2121  2.4484
16645TIP3   OH271425   1.196   3.770   0.808 -0.2958  0.4629 -0.2697
16645TIP3    H171426   1.168   3.789   0.718 -0.9346  0.2503 -0.1151
16645TIP3    H271427   1.140   3.824   0.863 -2.4566 -2.0429  0.2086
16646TIP3   OH271428   0.627   0.482  16.045 -0.0619  0.2290 -0.4997
16646TIP3    H171429   0.667   0.558  16.087 -2.1693 -0.7630  3.9076
16646TIP3    H271430   0.560   0.520  15.987  0.4753  1.7391 -0.1938
16647TIP3   OH271431   3.081   2.110   0.761  0.0554  0.0231  0.3701
16647TIP3    H171432   3.103   2.032   0.711 -3.1251  0.4513 -1.9889
16647TIP3    H271433   3.020   2.080   0.828 -1.6273  0.4519 -0.9008
16648TIP3   OH271434   5.001   2.626   1.489 -0.6401  0.1626 -0.7355
16648TIP3    H171435   5.054   2.637   1.410  0.1751 -1.4762 -0.4709
16648TIP3    H271436   4.947   2.705   1.493  1.1929  1.5549 -1.4713
16649TIP3   OH271437   1.691   4.075  14.050 -0.3658 -0.1826  0.2128
16649TIP3    H171438   1.624   4.018  14.087 -1.9513  1.9045  0.7955
16649TIP3    H271439   1.742   4.105  14.125 -1.1403  1.0514  0.2810
16650TIP3   OH271440   4.642   2.864  14.883  0.2849  0.1008 -0.1973
16650TIP3    H171441   4.708   2.876  14.951 -1.3483  0.3488  1.4262
16650TIP3    H271442   4.658   2.935  14.821  1.6237  0.0544  0.0595
16651TIP3   OH271443   2.044   3.797   2.763 -0.3216 -0.4463 -0.5171
16651TIP3    H171444   2.103   3.725   2.742 -0.3022 -0.6588  0.2216
16651TIP3    H271445   1.959   3.755   2.780 -0.1023 -0.4118  0.7932
16652TIP3   OH271446   5.098   6.048   1.629  0.7990  0.0414 -0.1841
16652TIP3    H171447   5.066   6.046   1.539  0.0063 -0.5643  0.1020
16652TIP3    H271448   5.019   6.047   1.683  1.2745 -0.6030  0.5265
16653TIP3   OH271449   4.135   5.617   1.054  0.2524 -0.7013  0.1985
16653TIP3    H171450   4.094   5.632   0.969 -0.0186  1.3049  0.6291
16653TIP3    H271451   4.104   5.530   1.081 -1.5493 -0.3727 -0.6966
16654TIP3   OH271452   3.338   3.633  14.906  0.5063 -0.4721  0.4467
16654TIP3    H171453   3.376   3.721  14.903 -0.7719  0.0769 -0.2533
16654TIP3    H271454   3.329   3.607  14.815 -0.3179 -0.7912  0.6100
16655TIP3   OH271455   4.564   2.370  14.717  0.1778  0.1878  0.0646
16655TIP3    H171456   4.615   2.357  14.798 -0.0327 -0.5449  0.0820
16655TIP3    H271457   4.537   2.462  14.721  0.7872  0.3586  0.4668
16656TIP3   OH271458   1.493   3.974  14.230  0.1590 -0.1202  0.1504
16656TIP3    H171459   1.551   3.899  14.237 -1.4025 -1.2262  2.6701
16656TIP3    H271460   1.484   4.007  14.319 -1.0741  1.6025 -0.5420
16657TIP3   OH271461   1.699   6.487  12.688  0.2077 -0.2257 -0.4007
16657TIP3    H171462   1.636   6.432  12.641  0.9299  0.7022 -2.5683
16657TIP3    H271463   1.665   6.576  12.678  0.5766  0.0414  0.5822
16658TIP3   OH271464   2.120   2.960   2.378 -0.2069  0.2502 -0.1674
16658TIP3    H171465   2.199   3.007   2.351 -0.6292  0.3703 -1.2564
16658TIP3    H271466   2.112   2.980   2.472 -0.6025  2.7614 -0.6482
16659TIP3   OH271467   0.347   1.915   3.137 -0.1744 -0.6752 -0.4762
16659TIP3    H171468   0.436   1.889   3.161 -0.2558 -1.1892 -0.7276
16659TIP3    H271469   0.350   2.011   3.134  0.9677 -0.7161 -2.7075
16660TIP3   OH271470   5.442   0.420   6.011 -0.0172  0.5969  0.3984
16660TIP3    H171471   5.382   0.479   6.057 -2.3665 -3.0702  2.6334
16660TIP3    H271472   5.510   0.400   6.076  0.2423  0.1908  0.0076
16661TIP3   OH271473   4.384   1.391  16.048  0.0686 -0.1716 -0.8269
16661TIP3    H171474   4.314   1.358  15.992  0.0614 -0.1956 -0.8035
16661TIP3    H271475   4.459   1.335  16.028  0.4543  0.6401 -1.7761
16662TIP3   OH271476   6.306   4.316  12.308 -0.7612  0.1635 -0.5626
16662TIP3    H171477   6.272   4.227  12.305 -1.0992  0.2852 -0.3792
16662TIP3    H271478   6.301   4.347  12.218 -2.3189  0.6142 -0.3531
16663TIP3   OH271479   0.627   3.187  14.557 -0.6377 -0.1455 -0.6047
16663TIP3    H171480   0.711   3.172  14.513 -1.1548  0.3385 -1.8274
16663TIP3    H271481   0.640   3.266  14.609 -0.6124  0.5473 -1.6298
16664TIP3   OH271482   5.502   4.316  16.903 -0.1368  0.1978  0.1456
16664TIP3    H171483   5.517   4.279  16.816 -1.0615  0.4095 -0.1122
16664TIP3    H271484   5.412   4.291  16.925  0.4249 -0.7382  1.4901
16665TIP3   OH271485   5.230   1.946  12.967 -0.2148  0.0953 -0.3283
16665TIP3    H171486   5.318   1.908  12.977 -0.2957  0.1280  0.5736
16665TIP3    H271487   5.208   1.980  13.054 -0.2919  1.9320 -1.0267
16666TIP3   OH271488   6.728   1.044  14.383 -0.3126  0.5019 -0.2093
16666TIP3    H171489   6.729   1.140  14.376  0.5653  0.4740 -0.7214
16666TIP3    H271490   6.786   1.025  14.457  0.1477  0.3485 -0.6009
16667TIP3   OH271491   2.627   0.730   1.281 -0.4779 -0.3815 -0.6664
16667TIP3    H171492   2.712   0.728   1.324  0.3796  2.3312 -2.0065
16667TIP3    H271493   2.563   0.727   1.352  0.6648 -2.4730  0.3512
16668TIP3   OH271494   1.695   4.050  11.929  0.2667  0.2493 -0.3037
16668TIP3    H171495   1.613   4.053  11.879  0.1930  2.2460 -0.1338
16668TIP3    H271496   1.672   4.003  12.009 -0.4383 -0.1388 -0.7229
16669TIP3   OH271497   1.702   4.948   0.914 -0.0824 -0.5498 -0.6075
16669TIP3    H171498   1.678   5.018   0.974  0.3867 -2.1859  1.6136
16669TIP3    H271499   1.757   4.991   0.848  0.3387  1.1524  0.7696
16670TIP3   OH271500   5.600   2.162  16.027 -0.6213  0.0229  0.3680
16670TIP3    H171501   5.694   2.151  16.008 -0.1231  0.7362  2.1921
16670TIP3    H271502   5.575   2.079  16.069 -1.2083 -0.7463 -1.4188
16671TIP3   OH271503   5.514   1.679  13.975  0.3980 -0.3875 -0.1860
16671TIP3    H171504   5.468   1.763  13.981 -0.4092 -0.6931 -1.4634
16671TIP3    H271505   5.607   1.701  13.980  0.1989  0.6088 -0.6621
16672TIP3   OH271506   0.466   1.654  16.435 -0.8349 -0.5591 -0.2363
16672TIP3    H171507   0.489   1.712  16.508  1.2296 -1.4614 -0.1145
16672TIP3    H271508   0.415   1.584  16.474  1.5632 -1.8773  0.7065
16673TIP3   OH271509   1.955   1.861   0.109  0.2141  0.0315 -0.1568
16673TIP3    H171510   1.977   1.953   0.123 -2.7014  0.9894 -0.9796
16673TIP3    H271511   2.023   1.828   0.051  1.8509  1.3640  0.9122
16674TIP3   OH271512   1.268   1.986  15.591 -0.6868 -0.0349  0.3818
16674TIP3    H171513   1.233   2.024  15.672 -0.9557 -0.1199  0.3073
16674TIP3    H271514   1.342   1.932  15.620  0.9411  2.0512  0.3004
16675TIP3   OH271515   5.800   4.697  11.324 -0.4516 -0.0183 -0.1685
16675TIP3    H171516   5.831   4.774  11.277  0.2212  0.5685  1.1930
16675TIP3    H271517   5.783   4.633  11.255  1.5510  0.4272 -1.1585
16676TIP3   OH271518   3.705   4.079  17.228 -0.2572  0.0546  0.3522
16676TIP3    H171519   3.720   3.989  17.200  0.4521 -0.0153  0.9212
16676TIP3    H271520   3.791   4.108  17.260 -0.0502  1.4829 -1.3544
16677TIP3   OH271521   6.093   3.236   2.717  0.1459 -0.0919 -0.6395
16677TIP3    H171522   6.187   3.236   2.698 -0.1704 -1.2930 -2.4632
16677TIP3    H271523   6.060   3.156   2.675 -1.7363  0.4388 -0.2702
16678TIP3   OH271524   1.159   5.376  15.536  0.5571 -0.1196 -0.4079
16678TIP3    H171525   1.169   5.283  15.559 -1.6162  0.2232  2.6184
16678TIP3    H271526   1.067   5.384  15.509  0.2988  1.2990  0.7286
16679TIP3   OH271527   2.254   3.317  13.882  0.6136 -0.1982  0.2742
16679TIP3    H171528   2.257   3.221  13.889 -0.4788 -0.2465  0.2218
16679TIP3    H271529   2.164   3.337  13.856  1.0008  0.8120 -0.3519
16680TIP3   OH271530   4.342   3.766   0.428  0.4943  0.2967 -0.0467
16680TIP3    H171531   4.267   3.729   0.382  0.5384 -0.0656  0.1661
16680TIP3    H271532   4.415   3.755   0.367  0.4249  0.4208 -0.1530
16681TIP3   OH271533   4.147   2.580   6.545 -0.2537  0.2672 -0.7455
16681TIP3    H171534   4.128   2.640   6.472 -0.9522  1.1320  0.1158
16681TIP3    H271535   4.080   2.600   6.610  1.1129  0.4183  0.6743
16682TIP3   OH271536   1.175   6.065   4.442 -0.2173  0.3582  0.4536
16682TIP3    H171537   1.151   6.153   4.413  1.3760  1.2332  1.6132
16682TIP3    H271538   1.166   6.067   4.537  0.8152 -0.3899  0.5861
16683TIP3   OH271539   0.809   2.768   4.966 -0.2015 -0.0938  0.6153
16683TIP3    H171540   0.876   2.710   5.003 -0.8254 -1.9187 -0.9385
16683TIP3    H271541   0.756   2.794   5.042  2.3496  1.6891  1.9497
16684TIP3   OH271542   6.191   4.533  16.915 -0.4627 -0.0565 -0.1251
16684TIP3    H171543   6.103   4.504  16.890 -0.7027 -1.2599  1.8812
16684TIP3    H271544   6.244   4.453  16.914  0.0585  0.2572  0.8306
16685TIP3   OH271545   0.302   1.596   5.309 -0.2765 -0.5777  0.4760
16685TIP3    H171546   0.278   1.530   5.374 -0.6085  0.4845  1.4694
16685TIP3    H271547   0.218   1.622   5.270 -0.1814 -0.5487  0.2919
16686TIP3   OH271548   0.709   5.773  14.230  0.6011 -0.0814 -0.0601
16686TIP3    H171549   0.787   5.719  14.238  1.3538  1.0681  0.6576
16686TIP3    H271550   0.733   5.856  14.272 -1.8140 -0.5303  2.4898
16687TIP3   OH271551   3.266   2.555   4.921  0.2383  0.2189 -0.3686
16687TIP3    H171552   3.210   2.631   4.941 -0.7044 -0.7609  0.8853
16687TIP3    H271553   3.342   2.566   4.978  0.0461  0.1683 -0.1005
16688TIP3   OH271554   2.907   2.463  11.568 -0.3974  1.0435 -0.2469
16688TIP3    H171555   2.987   2.516  11.568  0.0771  0.3557  0.7206
16688TIP3    H271556   2.843   2.516  11.519 -0.3757  3.1826  1.8757
16689TIP3   OH271557   4.391   4.337  14.793 -0.5099  0.2957  0.1452
16689TIP3    H171558   4.376   4.285  14.871 -0.6130 -0.5112 -0.4067
16689TIP3    H271559   4.405   4.426  14.826 -2.1896  0.2902  0.9781
16690TIP3   OH271560   4.111   1.500   2.062 -0.3990  0.5177 -0.1085
16690TIP3    H171561   4.123   1.501   2.157  0.2577  1.3144 -0.1839
16690TIP3    H271562   4.113   1.407   2.039  3.1204  0.3472  0.2725
16691TIP3   OH271563   3.422   0.801  17.064 -0.2833 -0.7149  0.2181
16691TIP3    H171564   3.405   0.740  17.136  2.2514 -0.9824  0.7058
16691TIP3    H271565   3.478   0.752  17.004  0.1751  0.4854 -0.3786
16692TIP3   OH271566   5.323   3.575  14.423 -0.0614 -0.1569 -0.4404
16692TIP3    H171567   5.358   3.661  14.400  0.7800 -0.5620 -0.7510
16692TIP3    H271568   5.246   3.593  14.476  0.1112  0.7864 -0.4975
16693TIP3   OH271569   2.318   4.781  12.184 -0.3511 -0.1106  0.0585
16693TIP3    H171570   2.239   4.752  12.138 -0.3594  0.4715 -0.2989
16693TIP3    H271571   2.389   4.735  12.139 -0.5978 -1.9992  1.4815
16694TIP3   OH271572   4.117   2.302   4.452 -0.1482  0.0294  0.3082
16694TIP3    H171573   4.060   2.268   4.521  2.4872 -0.6668  2.3214
16694TIP3    H271574   4.206   2.285   4.484  1.2278  0.5137 -2.9022
16695TIP3   OH271575   3.844   5.091  13.732  0.9091  0.7302  0.1283
16695TIP3    H171576   3.779   5.142  13.780  0.0081  0.6345 -0.9372
16695TIP3    H271577   3.865   5.018  13.790 -1.4712 -0.3770 -0.2332
16696TIP3   OH271578   5.278   2.010  12.671  0.3475 -0.1213  0.1776
16696TIP3    H171579   5.263   1.916  12.658 -0.7303 -0.0014  0.3850
16696TIP3    H271580   5.210   2.036  12.734  0.7397  0.7629  0.2536
16697TIP3   OH271581   4.852   1.443  17.236 -0.4077 -0.2659  0.0222
16697TIP3    H171582   4.795   1.414  17.165 -2.2762 -0.9666  1.7207
16697TIP3    H271583   4.805   1.420  17.316  1.6850  0.3339  1.5231
16698TIP3   OH271584   2.164   1.972   4.526  0.4586  0.0610 -0.2065
16698TIP3    H171585   2.257   1.988   4.542  0.5543 -2.0047  1.9620
16698TIP3    H271586   2.163   1.902   4.461  0.5244 -1.1000  1.0035
16699TIP3   OH271587   5.627   4.391   4.938  0.3862  0.0076 -0.2012
16699TIP3    H171588   5.599   4.309   4.895  2.6324 -1.8715  1.6441
16699TIP3    H271589   5.561   4.406   5.005 -1.3669  1.1728 -2.0499
16700TIP3   OH271590   6.422   0.405  11.365 -0.8071  0.0329  0.1421
16700TIP3    H171591   6.342   0.377  11.320 -0.8370 -1.7647  1.2213
16700TIP3    H271592   6.468   0.460  11.301 -2.3763  0.2064 -0.8797
16701TIP3   OH271593   4.111   2.556  16.747  0.2588 -0.1459 -0.1621
16701TIP3    H171594   4.073   2.624  16.692  2.6200  1.1460 -0.3083
16701TIP3    H271595   4.095   2.475  16.698  0.3013  0.6992 -1.6267
16702TIP3   OH271596   2.327   1.617  14.912  0.1720  0.2107  0.7395
16702TIP3    H171597   2.290   1.697  14.874  0.3128  0.7138  1.6245
16702TIP3    H271598   2.300   1.547  14.853  1.4255  1.0972 -0.9913
16703TIP3   OH271599   0.433   3.752  12.138 -0.0365 -0.1481 -0.0764
16703TIP3    H171600   0.519   3.782  12.110 -0.2098  0.3342 -0.1087
16703TIP3    H271601   0.378   3.830  12.132 -0.2825 -0.2524  0.7691
16704TIP3   OH271602   5.793   3.512  14.257 -0.4829  0.5898  0.0062
16704TIP3    H171603   5.764   3.451  14.325 -1.6428  0.6657 -0.4044
16704TIP3    H271604   5.712   3.547  14.220  0.1096  0.2850 -1.6486
16705TIP3   OH271605   4.479   2.049   1.570 -0.0530  0.3549  0.0108
16705TIP3    H171606   4.487   1.976   1.509  1.1444 -0.3461  0.9682
16705TIP3    H271607   4.515   2.124   1.522 -1.7843  0.4829 -1.1759
16706TIP3   OH271608   2.691   5.126  16.976  0.1400 -0.0460 -0.0229
16706TIP3    H171609   2.773   5.172  16.954 -0.1865  1.2589  1.3470
16706TIP3    H271610   2.627   5.161  16.914  0.1377  0.5747  0.3225
16707TIP3   OH271611   4.307   0.167  12.950 -0.5011  0.0916  0.1028
16707TIP3    H171612   4.318   0.128  13.037 -0.1775  2.2732  1.1105
16707TIP3    H271613   4.255   0.246  12.965 -2.6177 -0.7512 -2.0854
16708TIP3   OH271614   4.024   5.475  13.008  0.0345 -0.5676  0.5303
16708TIP3    H171615   4.073   5.393  12.996 -0.0965 -0.9226  2.1273
16708TIP3    H271616   3.933   5.448  13.002 -0.0094 -0.5559  1.1330
16709TIP3   OH271617   5.693   4.378  15.126  0.1699  0.8801  0.4761
16709TIP3    H171618   5.725   4.319  15.194 -0.4803 -1.0755 -0.8123
16709TIP3    H271619   5.614   4.416  15.163 -0.1837 -0.1802  0.8653
16710TIP3   OH271620   2.628   3.559   4.296 -0.3403 -0.0605  0.3335
16710TIP3    H171621   2.575   3.485   4.328  0.8118 -0.6344  0.9984
16710TIP3    H271622   2.630   3.620   4.370  1.3013 -0.8230  0.9727
16711TIP3   OH271623   0.900   1.210   3.588 -0.2802 -0.2525  0.8501
16711TIP3    H171624   0.911   1.244   3.499 -2.6260  1.8347  1.2519
16711TIP3    H271625   0.964   1.260   3.640 -0.7635  0.4881  0.7447
16712TIP3   OH271626   4.723   5.041   2.644  0.2030  0.2057 -0.2688
16712TIP3    H171627   4.809   5.076   2.665 -0.1324  1.3059 -0.6515
16712TIP3    H271628   4.671   5.118   2.621 -0.9967 -0.3952  0.3424
16713TIP3   OH271629   3.721   6.597  11.650 -0.3439  0.3628 -0.0991
16713TIP3    H171630   3.631   6.615  11.675 -0.0104  0.4653  1.0980
16713TIP3    H271631   3.726   6.501  11.647 -0.0658  0.2936  1.6019
16714TIP3   OH271632   5.822   4.582   5.830  0.5430 -0.0522 -0.2729
16714TIP3    H171633   5.900   4.629   5.860 -0.2761 -0.6571  3.3668
16714TIP3    H271634   5.856   4.497   5.802  1.4024  0.5773 -1.2456
16715TIP3   OH271635   6.303   1.479   0.793 -0.4432  0.0048  0.1798
16715TIP3    H171636   6.270   1.433   0.715  0.1552 -0.2551  0.0738
16715TIP3    H271637   6.312   1.570   0.765 -0.7119  0.0098  0.1018
16716TIP3   OH271638   2.056   6.020  11.966 -0.1654  0.2824 -0.5993
16716TIP3    H171639   1.983   6.039  11.907 -0.9112 -0.4162  0.0726
16716TIP3    H271640   2.094   5.939  11.931  1.7556  1.7803 -2.2800
16717TIP3   OH271641   1.942   3.120   3.571  0.1674 -0.1217  0.4464
16717TIP3    H171642   1.990   3.073   3.639  1.3320  0.0895 -0.2001
16717TIP3    H271643   1.852   3.090   3.580  0.7873 -2.1529  0.3199
16718TIP3   OH271644   2.664   0.207   1.501  0.0414  0.6769  0.6234
16718TIP3    H171645   2.697   0.296   1.495  0.8637  0.2874 -1.3259
16718TIP3    H271646   2.611   0.195   1.422 -2.3542  0.2675  2.1622
16719TIP3   OH271647   0.034   2.178   2.177  0.6883 -0.3538  0.2874
16719TIP3    H171648  -0.026   2.182   2.103  0.1885  1.4481  0.7341
16719TIP3    H271649   0.073   2.091   2.172 -0.2023 -0.6953 -1.3910
16720TIP3   OH271650   1.039   4.545  11.868  0.2051 -0.0361  0.3735
16720TIP3    H171651   1.079   4.504  11.946  0.6030  0.9424  0.7054
16720TIP3    H271652   0.954   4.503  11.860  0.5964 -0.9246  0.6959
16721TIP3   OH271653   0.262   4.466  15.217 -0.0436  0.4123 -0.3783
16721TIP3    H171654   0.349   4.488  15.251  0.6941  1.0063 -2.5200
16721TIP3    H271655   0.270   4.476  15.122 -2.8348  1.8920 -0.5489
16722TIP3   OH271656   6.013   6.036  16.593 -0.1637  0.3943 -0.2273
16722TIP3    H171657   6.028   6.078  16.677 -1.2644  1.7722 -0.6835
16722TIP3    H271658   6.094   5.990  16.574  0.2912  0.5028  1.3222
16723TIP3   OH271659   2.900   3.709   0.238 -0.1356 -0.0711  0.8380
16723TIP3    H171660   2.938   3.796   0.224  2.3694 -0.9251  1.8239
16723TIP3    H271661   2.890   3.702   0.333  1.0572 -1.3633  0.8972
16724TIP3   OH271662   2.045   4.975   2.595  0.2364  0.4418 -0.1598
16724TIP3    H171663   2.096   4.898   2.570  0.5169  0.4668  0.3366
16724TIP3    H271664   2.075   5.044   2.535  1.0812  0.5634  0.3818
16725TIP3   OH271665   2.368   0.297  12.928 -0.1414  0.0513  0.0590
16725TIP3    H171666   2.306   0.229  12.901  1.0858 -0.2346 -2.3226
16725TIP3    H271667   2.315   0.375  12.938 -1.0750 -0.4586 -0.7288
16726TIP3   OH271668   3.200   2.605   2.369 -0.4249  0.1139 -0.3117
16726TIP3    H171669   3.113   2.583   2.403 -0.2107 -0.5280 -0.1520
16726TIP3    H271670   3.187   2.619   2.275 -0.4263 -1.7307 -0.6232
16727TIP3   OH271671   4.586   2.573   1.473  0.5983  0.4540 -0.4620
16727TIP3    H171672   4.632   2.492   1.450  1.2880 -0.2003  2.7561
16727TIP3    H271673   4.610   2.634   1.404  3.0995 -1.0411 -1.0511
16728TIP3   OH271674   0.924   0.931   3.586  0.5633 -0.1170 -0.3333
16728TIP3    H171675   0.908   0.895   3.673  2.0611 -0.3925 -0.1510
16728TIP3    H271676   0.906   1.025   3.595  0.0537 -0.2505  0.0938
16729TIP3   OH271677   0.644   3.780   5.600  0.3081  0.1602 -0.5066
16729TIP3    H171678   0.632   3.759   5.693  1.0593 -0.8114 -0.6095
16729TIP3    H271679   0.591   3.858   5.586 -2.0060 -1.1824  0.1345
16730TIP3   OH271680   4.125   0.157   1.818 -0.0696 -0.4990 -0.4966
16730TIP3    H171681   4.134   0.117   1.904  0.4610 -0.8492 -0.7121
16730TIP3    H271682   4.185   0.108   1.762  1.4110  1.2793 -0.5325
16731TIP3   OH271683   4.489   2.879   2.636 -0.0050 -0.0985  0.5809
16731TIP3    H171684   4.573   2.837   2.655 -0.8544 -2.0973  0.1721
16731TIP3    H271685   4.495   2.965   2.678  2.7789  0.4141 -0.6266
16732TIP3   OH271686   5.140   5.532  15.414 -0.1016 -0.3114 -0.0147
16732TIP3    H171687   5.190   5.595  15.362  0.5794 -0.7306  0.1148
16732TIP3    H271688   5.184   5.448  15.398 -1.6045 -0.9566 -1.0146
16733TIP3   OH271689   3.380   3.298  12.419 -0.1584  0.2552 -0.0409
16733TIP3    H171690   3.387   3.230  12.353 -0.7226 -1.2340  1.3569
16733TIP3    H271691   3.468   3.305  12.456  0.3905  1.7495 -1.4985
16734TIP3   OH271692   3.492   0.288   4.353 -0.0884  0.1900 -0.1002
16734TIP3    H171693   3.495   0.248   4.441 -2.1997 -0.5610 -0.3217
16734TIP3    H271694   3.418   0.348   4.356 -0.5796 -0.3059 -1.5548
16735TIP3   OH271695   3.030   4.041  14.329  0.0753 -0.1984  0.1986
16735TIP3    H171696   2.970   3.975  14.363 -1.5814  0.9469 -0.3810
16735TIP3    H271697   3.058   4.090  14.406 -0.0254 -0.5175  0.4385
16736TIP3   OH271698   2.922   4.730   4.657 -0.4367  0.7486  0.2421
16736TIP3    H171699   2.984   4.746   4.728  0.7442 -0.4555 -0.4589
16736TIP3    H271700   2.854   4.675   4.695 -1.0447  1.9502  0.9779
16737TIP3   OH271701   4.456   6.000  12.164  0.0106 -0.0167  0.3978
16737TIP3    H171702   4.545   5.994  12.199 -0.1130  1.0793  0.9600
16737TIP3    H271703   4.452   6.088  12.126 -0.1414 -0.8527 -1.6444
16738TIP3   OH271704   1.660   2.012  13.563  0.5414  0.4231  0.2868
16738TIP3    H171705   1.735   1.956  13.546  1.2728  1.5678 -0.4214
16738TIP3    H271706   1.694   2.080  13.623  0.0140  0.8151  0.1455
16739TIP3   OH271707   0.281   6.165   3.250 -0.2111  0.1368  0.4091
16739TIP3    H171708   0.208   6.127   3.298  0.7338 -2.1932  0.1319
16739TIP3    H271709   0.358   6.142   3.301  0.4471  1.9884  0.3460
16740TIP3   OH271710   6.555   4.561   1.882  0.4068 -0.1485 -0.0444
16740TIP3    H171711   6.630   4.507   1.858  0.3366 -1.9402  3.1322
16740TIP3    H271712   6.479   4.503   1.873 -0.5119  1.2773 -2.0808
16741TIP3   OH271713   4.514   2.492  12.680 -0.0557  0.0173 -0.2406
16741TIP3    H171714   4.558   2.531  12.755 -2.6473 -3.7064  3.7057
16741TIP3    H271715   4.433   2.542  12.671  0.3666  0.6157 -0.7178
16742TIP3   OH271716   3.782   6.051   6.093 -0.0333  0.7763  0.4754
16742TIP3    H171717   3.846   6.085   6.155 -1.0345  3.2499  0.2827
16742TIP3    H271718   3.711   6.017   6.148  0.8483 -0.8073  0.6741
16743TIP3   OH271719   2.301   6.279   0.944  0.5579 -0.2674  0.2778
16743TIP3    H171720   2.217   6.255   0.906  0.6196  1.6539 -1.1878
16743TIP3    H271721   2.278   6.324   1.026  0.3605 -2.6846  1.6557
16744TIP3   OH271722   4.595   2.971   3.920  0.3960 -0.1759 -0.2313
16744TIP3    H171723   4.599   3.060   3.954 -1.6482 -0.1003 -0.0554
16744TIP3    H271724   4.680   2.932   3.942  0.9390  1.4091  0.5633
16745TIP3   OH271725   4.726   4.894  14.247  0.4408 -0.0408  0.1409
16745TIP3    H171726   4.766   4.809  14.228  1.4535  0.5323 -0.4085
16745TIP3    H271727   4.741   4.907  14.340  1.1618 -0.0417  0.0328
16746TIP3   OH271728   0.349   2.749   5.548  0.5099 -0.4445  0.0184
16746TIP3    H171729   0.304   2.678   5.502  0.6925 -1.4722  1.3301
16746TIP3    H271730   0.332   2.827   5.496 -1.2153 -1.1369 -0.5300
16747TIP3   OH271731   2.826   3.435  14.203  0.4494 -0.2002  0.0000
16747TIP3    H171732   2.784   3.407  14.285  0.9263 -0.0095  0.3081
16747TIP3    H271733   2.906   3.382  14.198  0.7612  0.2730 -0.0045
16748TIP3   OH271734   6.392   5.078  15.544 -0.0315 -0.3689 -0.5780
16748TIP3    H171735   6.372   5.108  15.632 -0.2419 -1.4148 -0.2562
16748TIP3    H271736   6.384   4.983  15.548  0.2383 -0.4567 -1.6537
16749TIP3   OH271737   0.371   0.630  11.777 -0.5032 -0.2273 -0.4092
16749TIP3    H171738   0.332   0.713  11.748 -0.9158 -0.6170 -0.9955
16749TIP3    H271739   0.337   0.565  11.715  1.0251 -0.5913 -0.8939
16750TIP3   OH271740   3.355   4.078   1.675 -0.1788  0.4712 -0.3757
16750TIP3    H171741   3.337   4.020   1.601  1.6120  0.3541 -0.7690
16750TIP3    H271742   3.328   4.027   1.752  0.5828 -0.5702 -0.7719
16751TIP3   OH271743   1.310   1.957   5.548  0.4579  0.4045 -0.4111
16751TIP3    H171744   1.248   1.909   5.494 -0.2492  0.3846  0.4000
16751TIP3    H271745   1.273   2.045   5.554  0.9700  0.6419 -0.6460
16752TIP3   OH271746   4.017   4.864   1.288  0.1736 -0.0787  0.4396
16752TIP3    H171747   3.938   4.891   1.240  1.7397  1.8074 -1.2233
16752TIP3    H271748   4.010   4.910   1.372  0.3667  1.6188 -0.4302
16753TIP3   OH271749   2.638   5.498  16.847 -0.3931 -0.6742  0.3490
16753TIP3    H171750   2.603   5.582  16.815  0.6272  0.1230  1.2430
16753TIP3    H271751   2.730   5.498  16.818 -0.7989 -2.2775 -1.1058
16754TIP3   OH271752   4.257   1.976  11.689  0.3604 -0.3266  0.1719
16754TIP3    H171753   4.278   2.049  11.630  1.3855 -0.0295  0.8710
16754TIP3    H271754   4.296   1.899  11.648  1.1700 -0.1017  0.4809
16755TIP3   OH271755   5.532   1.965   3.663 -0.1705  0.4389  0.5436
16755TIP3    H171756   5.582   1.956   3.744  1.8551 -2.3576 -0.8554
16755TIP3    H271757   5.585   2.021   3.608  0.7766 -1.3056 -0.3972
16756TIP3   OH271758   6.026   4.741  17.305  0.2207 -0.6248 -0.9427
16756TIP3    H171759   6.044   4.798  17.380 -1.2851  1.9760 -2.4178
16756TIP3    H271760   5.985   4.664  17.343 -1.5003  1.0741  0.9058
16757TIP3   OH271761   4.486   6.068  10.629  0.2927  0.3837 -0.2995
16757TIP3    H171762   4.468   5.989  10.577 -1.3420  0.8498 -0.5097
16757TIP3    H271763   4.560   6.044  10.684  0.6409 -0.8691 -1.2543
16758TIP3   OH271764   4.267   3.707  10.666 -0.4929  0.1819 -0.6098
16758TIP3    H171765   4.216   3.718  10.586  2.2632  2.3238 -2.2636
16758TIP3    H271766   4.333   3.777  10.663  0.7195 -0.5849  2.7966
16759TIP3   OH271767   3.626   1.717  14.619 -0.5676 -0.1263  0.1512
16759TIP3    H171768   3.647   1.625  14.633  0.1083 -0.0619 -0.4102
16759TIP3    H271769   3.537   1.717  14.583 -0.3174 -0.5984 -0.4768
16760TIP3   OH271770   5.538   1.220  17.086 -0.2296 -0.0421 -0.0583
16760TIP3    H171771   5.448   1.238  17.113  0.6883  1.5262  2.3281
16760TIP3    H271772   5.575   1.172  17.160  1.3588  0.9273 -0.1819
16761TIP3   OH271773   0.178   3.563   3.236  0.3563  0.0204  0.1389
16761TIP3    H171774   0.160   3.473   3.263 -2.1860 -0.1207 -1.6362
16761TIP3    H271775   0.235   3.555   3.159 -0.5247 -0.1575 -0.5109
16762TIP3   OH271776   1.751   2.476  16.967 -0.3397  0.1648 -0.2871
16762TIP3    H171777   1.778   2.452  16.879  0.4096  1.4020 -0.4140
16762TIP3    H271778   1.721   2.566  16.960 -0.2477  0.2926  0.7282
16763TIP3   OH271779   6.358   1.421   1.833  0.3112  0.1927 -0.4302
16763TIP3    H171780   6.439   1.449   1.876  1.0722 -1.0212 -1.0163
16763TIP3    H271781   6.381   1.418   1.740  0.5007 -2.8553 -0.3868
16764TIP3   OH271782   0.302   1.679  15.611 -0.6837  0.3356 -0.4255
16764TIP3    H171783   0.300   1.617  15.683  0.5474  1.0235  0.2378
16764TIP3    H271784   0.378   1.734  15.629  0.8552 -0.6658 -3.2608
16765TIP3   OH271785   3.980   3.259   4.622 -0.5330 -0.2697  0.0660
16765TIP3    H171786   3.998   3.175   4.581  0.5639 -1.4639  2.7265
16765TIP3    H271787   3.889   3.252   4.652 -0.3699 -0.6468  0.4938
16766TIP3   OH271788   5.655   5.309  13.919 -0.5694 -0.4553  0.2454
16766TIP3    H171789   5.596   5.384  13.917 -4.0928 -2.8619  2.6395
16766TIP3    H271790   5.711   5.324  13.995 -0.5158  0.1934  0.0834
16767TIP3   OH271791   4.073   6.264   0.410  0.8301  0.1535  0.3211
16767TIP3    H171792   4.094   6.170   0.411  1.5654  0.2363 -1.8201
16767TIP3    H271793   4.145   6.305   0.458  0.2561 -0.3914  1.6856
16768TIP3   OH271794   3.975   3.683  15.695 -0.3856 -0.5160 -0.5158
16768TIP3    H171795   3.972   3.670  15.601  0.1700 -2.1167 -0.3359
16768TIP3    H271796   4.055   3.637  15.723 -0.7637 -0.4154  0.7848
16769TIP3   OH271797   6.213   2.009  17.091  0.3080 -0.4092  0.2892
16769TIP3    H171798   6.282   1.943  17.086  1.1663  0.4397  0.7566
16769TIP3    H271799   6.140   1.970  17.043  1.3460 -1.0276 -0.8388
16770TIP3   OH271800   0.133   3.870  14.988 -0.0783 -0.6785  0.4496
16770TIP3    H171801   0.046   3.908  14.989 -0.4491 -1.4939  0.1206
16770TIP3    H271802   0.138   3.819  15.069  0.6860  0.6267  1.2588
16771TIP3   OH271803   2.879   2.023  16.834  0.6386 -0.2862  0.1241
16771TIP3    H171804   2.961   2.070  16.815 -0.7817  2.0922 -0.5394
16771TIP3    H271805   2.849   1.993  16.748  1.3066 -2.1376  0.4952
16772TIP3   OH271806   3.521   1.113  10.498  0.1719  0.1163 -0.3983
16772TIP3    H171807   3.445   1.157  10.538  0.6990  2.2177 -1.5624
16772TIP3    H271808   3.593   1.131  10.559  0.4850  1.3265 -1.0985
16773TIP3   OH271809   2.447   4.352  11.920  0.5952 -0.4877 -0.2954
16773TIP3    H171810   2.373   4.348  11.980  0.7264  3.0063  0.3221
16773TIP3    H271811   2.521   4.318  11.971  0.6126  1.9849  1.5526
16774TIP3   OH271812   4.978   0.038  15.201  0.2826  0.2344  0.3513
16774TIP3    H171813   5.048   0.033  15.266 -0.1516 -0.5284  0.7746
16774TIP3    H271814   4.898   0.028  15.252 -0.0037 -2.4946 -0.4749
16775TIP3   OH271815   2.861   3.877  12.347 -0.2053 -0.7821 -0.4275
16775TIP3    H171816   2.954   3.894  12.362 -0.2466 -1.0680  0.1672
16775TIP3    H271817   2.819   3.963  12.357  0.1505 -0.3857 -2.0682
16776TIP3   OH271818   3.530   0.238  14.540 -0.4459 -0.0956 -0.0486
16776TIP3    H171819   3.467   0.219  14.610  2.3305  0.4505  2.8090
16776TIP3    H271820   3.546   0.332  14.546  1.5766 -0.4104  0.2283
16777TIP3   OH271821   3.438   0.261  17.279 -0.1691  0.0159  0.0890
16777TIP3    H171822   3.416   0.193  17.342 -1.0372 -0.2035 -0.4199
16777TIP3    H271823   3.429   0.218  17.194  1.6370  0.1149 -0.1964
16778TIP3   OH271824   3.921   3.752  12.806  0.3742  0.3182  0.4411
16778TIP3    H171825   3.932   3.842  12.837  0.0606  0.0542  1.3422
16778TIP3    H271826   3.898   3.702  12.884 -0.2102 -0.4119 -0.1827
16779TIP3   OH271827   1.777   2.993  15.621  0.2733  0.1435  0.6580
16779TIP3    H171828   1.810   3.038  15.544 -3.1924 -0.4639 -1.4005
16779TIP3    H271829   1.800   2.902  15.608 -1.4642 -0.1918 -0.5092
16780TIP3   OH271830   2.503   3.054  15.739  0.4876 -0.6221 -0.4174
16780TIP3    H171831   2.572   3.075  15.802  1.3890  0.6661 -1.7495
16780TIP3    H271832   2.538   3.085  15.655 -0.5371 -2.4906 -1.6167
16781TIP3   OH271833   5.764   3.623   4.851 -0.2827 -0.0483  0.5145
16781TIP3    H171834   5.816   3.603   4.928 -1.1173  1.1378  1.4187
16781TIP3    H271835   5.735   3.713   4.864  0.0238  0.3888 -1.4586
16782TIP3   OH271836   2.949   0.287   5.907  0.0805 -0.1319 -0.1799
16782TIP3    H171837   3.000   0.318   5.982  1.6290  0.5358 -1.4500
16782TIP3    H271838   3.011   0.233   5.858 -0.9012 -0.5198 -1.0011
16783TIP3   OH271839   5.400   0.717  14.257  0.9201  0.3046 -0.3273
16783TIP3    H171840   5.331   0.783  14.269  0.2918 -0.5834  1.2411
16783TIP3    H271841   5.362   0.654  14.196  0.5694  0.1360  0.0597
16784TIP3   OH271842   4.455   1.751  16.039  0.1281  0.0514 -0.0474
16784TIP3    H171843   4.434   1.753  15.946  0.6232 -1.7893 -0.2357
16784TIP3    H271844   4.438   1.840  16.069  2.0962  1.3201 -2.3454
16785TIP3   OH271845   5.176   6.606  12.493 -0.2868 -0.1587 -0.7123
16785TIP3    H171846   5.198   6.695  12.518  0.6215 -0.5997  0.1236
16785TIP3    H271847   5.257   6.570  12.456 -0.1680 -1.1150  0.3992
16786TIP3   OH271848   4.546   1.328   2.086 -0.1297 -0.8985  0.1829
16786TIP3    H171849   4.513   1.302   2.000 -0.2109 -0.0298 -0.0643
16786TIP3    H271850   4.602   1.404   2.067  0.8187 -1.4386  0.7621
16787TIP3   OH271851   4.521   3.438  11.546  0.0117  0.7504 -0.1383
16787TIP3    H171852   4.564   3.361  11.507 -0.6984 -0.2515  0.9740
16787TIP3    H271853   4.474   3.403  11.622 -2.0251  1.9517 -0.7724
16788TIP3   OH271854   5.170   2.805   5.723  0.1020  0.0087 -0.4734
16788TIP3    H171855   5.137   2.893   5.705  1.2892  0.8654  1.2658
16788TIP3    H271856   5.132   2.782   5.807  0.0020 -1.0579 -0.7973
16789TIP3   OH271857   3.356   0.496   1.837  0.4102 -0.0569 -0.1360
16789TIP3    H171858   3.399   0.411   1.848 -1.1579 -0.6084  2.9266
16789TIP3    H271859   3.262   0.474   1.834  0.0605  1.4453 -1.6081
16790TIP3   OH271860   3.209   3.269  16.090  0.1412  0.0634 -0.3296
16790TIP3    H171861   3.276   3.256  16.023  0.7070  1.4007 -0.0600
16790TIP3    H271862   3.144   3.326  16.049 -0.3063 -0.3733 -0.2389
16791TIP3   OH271863   4.535   2.024  11.790  0.1373  0.0850 -0.0169
16791TIP3    H171864   4.623   1.985  11.793 -0.4071 -1.3347 -1.2140
16791TIP3    H271865   4.482   1.960  11.743 -1.4665  1.0925  0.3440
16792TIP3   OH271866   1.351   5.688  11.118 -0.4888  0.1149 -0.8129
16792TIP3    H171867   1.324   5.773  11.153 -0.3803  1.2315 -3.2683
16792TIP3    H271868   1.376   5.637  11.196 -0.7757  2.2195  0.7402
16793TIP3   OH271869   2.324   6.596   1.438 -0.0777  0.4271  0.3320
16793TIP3    H171870   2.399   6.648   1.411  0.0406 -0.2648 -0.7281
16793TIP3    H271871   2.249   6.655   1.430  0.2037  0.7799  0.2837
16794TIP3   OH271872   4.875   1.990  15.672  0.3022  0.2501  0.1389
16794TIP3    H171873   4.822   1.939  15.733 -0.6498 -0.2696 -1.0706
16794TIP3    H271874   4.812   2.044  15.624  0.9937  0.4868 -0.5256
16795TIP3   OH271875   2.124   4.175   1.383  0.3980  0.2778 -0.2946
16795TIP3    H171876   2.122   4.271   1.375  0.7181  0.1921 -1.6293
16795TIP3    H271877   2.032   4.151   1.397  0.3080  0.7706  0.0033
16796TIP3   OH271878   1.717   4.591   4.646 -0.3505  0.3365  0.0575
16796TIP3    H171879   1.809   4.614   4.660 -0.7316  1.7502  0.4309
16796TIP3    H271880   1.709   4.580   4.552 -0.2315  2.3989 -0.2563
16797TIP3   OH271881   6.528   0.772  16.944 -0.1402  0.1482  0.1378
16797TIP3    H171882   6.603   0.712  16.938 -0.8414 -0.7498  0.0329
16797TIP3    H271883   6.546   0.826  17.020  1.1237  0.6737 -0.5053
16798TIP3   OH271884   5.014   5.929   0.427  0.0382  0.2730  0.2371
16798TIP3    H171885   4.973   5.882   0.355 -0.0016 -0.0503  0.4694
16798TIP3    H271886   5.100   5.955   0.393 -1.0236  2.6014 -0.9172
16799TIP3   OH271887   1.938   1.457  14.206  0.1104  0.1775  0.2283
16799TIP3    H171888   1.889   1.378  14.228  1.2668 -0.6696 -0.1986
16799TIP3    H271889   2.018   1.452  14.257 -0.2674  1.6467  1.0488
16800TIP3   OH271890   6.212   2.183   1.480  0.1673  0.4455  0.6036
16800TIP3    H171891   6.228   2.192   1.574 -0.4225  0.0935  0.7412
16800TIP3    H271892   6.189   2.090   1.468 -0.5381  0.6599  0.2354
16801TIP3   OH271893   0.788   4.586  12.252 -0.1761 -0.7458  0.0650
16801TIP3    H171894   0.800   4.645  12.178 -1.6171 -0.3958  0.0791
16801TIP3    H271895   0.811   4.500  12.219  0.4158 -0.4118 -0.4118
16802TIP3   OH271896   6.032   1.739  11.414 -0.1101 -0.4979 -0.9418
16802TIP3    H171897   5.998   1.651  11.402  2.6246 -1.6072 -1.3313
16802TIP3    H271898   6.078   1.759  11.333 -1.2221  1.6169 -1.1308
16803TIP3   OH271899   1.659   1.525  14.049 -0.0381 -0.2548  0.6411
16803TIP3    H171900   1.610   1.486  13.978 -1.9311  2.1358  0.5057
16803TIP3    H271901   1.624   1.484  14.128 -1.0332  0.1766  0.4329
16804TIP3   OH271902   3.282   3.381   2.435  0.3563 -0.2627  0.1999
16804TIP3    H171903   3.361   3.350   2.390  0.8486  1.7046 -0.3909
16804TIP3    H271904   3.309   3.390   2.526  0.2786 -1.2249  0.3369
16805TIP3   OH271905   4.622   1.718   3.971 -0.2805  0.0278 -0.1323
16805TIP3    H171906   4.642   1.638   4.019 -1.1849 -1.5777 -2.2496
16805TIP3    H271907   4.592   1.780   4.037  0.6157 -1.3075  1.5889
16806TIP3   OH271908   0.669   5.348  16.808 -0.0131 -0.1870 -0.1562
16806TIP3    H171909   0.725   5.425  16.812  0.7085 -0.6038 -1.5890
16806TIP3    H271910   0.643   5.332  16.899  1.2331  0.7151  0.3801
16807TIP3   OH271911   6.541   0.283  13.801 -0.4508 -0.2636 -0.1456
16807TIP3    H171912   6.503   0.355  13.850  3.0438  0.9185  1.1445
16807TIP3    H271913   6.522   0.303  13.709 -2.6861  0.2348  0.3586
16808TIP3   OH271914   1.180   4.876  12.632 -0.1643 -0.6771  0.3557
16808TIP3    H171915   1.223   4.807  12.681  0.8832  1.2196  2.2882
16808TIP3    H271916   1.179   4.844  12.542  0.6162 -3.0007  1.0982
16809TIP3   OH271917   3.707   4.708   0.151 -0.6167  0.0655  0.5240
16809TIP3    H171918   3.793   4.747   0.172 -0.9764  0.9140  0.4739
16809TIP3    H271919   3.649   4.783   0.144 -0.9930 -0.3566 -1.2295
16810TIP3   OH271920   6.220   2.300  11.721 -0.2158 -0.1007  0.0191
16810TIP3    H171921   6.252   2.292  11.631 -0.2161 -1.3652  0.1025
16810TIP3    H271922   6.130   2.269  11.718 -0.5630  0.8506  0.2782
16811TIP3   OH271923   1.827   3.581   5.236 -0.3323 -0.0340 -0.2191
16811TIP3    H171924   1.894   3.572   5.304  0.9951  1.3487 -1.2588
16811TIP3    H271925   1.809   3.675   5.234 -2.4877 -0.4038  0.1646
16812TIP3   OH271926   2.912   4.132  12.789 -0.1636  0.2480 -0.0076
16812TIP3    H171927   2.954   4.176  12.863 -0.8796 -0.9729  1.1654
16812TIP3    H271928   2.932   4.039  12.801 -2.1416 -0.2387 -0.0673
16813TIP3   OH271929   2.101   2.208   5.266  0.5238  0.0797  0.1273
16813TIP3    H171930   2.068   2.182   5.180 -0.5708 -0.5526  0.7336
16813TIP3    H271931   2.189   2.242   5.248  0.4884 -0.4776 -1.1731
16814TIP3   OH271932   1.605   0.010   2.203  0.1996  0.3005  0.1192
16814TIP3    H171933   1.560   0.014   2.287  0.0081  0.5338  0.0082
16814TIP3    H271934   1.536  -0.015   2.141  0.6986 -1.7097  0.2978
16815TIP3   OH271935   3.334   4.670  15.234  0.6021  0.9384 -0.0180
16815TIP3    H171936   3.406   4.652  15.174  0.9286 -0.1734  0.6754
16815TIP3    H271937   3.322   4.765  15.230  1.5989  1.0469 -0.6975
16816TIP3   OH271938   5.906   2.776   6.044  0.0793 -0.3104 -0.1342
16816TIP3    H171939   5.952   2.706   6.090  0.8543  0.3012  0.0478
16816TIP3    H271940   5.851   2.816   6.110  0.0584 -0.3925 -0.1012
16817TIP3   OH271941   1.428   4.307  12.119 -0.1098  0.1543 -0.1696
16817TIP3    H171942   1.477   4.377  12.163  0.2835  1.0561 -1.9630
16817TIP3    H271943   1.366   4.353  12.062 -0.2445 -0.9635 -0.9515
16818TIP3   OH271944   3.619   5.258  13.491  0.0722  0.2756 -0.0478
16818TIP3    H171945   3.590   5.251  13.400 -0.5931  0.1672  0.1729
16818TIP3    H271946   3.713   5.238  13.487 -0.2184 -1.0887 -0.5251
16819TIP3   OH271947   4.161   3.619  16.522  0.4091  0.4195  0.2296
16819TIP3    H171948   4.136   3.529  16.503  0.7793  0.1645  0.8976
16819TIP3    H271949   4.239   3.610  16.578 -1.4762  1.0579  3.1885
16820TIP3   OH271950   2.444   1.322   3.391 -0.1794 -0.5846  0.1600
16820TIP3    H171951   2.508   1.313   3.320  0.3076  2.3785  0.0740
16820TIP3    H271952   2.493   1.364   3.462 -1.4468 -0.4647  0.9956
16821TIP3   OH271953   4.651   3.565   1.164 -0.6201  0.7682  0.1656
16821TIP3    H171954   4.694   3.514   1.095 -0.1192  1.4087 -0.0005
16821TIP3    H271955   4.687   3.653   1.155 -1.0977  1.0330  0.7815
16822TIP3   OH271956   3.407   1.073   5.030  0.7292 -0.2330 -0.2217
16822TIP3    H171957   3.367   1.010   5.090  1.0938 -2.5529 -2.2360
16822TIP3    H271958   3.443   1.019   4.959  1.2496  2.2658 -2.0004
16823TIP3   OH271959   6.126   0.024  16.671 -0.1615  0.1876 -0.0533
16823TIP3    H171960   6.122  -0.062  16.631 -0.2984 -0.4297  1.2532
16823TIP3    H271961   6.217   0.034  16.698 -0.0511  0.6391 -0.5588
16824TIP3   OH271962   1.172   1.511  10.494 -0.5326  0.2673 -0.2193
16824TIP3    H171963   1.136   1.584  10.545  0.1838  0.3665  0.1522
16824TIP3    H271964   1.201   1.448  10.560 -0.1373  0.1371 -0.5195
16825TIP3   OH271965   1.542   1.412   3.903 -0.0798 -0.8499 -0.5181
16825TIP3    H171966   1.462   1.372   3.937 -1.4455  2.1590  0.0916
16825TIP3    H271967   1.608   1.394   3.971 -1.1961 -0.2420  0.7697
16826TIP3   OH271968   1.883   1.333  16.588  0.7433  0.5936  0.4860
16826TIP3    H171969   1.837   1.410  16.620 -1.1095 -0.4862  0.5492
16826TIP3    H271970   1.833   1.305  16.512  2.1647  0.1939 -0.3452
16827TIP3   OH271971   0.464   0.222   2.309 -0.5687 -0.1209  0.6055
16827TIP3    H171972   0.418   0.295   2.350 -0.6545 -0.2784  0.7927
16827TIP3    H271973   0.556   0.239   2.325 -0.3876  1.2599 -1.4987
16828TIP3   OH271974   1.183   1.473   1.701 -0.1237 -0.1431  0.1321
16828TIP3    H171975   1.171   1.561   1.738 -0.2484  0.1836 -0.6655
16828TIP3    H271976   1.277   1.467   1.683  0.0202 -0.4925  0.9445
16829TIP3   OH271977   5.651   6.235  13.384 -0.4309 -0.4414 -0.9395
16829TIP3    H171978   5.741   6.216  13.411 -0.2609 -3.9474 -3.3225
16829TIP3    H271979   5.659   6.310  13.326  0.4981  0.9338  0.8547
16830TIP3   OH271980   1.099   5.626  10.475 -0.1566 -0.5925  0.1007
16830TIP3    H171981   1.082   5.680  10.552 -0.6994  1.3614 -1.3117
16830TIP3    H271982   1.038   5.553  10.483 -1.6595  0.6483  0.5540
16831TIP3   OH271983   0.145   6.697   4.363  0.0286 -0.5949  0.2599
16831TIP3    H171984   0.122   6.789   4.364 -0.5041 -0.7093  2.4730
16831TIP3    H271985   0.222   6.692   4.305  0.8096  1.4216  1.0546
16832TIP3   OH271986   2.842   5.966   1.251  0.1457  0.1461 -0.2340
16832TIP3    H171987   2.828   5.913   1.173  1.2192 -1.7720  0.8007
16832TIP3    H271988   2.787   5.924   1.318  1.5082 -0.0900  0.7662
16833TIP3   OH271989   6.143   5.302  11.948  0.1590  0.2700  0.0442
16833TIP3    H171990   6.214   5.359  11.917  1.6253 -1.2283  0.5395
16833TIP3    H271991   6.139   5.318  12.042  0.0874  0.0982  0.0704
16834TIP3   OH271992   1.594   4.717   6.193 -0.3505 -0.0104  0.2348
16834TIP3    H171993   1.546   4.792   6.158 -1.6068 -0.2316  1.4038
16834TIP3    H271994   1.630   4.673   6.116 -3.2171 -0.6388 -0.8705
16835TIP3   OH271995   3.605   3.390   4.289 -0.0604 -0.4195 -0.0107
16835TIP3    H171996   3.511   3.405   4.293 -0.1724 -0.8489 -0.7684
16835TIP3    H271997   3.621   3.314   4.345  0.0666  0.5610  1.3359
16836TIP3   OH271998   4.295   6.575   2.119 -0.5105 -0.0804  0.1076
16836TIP3    H171999   4.277   6.482   2.128 -1.3398  0.1783  1.3500
16836TIP3    H272000   4.376   6.590   2.168  1.9373 -0.7811 -3.3453
16837TIP3   OH272001   2.421   5.193   3.917  0.8183  0.1787  0.1109
16837TIP3    H172002   2.513   5.203   3.891  0.9093 -0.1392  0.2956
16837TIP3    H272003   2.426   5.166   4.009  0.5829 -0.9211 -0.1764
16838TIP3   OH272004   3.131   1.015   1.590 -0.1605  0.0222 -0.5344
16838TIP3    H172005   3.062   0.962   1.550 -0.6611 -0.7555  1.2695
16838TIP3    H272006   3.207   1.004   1.532 -1.1697 -0.1347 -1.8561
16839TIP3   OH272007   1.156   5.580  12.432 -0.4753  0.4296  0.1271
16839TIP3    H172008   1.206   5.524  12.491 -1.4365  0.2246  0.7524
16839TIP3    H272009   1.189   5.669  12.451  1.0440  0.1307 -0.8654
16840TIP3   OH272010   4.259   3.257   4.370  0.3659  0.1582 -0.1143
16840TIP3    H172011   4.226   3.246   4.280 -0.8883  2.6602 -0.0358
16840TIP3    H272012   4.180   3.269   4.423  1.0083 -2.3094  1.5846
16841TIP3   OH272013   6.619   0.160   3.046 -0.0341  0.6222  0.0358
16841TIP3    H172014   6.568   0.088   3.084  1.8833 -0.3131  0.9660
16841TIP3    H272015   6.568   0.187   2.970 -2.3315  0.3168  1.3559
16842TIP3   OH272016   2.933   6.106  15.003 -0.3747 -0.0797 -0.4906
16842TIP3    H172017   2.852   6.054  15.005 -1.5776  1.7426  0.2048
16842TIP3    H272018   3.002   6.043  15.022 -1.6994 -1.5564 -0.3426
16843TIP3   OH272019   6.774   2.597   4.363  0.0348 -0.0544 -0.3829
16843TIP3    H172020   6.859   2.636   4.386 -0.1090 -1.2815  2.8086
16843TIP3    H272021   6.788   2.503   4.374 -1.7845 -0.2653  0.4983
16844TIP3   OH272022   4.912   0.785  12.395  0.3364  0.1555 -0.5537
16844TIP3    H172023   4.874   0.805  12.310 -0.0418 -0.7047 -0.6053
16844TIP3    H272024   4.931   0.691  12.391  0.3708  0.1180  0.2870
16845TIP3   OH272025   1.853   3.358   4.197  0.1882  0.3446  0.1657
16845TIP3    H172026   1.904   3.321   4.125  1.0754  1.0860  0.3929
16845TIP3    H272027   1.772   3.389   4.156  0.3132 -0.0176 -0.3607
16846TIP3   OH272028   4.377   1.541  16.279  0.3441  0.3370  0.4985
16846TIP3    H172029   4.397   1.486  16.203 -0.4271 -0.2447  0.7123
16846TIP3    H272030   4.326   1.485  16.337 -0.7193  1.3779  0.5921
16847TIP3   OH272031   3.391   5.238  14.054 -0.0535 -0.1835  0.4154
16847TIP3    H172032   3.309   5.275  14.021 -0.7374 -1.7152  0.3093
16847TIP3    H272033   3.406   5.282  14.138  0.3425  1.8818 -0.6819
16848TIP3   OH272034   2.303   2.522   3.135  0.3514 -0.0682  0.1012
16848TIP3    H172035   2.226   2.554   3.181  1.0592  1.7342  0.1383
16848TIP3    H272036   2.270   2.492   3.050 -0.5848 -0.8106  0.7107
16849TIP3   OH272037   1.107   2.869   2.030  0.2614 -0.5214 -0.3487
16849TIP3    H172038   1.019   2.884   2.063  0.1936 -1.7791  0.1030
16849TIP3    H272039   1.106   2.778   2.000  0.4177  0.3909 -3.5456
16850TIP3   OH272040   3.744   6.366   5.049  0.3241 -0.7004  0.0340
16850TIP3    H172041   3.736   6.356   5.144 -0.0904  1.0599  0.2219
16850TIP3    H272042   3.833   6.400   5.036  0.6558 -1.6599 -0.2972
16851TIP3   OH272043   5.939   5.884   1.242 -0.5015  0.2685  0.0814
16851TIP3    H172044   5.997   5.812   1.267  0.2513  0.7562 -0.2274
16851TIP3    H272045   5.940   5.882   1.146 -3.1609 -1.4324  0.0049
16852TIP3   OH272046   1.905   0.625  15.071  0.7808  0.0885  0.0814
16852TIP3    H172047   1.912   0.650  15.163  0.6471  1.3339 -0.2289
16852TIP3    H272048   1.815   0.645  15.047  0.6575 -0.7507 -0.1794
16853TIP3   OH272049   2.827   4.553  12.905  0.0449  0.4054  0.4282
16853TIP3    H172050   2.868   4.547  12.991 -1.1821  0.2053  1.0205
16853TIP3    H272051   2.741   4.512  12.916 -0.1835  0.4866 -0.8632
16854TIP3   OH272052   5.686   4.110   6.247  0.1158  0.7235  0.8682
16854TIP3    H172053   5.592   4.104   6.226 -0.5367  0.3118  3.5780
16854TIP3    H272054   5.690   4.104   6.342  2.8214  2.2402  0.9432
16855TIP3   OH272055   3.233   1.397  12.239 -0.0488  0.2797  0.3636
16855TIP3    H172056   3.231   1.446  12.157  0.9268 -0.4006 -0.0816
16855TIP3    H272057   3.260   1.461  12.305 -2.5611  1.2830  0.5294
16856TIP3   OH272058   3.891   1.961  16.376  0.0603 -0.5660 -0.0298
16856TIP3    H172059   3.831   2.017  16.424  0.9464 -0.9965  1.6369
16856TIP3    H272060   3.978   1.993  16.398  0.5140 -0.7869 -1.3592
16857TIP3   OH272061   3.560   0.226  12.472  0.0149  0.5344  0.0660
16857TIP3    H172062   3.601   0.270  12.546 -1.3303 -0.1237  1.2522
16857TIP3    H272063   3.609   0.144  12.464 -2.1114 -1.2262  2.8054
16858TIP3   OH272064   1.978   0.464   1.093 -0.0139 -0.0479  0.0411
16858TIP3    H172065   2.069   0.467   1.066  0.1390  0.0469  0.5559
16858TIP3    H272066   1.970   0.385   1.146  0.3489  1.1441  1.9790
16859TIP3   OH272067   5.488   5.969  12.382  0.2611 -0.0851 -0.2988
16859TIP3    H172068   5.418   5.912  12.414 -1.4776  1.0905 -1.7553
16859TIP3    H272069   5.569   5.923  12.404 -1.0141 -2.5150 -0.3554
16860TIP3   OH272070   3.241   0.916  16.408  0.1360 -0.7311 -0.0617
16860TIP3    H172071   3.251   0.868  16.490  2.0258  0.7270  0.6524
16860TIP3    H272072   3.147   0.924  16.395 -0.2181 -0.4291  2.3383
16861TIP3   OH272073   2.956   4.259  16.538  0.2875  0.0547  0.0167
16861TIP3    H172074   2.900   4.331  16.568  1.9876  0.1783  3.2449
16861TIP3    H272075   2.940   4.188  16.600  2.7115 -0.3348  0.2949
16862TIP3   OH272076   4.172   0.504   2.322 -0.1207  0.9212 -0.1194
16862TIP3    H172077   4.220   0.496   2.239  0.0722 -1.8522  0.1354
16862TIP3    H272078   4.080   0.492   2.297  0.1212 -2.6890  0.1958
16863TIP3   OH272079   5.478   1.739  13.308  0.4811  0.2610  0.4771
16863TIP3    H172080   5.388   1.765  13.289  0.8815  2.0857  0.8606
16863TIP3    H272081   5.486   1.651  13.273 -0.3975  1.3698 -2.9444
16864TIP3   OH272082   4.342   1.750   2.587 -0.3302  0.6284 -0.5923
16864TIP3    H172083   4.251   1.719   2.585  0.1886 -1.0356 -0.4698
16864TIP3    H272084   4.383   1.706   2.513  0.9565 -0.6763  0.8335
16865TIP3   OH272085   0.977   3.256  15.077  0.0716 -0.6311 -0.1516
16865TIP3    H172086   0.887   3.283  15.061  1.2602  2.5425 -2.5890
16865TIP3    H272087   1.003   3.212  14.996  1.2935  0.4698 -0.3965
16866TIP3   OH272088   6.483   2.817  13.501  0.2203 -0.4669  0.1667
16866TIP3    H172089   6.476   2.739  13.446  1.3734 -0.7194  0.3506
16866TIP3    H272090   6.542   2.792  13.572 -1.8511 -0.3963  2.0089
16867TIP3   OH272091   0.809   3.068  12.504 -0.2126 -0.3472  0.2120
16867TIP3    H172092   0.736   3.015  12.535  0.2288 -0.9751  0.1811
16867TIP3    H272093   0.855   3.013  12.441  0.8397 -0.3249  0.9237
16868TIP3   OH272094   0.320   2.489  12.250  0.6612  0.3758  0.0019
16868TIP3    H172095   0.338   2.395  12.261 -0.1339  0.0530 -1.2314
16868TIP3    H272096   0.293   2.497  12.158 -0.9281  1.5494  0.5437
16869TIP3   OH272097   2.860   0.045   4.957  0.0035 -0.6055  0.0494
16869TIP3    H172098   2.821   0.067   5.041 -0.0513  1.9405 -0.5544
16869TIP3    H272099   2.944   0.091   4.956  0.2657 -1.0718 -1.0470
16870TIP3   OH272100   4.955   2.130  14.748  0.1669 -0.1035 -0.1709
16870TIP3    H172101   4.976   2.185  14.823 -2.0976  0.6631  0.0012
16870TIP3    H272102   4.948   2.192  14.675 -0.4229 -0.4272 -0.3977
16871TIP3   OH272103   4.632   0.761   6.247 -0.4943 -0.1239 -0.4496
16871TIP3    H172104   4.615   0.842   6.198  0.4873  0.5200  0.2321
16871TIP3    H272105   4.550   0.745   6.295  0.0598  1.8800  1.3480
16872TIP3   OH272106   0.528   1.697  16.938 -0.3799 -0.3482 -0.0208
16872TIP3    H172107   0.513   1.789  16.957 -0.6151 -0.8675  2.7440
16872TIP3    H272108   0.575   1.664  17.014  0.1975 -2.4080 -1.1867
16873TIP3   OH272109   3.505   6.387  16.520  0.2101 -0.0522 -0.2779
16873TIP3    H172110   3.464   6.329  16.456 -1.8096  0.5923  0.3592
16873TIP3    H272111   3.544   6.329  16.585 -2.7997 -0.8030  0.9943
16874TIP3   OH272112   3.299   2.970  15.018  0.2032 -0.1936  0.4421
16874TIP3    H172113   3.392   2.947  15.021  0.2896 -0.0045 -0.3810
16874TIP3    H272114   3.253   2.888  15.034  0.5015 -1.0112 -2.3468
16875TIP3   OH272115   0.255   1.973  15.825 -0.2330 -0.0404  0.6476
16875TIP3    H172116   0.323   1.907  15.839  1.9204  2.0050  0.4153
16875TIP3    H272117   0.204   1.973  15.906  1.9469  0.3995  2.1085
16876TIP3   OH272118   5.433   0.016   2.112  0.3054  0.7798  0.1852
16876TIP3    H172119   5.376   0.091   2.124 -0.4097  0.0916  1.2790
16876TIP3    H272120   5.434  -0.028   2.197 -0.9958 -1.6136 -0.9183
16877TIP3   OH272121   4.691   5.372   1.074 -0.4813 -0.1027  0.7166
16877TIP3    H172122   4.715   5.281   1.054 -1.2196 -0.2315  0.3808
16877TIP3    H272123   4.674   5.412   0.989  0.8340  0.6584  0.7860
16878TIP3   OH272124   0.703   3.106  13.057  0.2213  0.7734 -0.1828
16878TIP3    H172125   0.628   3.048  13.072  0.7378 -0.9038 -3.2627
16878TIP3    H272126   0.777   3.059  13.096 -0.0477  1.8624  1.7821
16879TIP3   OH272127   0.537   3.928  10.245  0.1119 -0.5915 -0.1593
16879TIP3    H172128   0.596   3.856  10.266  0.2835 -0.7941 -1.2831
16879TIP3    H272129   0.575   4.004  10.289 -0.4790 -1.2862  1.6816
16880TIP3   OH272130   0.989   4.488  15.002 -0.5311  0.2454  0.2180
16880TIP3    H172131   0.959   4.578  14.991 -2.2344 -0.1683  0.9848
16880TIP3    H272132   1.076   4.495  15.039  0.2621  1.5578 -1.7512
16881TIP3   OH272133   1.310   5.078   1.296  0.1104 -0.0935  0.8972
16881TIP3    H172134   1.340   5.022   1.224  1.0730  1.2925  0.1615
16881TIP3    H272135   1.390   5.102   1.342 -0.4792 -0.7746  2.3322
16882TIP3   OH272136   5.162   0.326  15.390  0.4079  0.1053 -0.4768
16882TIP3    H172137   5.212   0.268  15.446 -0.4266 -1.6988 -1.5151
16882TIP3    H272138   5.079   0.339  15.436  0.7319  0.7927 -0.0762
16883TIP3   OH272139   2.251   2.345  12.289 -0.4853 -0.4528 -0.1607
16883TIP3    H172140   2.268   2.305  12.375 -0.8903  0.8836  0.5636
16883TIP3    H272141   2.156   2.356  12.286 -0.5543 -1.2308 -1.1351
16884TIP3   OH272142   4.403   1.145   6.438  0.0273 -0.2545  0.2862
16884TIP3    H172143   4.430   1.214   6.498 -1.2957  0.7534 -0.2412
16884TIP3    H272144   4.447   1.166   6.355 -0.6047  0.1474  0.0428
16885TIP3   OH272145   5.617   0.788   4.954  0.2081  0.3787  0.1874
16885TIP3    H172146   5.581   0.702   4.974  1.0604 -0.0678 -0.1267
16885TIP3    H272147   5.583   0.809   4.867 -1.6696  1.3078  1.0910
16886TIP3   OH272148   6.473   6.203  14.482 -0.5173 -0.0751 -0.1358
16886TIP3    H172149   6.471   6.170  14.392  0.9686  0.5558 -0.4316
16886TIP3    H272150   6.551   6.164  14.520 -1.1200 -0.3164  0.8979
16887TIP3   OH272151   6.058   6.173   5.887 -0.0759  0.5234  0.9762
16887TIP3    H172152   6.000   6.112   5.934 -0.5163  0.0584 -0.1223
16887TIP3    H272153   6.045   6.257   5.931 -0.4092  0.0853  1.7344
16888TIP3   OH272154   2.643   3.758  12.511  0.4502  0.6069 -0.4757
16888TIP3    H172155   2.723   3.787  12.466 -0.8786 -0.5717 -3.8750
16888TIP3    H272156   2.583   3.832  12.501 -0.1904 -0.0472 -1.6640
16889TIP3   OH272157   1.107   3.060   2.979 -0.4730 -0.5817  0.1682
16889TIP3    H172158   1.145   3.074   3.066 -1.8827 -0.0680  0.7232
16889TIP3    H272159   1.024   3.107   2.981  0.0497  0.5195 -1.9210
16890TIP3   OH272160   2.898   6.354   2.968 -0.1210  0.0369 -0.2240
16890TIP3    H172161   2.971   6.374   3.027 -1.0035 -1.7045  1.5880
16890TIP3    H272162   2.879   6.262   2.984 -3.0816  0.5528 -0.1996
16891TIP3   OH272163   1.641   5.458   4.839  0.2810 -0.0340  0.2519
16891TIP3    H172164   1.680   5.521   4.901 -0.4905  2.4634 -1.6357
16891TIP3    H272165   1.698   5.463   4.762 -0.9473 -0.0830 -0.6794
16892TIP3   OH272166   2.253   3.974   3.927  0.5433 -0.2111  0.4777
16892TIP3    H172167   2.210   4.033   3.989 -0.5045 -0.4504 -0.0134
16892TIP3    H272168   2.258   4.025   3.846  0.7367 -0.3682  0.3907
16893TIP3   OH272169   2.351   5.387  12.400 -0.0384  0.2387  0.0525
16893TIP3    H172170   2.339   5.435  12.482  1.3370  2.1558 -0.7904
16893TIP3    H272171   2.310   5.443  12.333 -0.7546 -1.0784 -0.6419
16894TIP3   OH272172   0.779   3.582  14.933  0.3338  0.1741  0.2102
16894TIP3    H172173   0.865   3.620  14.952  0.2633 -0.7775  2.6754
16894TIP3    H272174   0.717   3.640  14.978 -0.2728  0.3399 -0.8048
16895TIP3   OH272175   1.727   1.664  16.715 -0.2947  0.4869  0.5346
16895TIP3    H172176   1.760   1.617  16.792 -0.5582  1.0193  0.9761
16895TIP3    H272177   1.693   1.747  16.750 -1.6885  0.1538  0.0324
16896TIP3   OH272178   5.187   1.951   1.108  0.1402  0.0552  0.1964
16896TIP3    H172179   5.255   1.969   1.173  0.3662 -1.5741  0.4506
16896TIP3    H272180   5.234   1.911   1.035 -0.1245  1.7644 -0.9585
16897TIP3   OH272181   5.184   3.901   4.806 -0.0003 -0.0149 -0.3976
16897TIP3    H172182   5.090   3.886   4.805 -0.1169  0.4847  0.8095
16897TIP3    H272183   5.223   3.814   4.803 -0.4863 -0.2232 -0.8843
16898TIP3   OH272184   3.846   3.537  12.101 -0.0029  0.9137  0.2558
16898TIP3    H172185   3.803   3.545  12.186  1.0652 -0.9932  1.0697
16898TIP3    H272186   3.873   3.445  12.097 -0.3893  0.8347 -2.3588
16899TIP3   OH272187   3.484   0.437   3.499  0.3568  0.2174  0.3843
16899TIP3    H172188   3.554   0.385   3.459  0.3476  1.2705 -1.0784
16899TIP3    H272189   3.404   0.407   3.454 -0.1651 -0.9115  1.9755
16900TIP3   OH272190   0.328   1.951  11.473 -0.3048 -0.1157 -0.1849
16900TIP3    H172191   0.333   2.002  11.392  2.6790 -1.4604 -0.9485
16900TIP3    H272192   0.348   1.862  11.447  0.2729 -0.6696  1.9909
16901TIP3   OH272193   0.204   3.505   2.016 -0.3849  0.1970  0.2983
16901TIP3    H172194   0.121   3.505   1.968 -0.8380 -0.7952  1.0339
16901TIP3    H272195   0.266   3.462   1.957  0.0040  2.1854 -0.8315
16902TIP3   OH272196   6.620   6.032   5.512  0.1605 -0.3561 -0.1309
16902TIP3    H172197   6.611   6.020   5.607  1.6036  1.2187  0.2570
16902TIP3    H272198   6.712   6.013   5.494 -0.8287 -4.7722 -2.0128
16903TIP3   OH272199   4.240   6.725  16.602 -0.1289 -0.2293 -0.0265
16903TIP3    H172200   4.333   6.703  16.601  0.3448  1.4651  1.5036
16903TIP3    H272201   4.225   6.763  16.688 -1.4812  2.5742 -1.3477
16904TIP3   OH272202   1.300   0.998  16.439 -0.5078 -0.1500 -0.2981
16904TIP3    H172203   1.314   0.913  16.481 -2.2718  0.2830  1.3408
16904TIP3    H272204   1.371   1.053  16.473 -0.2335 -0.5762 -0.1709
16905TIP3   OH272205   1.171   5.302   5.650 -0.2793  0.0124 -0.4607
16905TIP3    H172206   1.142   5.275   5.737  2.0754 -0.1830  0.3334
16905TIP3    H272207   1.094   5.290   5.595 -1.4916 -1.0673  1.3366
16906TIP3   OH272208   1.284   1.702  14.630  0.2162  0.0345 -0.0176
16906TIP3    H172209   1.222   1.630  14.621 -0.7720  1.0045 -1.3831
16906TIP3    H272210   1.361   1.663  14.672  0.0629 -2.0100 -1.5250
16907TIP3   OH272211   6.608   1.879  14.545 -0.0254 -0.1753  0.1314
16907TIP3    H172212   6.703   1.890  14.537  0.0273  1.3500  2.0349
16907TIP3    H272213   6.571   1.958  14.506 -0.3401  0.5424  1.7844
16908TIP3   OH272214   0.326   2.761  14.046  0.0312 -0.0434 -0.3663
16908TIP3    H172215   0.292   2.767  13.956  1.4542 -1.0693 -1.0207
16908TIP3    H272216   0.292   2.838  14.090 -1.8113 -0.2215 -1.3994
16909TIP3   OH272217   2.766   4.885   3.372  0.1750  0.1974 -0.2210
16909TIP3    H172218   2.718   4.803   3.383 -0.3223  0.4247 -0.6692
16909TIP3    H272219   2.741   4.938   3.448  2.0677 -0.7955  1.2015
16910TIP3   OH272220   3.981   1.120   1.099  0.1955  0.3311  0.8301
16910TIP3    H172221   4.074   1.126   1.078  0.0403  1.3362  0.3915
16910TIP3    H272222   3.966   1.026   1.113  1.1969  0.1195  0.5678
16911TIP3   OH272223   5.256   1.954   5.777 -0.0067 -0.1725 -0.2444
16911TIP3    H172224   5.168   1.943   5.815  0.6759 -3.4885  0.7039
16911TIP3    H272225   5.308   1.991   5.848 -0.9305  4.0551 -1.4800
16912TIP3   OH272226   6.409   5.092   2.238 -0.3405  0.1808 -0.2990
16912TIP3    H172227   6.397   5.003   2.205  1.1622 -0.2985  0.3769
16912TIP3    H272228   6.473   5.084   2.308 -1.9037  1.4673  1.3850
16913TIP3   OH272229   0.463   5.999  11.730 -0.3307  0.6407  0.1785
16913TIP3    H172230   0.538   6.021  11.786 -0.7434  0.1561  0.9357
16913TIP3    H272231   0.481   6.045  11.648  1.9213 -1.2141 -0.4838
16914TIP3   OH272232   3.860   6.470  15.263 -0.1529 -0.5154  0.3698
16914TIP3    H172233   3.775   6.510  15.281  0.2068  0.2256  0.4277
16914TIP3    H272234   3.887   6.507  15.179 -0.2788 -1.4201 -0.0925
16915TIP3   OH272235   6.540   5.224   0.540 -0.1350 -0.0609  0.3128
16915TIP3    H172236   6.458   5.235   0.588 -0.7499  0.7990 -0.8801
16915TIP3    H272237   6.517   5.241   0.448  1.3919  0.2470 -0.0452
16916TIP3   OH272238   6.733   1.256  14.715  0.1146 -0.2829  0.6198
16916TIP3    H172239   6.695   1.305  14.788 -0.6389 -2.3348  1.6866
16916TIP3    H272240   6.690   1.171  14.718 -0.1127 -0.3896 -2.4046
16917TIP3   OH272241   4.201   6.769   0.189  0.1231 -0.1157  0.4690
16917TIP3    H172242   4.117   6.788   0.145 -0.0298  1.1526  1.2402
16917TIP3    H272243   4.202   6.829   0.264  1.1457 -1.0421  1.2202
16918TIP3   OH272244   2.584   6.227   1.013  0.7135 -0.6303  0.1471
16918TIP3    H172245   2.592   6.268   1.100  1.7533  1.2778 -0.7809
16918TIP3    H272246   2.501   6.180   1.016  0.8795 -0.8733  2.2803
16919TIP3   OH272247   2.984   6.537  16.990 -0.0218 -0.3166  0.0809
16919TIP3    H172248   3.014   6.624  17.018 -2.3775  0.1398  1.5064
16919TIP3    H272249   3.033   6.476  17.046  0.6344  0.1525  0.0374
16920TIP3   OH272250   3.271   1.742   1.756 -0.4905  0.0097  0.5677
16920TIP3    H172251   3.278   1.650   1.780 -0.9065 -0.1108  0.2247
16920TIP3    H272252   3.208   1.778   1.818  0.7942  0.4222  1.7023
16921TIP3   OH272253   5.258   5.551   1.265  0.8183 -0.1003 -0.1806
16921TIP3    H172254   5.325   5.514   1.208  0.0200  0.3863 -1.4770
16921TIP3    H272255   5.186   5.488   1.261  0.6943  0.0196  0.1683
16922TIP3   OH272256   1.743   1.139  14.740  0.0864  0.0080  0.3133
16922TIP3    H172257   1.819   1.191  14.712 -0.1790 -0.3970 -1.2869
16922TIP3    H272258   1.781   1.069  14.794  0.7157  0.4601  0.4682
16923TIP3   OH272259   0.164   3.837   3.299 -0.2869 -0.6252  0.2335
16923TIP3    H172260   0.159   3.742   3.287 -0.9784 -0.6274  0.5432
16923TIP3    H272261   0.159   3.872   3.210 -0.5848 -0.8554  0.1569
16924TIP3   OH272262   4.572   0.459  17.206  0.2355  0.1661 -0.3098
16924TIP3    H172263   4.616   0.400  17.144 -1.0631 -0.3659 -0.7585
16924TIP3    H272264   4.571   0.544  17.162  0.8459  0.2034 -0.2665
16925TIP3   OH272265   2.297   2.477   3.684 -0.4601  0.3277  0.2597
16925TIP3    H172266   2.245   2.438   3.753 -0.8126 -1.1683 -0.7843
16925TIP3    H272267   2.235   2.494   3.613 -0.2061  2.3332  0.4498
16926TIP3   OH272268   5.100   4.070   3.323 -0.0373  0.1319  0.1860
16926TIP3    H172269   5.095   3.982   3.285  0.0192  0.3772 -0.3981
16926TIP3    H272270   5.019   4.079   3.372 -0.6277  0.2160 -0.7707
16927TIP3   OH272271   3.358   5.213  12.986 -0.3169  0.1266 -0.0061
16927TIP3    H172272   3.335   5.224  12.893 -2.1205 -1.7708  0.1433
16927TIP3    H272273   3.326   5.125  13.008  2.0641 -0.3637  1.8697
16928TIP3   OH272274   5.460   0.849  11.433  0.3084  0.6083 -0.7736
16928TIP3    H172275   5.536   0.833  11.377  0.6508 -2.1772  0.2995
16928TIP3    H272276   5.425   0.762  11.451 -1.4879  1.6125  1.0082
16929TIP3   OH272277   4.416   3.192   5.398  0.0818  0.1345  0.6673
16929TIP3    H172278   4.441   3.163   5.311 -0.1771 -0.9710  0.9410
16929TIP3    H272279   4.497   3.191   5.448  0.2251  0.7409  0.4511
16930TIP3   OH272280   2.634   6.654   4.611 -0.5468 -0.2526 -0.0988
16930TIP3    H172281   2.595   6.687   4.692  1.0632  0.1904  0.5303
16930TIP3    H272282   2.678   6.730   4.572 -1.0110 -0.5346 -1.2357
16931TIP3   OH272283   4.568   1.965   4.115 -0.0384  0.1574  0.4625
16931TIP3    H172284   4.570   1.911   4.194 -2.8539  0.0294  0.5348
16931TIP3    H272285   4.505   2.034   4.136 -0.5939  0.3067 -1.5741
16932TIP3   OH272286   1.882   4.634   3.267 -0.1646  0.1637 -0.8963
16932TIP3    H172287   1.926   4.707   3.224 -0.0961  0.9119  0.3874
16932TIP3    H272288   1.833   4.591   3.198  0.5565  0.8476 -1.8610
16933TIP3   OH272289   1.181   5.880  16.622  0.4746  0.7988 -0.1310
16933TIP3    H172290   1.274   5.901  16.633  0.6884 -0.4238  0.5805
16933TIP3    H272291   1.153   5.851  16.709 -0.1148 -0.5529 -0.7495
16934TIP3   OH272292   6.630   1.489  13.338  0.2561  0.1759  0.2601
16934TIP3    H172293   6.601   1.472  13.248  0.4148  0.6734  0.1081
16934TIP3    H272294   6.560   1.540  13.377 -0.1049 -0.5942  0.6299
16935TIP3   OH272295   2.019   6.713  16.227  0.4424 -0.1700  0.3898
16935TIP3    H172296   2.081   6.773  16.185 -1.3014  0.4224 -1.4983
16935TIP3    H272297   1.949   6.770  16.259 -0.4397 -1.0564  0.0658
16936TIP3   OH272298   2.473   6.369   5.366 -0.3693 -0.4330 -0.6132
16936TIP3    H172299   2.453   6.285   5.323  1.1140 -0.2189 -1.7883
16936TIP3    H272300   2.461   6.434   5.297  0.2811  0.1210 -0.2040
16937TIP3   OH272301   3.009   2.055   0.192  0.2790 -0.5028 -0.0381
16937TIP3    H172302   3.068   2.117   0.234  1.7529 -1.9941  0.1683
16937TIP3    H272303   2.930   2.056   0.246 -0.8505  3.0639 -1.4631
16938TIP3   OH272304   1.406   3.205  17.054  0.4283  0.8335  0.2747
16938TIP3    H172305   1.495   3.172  17.043 -0.1708 -0.6817 -0.2567
16938TIP3    H272306   1.358   3.170  16.979 -1.1210 -0.1701  1.6614
16939TIP3   OH272307   1.182   2.835  15.520 -0.0026 -0.2742 -0.0403
16939TIP3    H172308   1.215   2.746  15.507  0.8818 -0.1017  0.8738
16939TIP3    H272309   1.087   2.827  15.514  0.0820 -1.2437 -0.1824
16940TIP3   OH272310   4.289   1.786   1.197 -0.3685  0.2655 -0.0368
16940TIP3    H172311   4.242   1.716   1.152 -0.0755  0.3872 -0.5501
16940TIP3    H272312   4.296   1.856   1.132 -0.4361  0.6691  0.3893
16941TIP3   OH272313   2.653   5.018   6.525  0.6204  0.4158  0.4991
16941TIP3    H172314   2.649   5.017   6.620  2.5958  1.2101  0.6288
16941TIP3    H272315   2.564   4.995   6.497  0.3222 -1.1277  2.4948
16942TIP3   OH272316   1.578   2.218  11.670 -0.2753 -0.1567 -0.4223
16942TIP3    H172317   1.517   2.250  11.736 -0.1943 -0.8706  0.0024
16942TIP3    H272318   1.548   2.130  11.650  0.3066 -0.3219 -0.5880
16943TIP3   OH272319   0.561   2.990  11.891  0.2470  0.0893  0.3968
16943TIP3    H172320   0.573   3.006  11.797 -0.6116 -0.9251  0.0892
16943TIP3    H272321   0.605   2.907  11.907 -0.3953 -0.2005  0.6927
16944TIP3   OH272322   0.212   3.331  11.831  0.4275 -0.0554 -0.5964
16944TIP3    H172323   0.298   3.346  11.870 -0.4913  1.0630  1.1051
16944TIP3    H272324   0.183   3.418  11.803  0.0710 -0.5090 -1.6714
16945TIP3   OH272325   0.343   0.947  15.236  0.3101  0.3612  0.0372
16945TIP3    H172326   0.310   1.036  15.220 -0.7833 -0.0985 -0.4345
16945TIP3    H272327   0.425   0.942  15.187 -0.3960  0.6467 -1.2204
16946TIP3   OH272328   0.788   6.476   1.749 -0.1240  0.0004 -0.0929
16946TIP3    H172329   0.839   6.399   1.774  0.8170  0.7875  0.5009
16946TIP3    H272330   0.705   6.466   1.797 -0.0327 -0.6543 -0.0605
16947TIP3   OH272331   6.658   5.661  16.421 -0.3893 -0.7111 -0.3281
16947TIP3    H172332   6.666   5.722  16.494  1.6308  0.4515 -1.4398
16947TIP3    H272333   6.740   5.611  16.423 -0.8653 -1.5376 -1.0477
16948TIP3   OH272334   1.659   4.788   3.713 -0.1837 -0.4890 -0.3923
16948TIP3    H172335   1.670   4.775   3.619  0.5232  0.7028 -0.4938
16948TIP3    H272336   1.679   4.880   3.727 -0.8585 -0.5076  0.8529
16949TIP3   OH272337   5.325   2.459   1.280 -0.5778  0.1427 -0.8526
16949TIP3    H172338   5.374   2.409   1.346 -0.0519 -1.4037 -2.3490
16949TIP3    H272339   5.334   2.550   1.307  0.2939 -0.3871  0.7568
16950TIP3   OH272340   1.528   3.115   3.991  0.3854  0.0026  0.4289
16950TIP3    H172341   1.588   3.160   3.932 -1.5846  0.7750 -1.0999
16950TIP3    H272342   1.530   3.168   4.071  1.2221  0.3949  0.1570
16951TIP3   OH272343   2.305   1.400   2.409 -0.0404 -0.9219 -0.3056
16951TIP3    H172344   2.224   1.440   2.378 -0.3257 -1.3896 -0.1591
16951TIP3    H272345   2.365   1.409   2.334 -1.0644 -3.0590 -1.4851
16952TIP3   OH272346   1.169   2.077  16.745  0.0767  0.7017 -0.1531
16952TIP3    H172347   1.108   2.053  16.675  0.0611 -0.4165  0.2127
16952TIP3    H272348   1.241   2.122  16.701 -1.4805  3.0167 -0.4802
16953TIP3   OH272349   4.889   4.601   5.929 -0.1645  0.0726 -0.0534
16953TIP3    H172350   4.867   4.578   5.839 -0.6685 -2.2131  0.5949
16953TIP3    H272351   4.984   4.594   5.933 -0.1925 -0.4320 -0.2567
16954TIP3   OH272352   3.904   5.814   1.499 -0.9419  0.4652  0.5730
16954TIP3    H172353   3.978   5.754   1.501 -0.3910  1.0445 -0.8067
16954TIP3    H272354   3.828   5.759   1.519 -0.3191 -0.4543  0.4705
16955TIP3   OH272355   5.031   3.019  17.024  0.1270  0.1751 -0.4959
16955TIP3    H172356   4.970   2.994  17.094 -0.3484  0.1901 -0.8975
16955TIP3    H272357   5.000   3.105  16.995  0.5768  0.3591 -0.4438
16956TIP3   OH272358   2.546   0.277  15.020 -0.2737 -0.3922  0.0269
16956TIP3    H172359   2.577   0.194  14.983 -0.4550  0.0379 -1.1570
16956TIP3    H272360   2.470   0.253  15.073 -0.0416 -1.0400  0.0707
16957TIP3   OH272361   2.976   3.498  11.237  0.2288 -0.4968 -0.0223
16957TIP3    H172362   3.049   3.511  11.177 -0.7334 -1.1368 -1.3776
16957TIP3    H272363   2.915   3.568  11.216  0.5379  0.2130  1.3029
16958TIP3   OH272364   0.480   3.552  16.238  0.4004 -0.1535  0.9504
16958TIP3    H172365   0.573   3.572  16.236  0.2984  0.3049 -0.2904
16958TIP3    H272366   0.452   3.574  16.327  0.9490  2.3326  0.5901
16959TIP3   OH272367   2.620   3.898   1.943  0.5389  0.3660  0.3164
16959TIP3    H172368   2.626   3.835   1.872  1.5177  0.0006  0.7058
16959TIP3    H272369   2.619   3.983   1.899 -2.1646  0.1031 -0.2884
16960TIP3   OH272370   0.254   6.535  17.165 -0.9142 -0.3616 -0.6542
16960TIP3    H172371   0.336   6.535  17.115 -1.3158  1.9144 -1.4667
16960TIP3    H272372   0.258   6.456  17.219  1.1669 -1.0359 -1.6899
16961TIP3   OH272373   3.965   0.857   2.550 -0.2620  0.3526  0.4101
16961TIP3    H172374   3.922   0.916   2.488  0.2712 -0.7167 -1.0311
16961TIP3    H272375   3.900   0.789   2.567  0.3504 -0.5746 -0.7793
16962TIP3   OH272376   6.548   0.778  15.226  0.4182  0.2351  0.5944
16962TIP3    H172377   6.518   0.771  15.317  0.9058 -1.1111  0.6633
16962TIP3    H272378   6.482   0.731  15.175 -0.4734  1.9570  0.0762
16963TIP3   OH272379   1.615   3.088  16.568 -0.3021 -0.0766  0.1109
16963TIP3    H172380   1.704   3.079  16.603  0.8441  0.6119 -2.3704
16963TIP3    H272381   1.563   3.025  16.618  1.7134 -0.9610  1.2189
16964TIP3   OH272382   2.426   5.354  17.011 -0.2311  0.0686  0.6082
16964TIP3    H172383   2.485   5.401  16.953 -0.0412 -1.3294 -0.3628
16964TIP3    H272384   2.460   5.371  17.099 -0.6150  2.3332  0.3879
16965TIP3   OH272385   4.075   6.255  15.274  0.2473 -0.2351  0.1080
16965TIP3    H172386   4.003   6.198  15.302 -0.7750  0.1342 -1.6121
16965TIP3    H272387   4.032   6.334  15.242  1.3992 -0.0936 -1.1586
16966TIP3   OH272388   4.244   1.900  15.204  0.3944  0.3271 -0.8026
16966TIP3    H172389   4.335   1.902  15.174  1.3016  0.0207  1.6799
16966TIP3    H272390   4.244   1.836  15.275 -1.5253  1.1163 -0.0274
16967TIP3   OH272391   6.749   4.022  11.326 -0.9883 -0.7436  0.3164
16967TIP3    H172392   6.706   3.951  11.374 -0.1337 -1.6817 -0.2579
16967TIP3    H272393   6.679   4.065  11.277 -1.4233 -1.5934  0.1872
16968TIP3   OH272394   5.933   2.109  15.223  0.3745  0.2190 -0.2614
16968TIP3    H172395   5.858   2.160  15.192 -0.0738  0.6363  1.4129
16968TIP3    H272396   5.980   2.168  15.282  0.5194 -0.8876  0.7843
16969TIP3   OH272397   4.107   0.390   0.650 -0.4809 -0.3595 -0.4801
16969TIP3    H172398   4.113   0.296   0.668 -3.0561 -0.2516  1.5923
16969TIP3    H272399   4.036   0.398   0.587 -1.9111  0.2879  1.1497
16970TIP3   OH272400   5.001   4.845  15.805  0.1153  0.1507 -0.4269
16970TIP3    H172401   4.976   4.888  15.723 -0.3999  0.1132 -0.2949
16970TIP3    H272402   4.922   4.850  15.859  0.6514  0.7487  0.3097
16971TIP3   OH272403   0.859   1.200   1.346  0.1259  0.0108 -0.0137
16971TIP3    H172404   0.859   1.182   1.440  2.6600  2.3246  0.5656
16971TIP3    H272405   0.923   1.139   1.310 -0.8441 -0.8749 -0.2689
16972TIP3   OH272406   3.906   2.844   4.198  0.1029 -0.5916 -0.0035
16972TIP3    H172407   3.860   2.769   4.159 -1.2863 -0.3106  1.0270
16972TIP3    H272408   3.923   2.818   4.288 -0.9233  0.5398  0.5419
16973TIP3   OH272409   6.479   3.511   1.507 -0.9607  0.1739  0.2895
16973TIP3    H172410   6.498   3.604   1.499 -3.2032  0.6054 -0.6002
16973TIP3    H272411   6.463   3.497   1.600 -1.0103  0.7518  0.3658
16974TIP3   OH272412   3.948   0.955   4.006 -0.3474 -0.0065 -0.5304
16974TIP3    H172413   3.963   0.863   3.987  1.6466 -0.1539  1.2605
16974TIP3    H272414   3.935   0.958   4.101  1.1276  1.6463 -0.3132
16975TIP3   OH272415   3.356   5.658  13.648 -0.0908  0.1783 -0.1675
16975TIP3    H172416   3.306   5.695  13.575 -1.6439  4.1113  2.5630
16975TIP3    H272417   3.296   5.660  13.722  2.3186 -0.6758  1.9581
16976TIP3   OH272418   2.226   4.950   0.092 -0.4027 -0.4325  0.3748
16976TIP3    H172419   2.307   4.942   0.143 -0.9977 -2.6595  1.0842
16976TIP3    H272420   2.217   5.044   0.076  2.0502 -0.0814  0.6929
16977TIP3   OH272421   2.927   1.863   1.499  0.3840  0.6185  0.1937
16977TIP3    H172422   2.984   1.863   1.422  1.2929  1.2325  0.8501
16977TIP3    H272423   2.918   1.956   1.522 -0.6965  0.5196  0.2453
16978TIP3   OH272424   2.129   5.983  15.974  0.1420  0.8358  0.4104
16978TIP3    H172425   2.073   5.935  16.036 -0.7369  1.7860  0.3888
16978TIP3    H272426   2.069   6.043  15.930  1.0800  1.4201 -0.0982
16979TIP3   OH272427   1.089   2.479  13.026  0.5334  0.1330 -0.2320
16979TIP3    H172428   1.063   2.563  13.063 -0.2206 -0.8080  1.4823
16979TIP3    H272429   1.184   2.488  13.012  0.4165  1.3569 -0.3664
16980TIP3   OH272430   3.673   3.695   3.538 -0.3220  0.2360 -0.5403
16980TIP3    H172431   3.676   3.694   3.633  1.6449 -1.3131 -0.5504
16980TIP3    H272432   3.581   3.714   3.516 -0.5762  1.7977  1.6053
16981TIP3   OH272433   0.660   0.826   6.211 -0.5414 -1.1056  0.2797
16981TIP3    H172434   0.741   0.869   6.235 -0.2692 -1.1783 -0.4872
16981TIP3    H272435   0.617   0.806   6.295 -0.2413 -0.1850  0.6578
16982TIP3   OH272436   6.449   2.634  13.316  0.5013 -0.3278 -0.2529
16982TIP3    H172437   6.498   2.603  13.239  0.8609  1.4114 -0.7558
16982TIP3    H272438   6.390   2.701  13.281 -0.6602 -0.8189  0.7166
16983TIP3   OH272439   0.390   5.580  13.653  0.0603  0.5415  0.5270
16983TIP3    H172440   0.470   5.561  13.604 -0.6530  0.5093 -0.6691
16983TIP3    H272441   0.323   5.524  13.613 -0.0698 -1.4445  3.2296
16984TIP3   OH272442   6.540   2.020  12.217  0.0149 -0.5032 -0.4108
16984TIP3    H172443   6.595   2.071  12.157  1.9024 -1.9734 -0.0319
16984TIP3    H272444   6.471   1.984  12.161  0.9622 -0.7557 -1.4546
16985TIP3   OH272445   5.391   2.301  14.493 -0.0102 -0.2941  0.2157
16985TIP3    H172446   5.396   2.366  14.563  1.0134 -0.3867  0.2329
16985TIP3    H272447   5.297   2.296  14.473 -0.4202 -0.8337  2.0855
16986TIP3   OH272448   1.254   5.923   5.961  0.0970  0.4611 -0.1340
16986TIP3    H172449   1.218   5.914   6.050  0.9894  0.4402  0.2399
16986TIP3    H272450   1.245   6.016   5.941  0.3228  0.5503  0.1686
16987TIP3   OH272451   6.649   4.581  15.974 -0.1381  0.0768 -0.4397
16987TIP3    H172452   6.622   4.492  15.949  1.5836 -0.7300  0.4182
16987TIP3    H272453   6.593   4.602  16.049 -0.1927 -0.5044 -0.3090
16988TIP3   OH272454   1.987   3.546  14.321  0.4211  0.3205 -0.1632
16988TIP3    H172455   2.003   3.455  14.345 -0.9805  0.0149 -0.2643
16988TIP3    H272456   1.940   3.583  14.396  1.8398  1.2706  0.3018
16989TIP3   OH272457   2.122   2.274   0.677  0.3948  0.5365  0.0589
16989TIP3    H172458   2.167   2.200   0.637 -1.5242 -1.1943  0.8881
16989TIP3    H272459   2.192   2.329   0.712  1.9097 -1.3927  0.2724
16990TIP3   OH272460   3.506   4.681   3.405 -0.8606  0.5531  0.2103
16990TIP3    H172461   3.541   4.675   3.494  1.0872  0.9758 -0.4760
16990TIP3    H272462   3.445   4.608   3.398  1.0484 -1.2208  1.0415
16991TIP3   OH272463   1.510   1.122   4.440  0.5940 -0.5105  0.5738
16991TIP3    H172464   1.510   1.164   4.354  0.0807  0.2132  0.9204
16991TIP3    H272465   1.501   1.194   4.502 -1.8977 -1.1983  1.1243
16992TIP3   OH272466   2.672   5.148  15.700  0.5364 -0.3809 -0.5203
16992TIP3    H172467   2.749   5.120  15.649  0.2637  0.8959 -1.6874
16992TIP3    H272468   2.605   5.083  15.679  0.7824 -0.5316 -0.8611
16993TIP3   OH272469   5.088   1.665  13.382  0.1958  0.0026  0.2562
16993TIP3    H172470   5.041   1.729  13.329 -0.2714 -0.1531  0.4786
16993TIP3    H272471   5.127   1.717  13.452 -2.7535 -0.2718  2.2764
16994TIP3   OH272472   4.164   4.601  15.393 -0.2367  0.1236 -0.3056
16994TIP3    H172473   4.097   4.638  15.451 -0.5245 -0.5207 -0.2145
16994TIP3    H272474   4.218   4.675  15.367 -1.1041  0.6850 -0.5257
16995TIP3   OH272475   1.268   6.625  11.129  0.0156  0.0558 -0.0239
16995TIP3    H172476   1.343   6.610  11.186  1.4690  1.5672 -1.4075
16995TIP3    H272477   1.193   6.590  11.177  1.7845 -3.0421  0.7214
16996TIP3   OH272478   4.496   2.133   3.442  0.1433  0.3324  0.1550
16996TIP3    H172479   4.438   2.200   3.479  1.6031  1.7643 -0.0144
16996TIP3    H272480   4.441   2.086   3.380 -1.1811  0.7735  0.9358
16997TIP3   OH272481   0.789   6.281   6.359 -0.4750  0.1936 -0.2094
16997TIP3    H172482   0.695   6.299   6.362 -0.0938  2.5432 -0.2747
16997TIP3    H272483   0.830   6.360   6.396  1.4854 -0.7948 -0.1057
16998TIP3   OH272484   1.288   6.403   0.361  0.1581  0.2898 -0.4310
16998TIP3    H172485   1.235   6.360   0.429 -1.7814  0.6459 -1.6312
16998TIP3    H272486   1.300   6.336   0.294  2.5892 -0.2487  0.4595
16999TIP3   OH272487   2.734   5.958  13.016 -0.2851 -0.0598  0.1374
16999TIP3    H172488   2.722   6.043  13.058 -0.6715  0.0574 -0.1967
16999TIP3    H272489   2.798   5.913  13.070 -1.9219 -0.5464  1.7876
17000TIP3   OH272490   1.087   2.645   3.152  0.5165  0.3390 -0.0576
17000TIP3    H172491   1.015   2.707   3.141  0.0778  0.2310  1.8522
17000TIP3    H272492   1.162   2.699   3.176  0.1996  0.1954  1.3400
17001TIP3   OH272493   3.785   4.160  16.281  0.1591  0.0069  0.4248
17001TIP3    H172494   3.724   4.149  16.354  0.2494 -0.0786  0.4880
17001TIP3    H272495   3.790   4.073  16.241  0.7326 -0.1427  0.8115
17002TIP3   OH272496   0.944   3.933   5.145  0.2417  0.0326  0.3043
17002TIP3    H172497   0.910   3.897   5.063 -0.9630  0.6519  0.5018
17002TIP3    H272498   0.912   3.872   5.212 -0.4353  0.5606  0.4804
17003TIP3   OH272499   1.343   3.523   4.471  0.2589  0.3146 -0.0025
17003TIP3    H172500   1.303   3.496   4.388 -1.9453  1.5006  0.5837
17003TIP3    H272501   1.374   3.611   4.455 -0.5315  0.7018  0.4938
17004TIP3   OH272502   5.134   3.282   3.982  0.1161  0.0703  0.1290
17004TIP3    H172503   5.075   3.314   3.913 -0.6041 -0.6235  0.3982
17004TIP3    H272504   5.083   3.213   4.026  0.9407 -0.1773  0.7121
17005TIP3   OH272505   1.723   5.900  13.302 -0.2356 -0.4488  0.1933
17005TIP3    H172506   1.640   5.856  13.288  0.2666 -1.4287  0.1867
17005TIP3    H272507   1.745   5.938  13.217  0.0854 -1.5493 -0.2237
17006TIP3   OH272508   6.823   0.448  15.159  0.3798  0.1504  0.2738
17006TIP3    H172509   6.814   0.353  15.156 -0.0469  0.1843  0.5117
17006TIP3    H272510   6.735   0.481  15.143  0.0064  0.4816  2.7276
17007TIP3   OH272511   0.402   4.937   2.027  0.4587  0.0817 -0.1253
17007TIP3    H172512   0.467   4.903   2.089 -0.6175  0.6402  1.3688
17007TIP3    H272513   0.443   5.016   1.991  1.4055 -0.6611 -0.7376
17008TIP3   OH272514   5.691   1.855  14.969 -0.5145  0.0885 -0.0099
17008TIP3    H172515   5.765   1.800  14.946 -0.3354 -0.2936  1.4058
17008TIP3    H272516   5.616   1.796  14.970 -0.5044  0.0766  0.4298
17009TIP3   OH272517   0.588   2.280   2.112 -0.2190  0.1446  0.2508
17009TIP3    H172518   0.670   2.275   2.062 -0.6862  0.8000 -0.6083
17009TIP3    H272519   0.519   2.278   2.046 -0.8579  1.0505  0.8700
17010TIP3   OH272520   3.583   2.661  13.565 -0.0230  0.4417  0.0186
17010TIP3    H172521   3.557   2.595  13.501 -2.1761 -1.7871  2.8935
17010TIP3    H272522   3.645   2.616  13.622 -1.1585  0.9572  1.7534
17011TIP3   OH272523   2.871   3.368  12.166 -0.2633 -0.7449 -0.3495
17011TIP3    H172524   2.933   3.398  12.100 -0.8829 -1.5529 -1.3258
17011TIP3    H272525   2.872   3.437  12.233  0.0177  0.3437 -1.4426
17012TIP3   OH272526   2.396   4.447  15.918  0.4231  0.2619 -0.1853
17012TIP3    H172527   2.453   4.371  15.911  0.4540  0.2899 -0.2313
17012TIP3    H272528   2.350   4.434  16.001  1.7089  1.0743  0.6907
17013TIP3   OH272529   2.897   6.365  12.898 -0.3807 -0.0722 -0.2256
17013TIP3    H172530   2.960   6.326  12.838 -0.0098  0.7482 -0.3817
17013TIP3    H272531   2.950   6.409  12.964 -0.7497  1.2233 -0.7446
17014TIP3   OH272532   1.979   0.025   3.917  0.4548 -0.3446  0.1887
17014TIP3    H172533   1.923  -0.052   3.932  0.4822 -0.1746  1.2263
17014TIP3    H272534   1.993   0.026   3.822 -0.3128 -1.0836  0.0516
17015TIP3   OH272535   6.285   3.493  12.973  0.4829 -0.4350  0.1976
17015TIP3    H172536   6.242   3.407  12.966  1.0065 -0.5642 -2.2538
17015TIP3    H272537   6.376   3.473  12.995  0.3271 -0.4252  0.8623
17016TIP3   OH272538   6.509   5.295  14.771  0.5157  0.9074  0.0323
17016TIP3    H172539   6.534   5.385  14.793 -0.5840  1.0500  0.7563
17016TIP3    H272540   6.430   5.279  14.822 -0.0614 -0.0141 -1.1161
17017TIP3   OH272541   6.420   3.016   2.080 -0.2054 -0.5933  0.0491
17017TIP3    H172542   6.493   2.956   2.095  1.5763  1.3447 -0.2766
17017TIP3    H272543   6.393   3.043   2.167 -0.5791 -1.3469  0.1738
17018TIP3   OH272544   1.587   4.383  16.542  0.4804  0.2255  0.0214
17018TIP3    H172545   1.669   4.411  16.582  0.8563 -0.3553 -0.3353
17018TIP3    H272546   1.526   4.455  16.559  1.0032  0.5672  0.4659
17019TIP3   OH272547   0.719   5.363  15.023  0.0894 -0.3461 -0.1850
17019TIP3    H172548   0.731   5.374  14.928 -0.2731  2.0811 -0.0273
17019TIP3    H272549   0.795   5.312  15.051  1.2296  0.5340 -1.5280
17020TIP3   OH272550   6.276   2.770   4.013 -0.4075 -0.1557 -0.4732
17020TIP3    H172551   6.240   2.834   4.075 -1.2601 -0.8107 -0.2734
17020TIP3    H272552   6.279   2.817   3.930 -0.3213  0.3786 -0.1746
17021TIP3   OH272553   0.248   4.475   3.948  0.3505 -0.0832  1.0159
17021TIP3    H172554   0.274   4.413   3.881  0.4864  1.7513 -0.7344
17021TIP3    H272555   0.186   4.534   3.905 -2.4597 -0.9294  3.5305
17022TIP3   OH272556   2.452   1.009   1.679 -0.1604 -0.1393  0.0456
17022TIP3    H172557   2.440   1.097   1.642 -0.2870  0.3827  1.2617
17022TIP3    H272558   2.546   1.000   1.689 -0.1352 -0.2200 -0.2539
17023TIP3   OH272559   4.496   5.170   6.178  0.0944 -0.1499 -0.3925
17023TIP3    H172560   4.488   5.263   6.200  1.0739  0.0203 -0.7055
17023TIP3    H272561   4.565   5.167   6.111 -0.1359 -1.0705 -0.6013
17024TIP3   OH272562   5.927   0.572   0.614 -0.9830 -0.2645  0.3373
17024TIP3    H172563   5.876   0.518   0.554 -4.2426  1.2844  1.4600
17024TIP3    H272564   5.902   0.541   0.701 -0.5162  0.9824  0.9442
17025TIP3   OH272565   2.942   3.422   2.091 -0.1122 -0.0246  0.2279
17025TIP3    H172566   2.861   3.471   2.102  1.5077  2.8438  0.3455
17025TIP3    H272567   2.960   3.384   2.177 -1.2083 -0.5500  0.2342
17026TIP3   OH272568   1.266   2.180   2.981  0.0775  0.2061 -0.0633
17026TIP3    H172569   1.237   2.204   3.069  3.5269  0.9971  1.0144
17026TIP3    H272570   1.209   2.230   2.922 -2.0758 -0.0518  1.6638
17027TIP3   OH272571   1.851   5.816  16.780  0.3469  0.1157 -0.0804
17027TIP3    H172572   1.861   5.762  16.859 -1.1737  0.9345  0.7283
17027TIP3    H272573   1.937   5.817  16.740  1.3572  0.2462  1.9805
17028TIP3   OH272574   3.444   2.629  14.365  0.2479  0.6005 -0.2527
17028TIP3    H172575   3.358   2.591  14.350  0.2822 -0.1980  1.2953
17028TIP3    H272576   3.430   2.694  14.434  0.8398  0.5928 -0.1136
17029TIP3   OH272577   1.886   4.236  16.354 -0.1630  0.5001 -0.3289
17029TIP3    H172578   1.958   4.196  16.305  1.1364  0.2585  1.6716
17029TIP3    H272579   1.810   4.226  16.297  0.7037 -2.2249 -1.1471
17030TIP3   OH272580   3.931   2.718   4.785  0.0747 -0.2205  0.0955
17030TIP3    H172581   3.954   2.692   4.696 -2.7053 -0.3616 -0.6748
17030TIP3    H272582   3.959   2.644   4.839  0.7554 -0.6343 -0.7935
17031TIP3   OH272583   4.205   6.089   4.570 -0.0331  0.7783 -0.1658
17031TIP3    H172584   4.131   6.107   4.512  0.6611 -0.6760 -1.5959
17031TIP3    H272585   4.176   6.119   4.656 -0.9730  3.3869 -1.2794
17032TIP3   OH272586   6.569   0.179   2.311 -0.5173  0.0899  0.1502
17032TIP3    H172587   6.641   0.187   2.373 -0.7371 -1.6811  0.6943
17032TIP3    H272588   6.597   0.228   2.234  1.6880 -1.3435 -0.0227
17033TIP3   OH272589   3.678   5.243   4.027 -0.4436 -0.3720 -0.2072
17033TIP3    H172590   3.727   5.282   4.099 -1.1190  0.1939 -0.0409
17033TIP3    H272591   3.587   5.268   4.044 -0.6240 -0.3346 -1.1833
17034TIP3   OH272592   3.288   2.509  13.750 -0.7645  0.2780 -0.2241
17034TIP3    H172593   3.311   2.596  13.783 -0.6909  0.4085 -0.6108
17034TIP3    H272594   3.287   2.519  13.655  4.8296 -1.3791 -0.8030
17035TIP3   OH272595   5.596   2.854  16.783 -0.2160  0.0269 -1.0508
17035TIP3    H172596   5.611   2.767  16.746 -0.0621 -0.8281  0.9093
17035TIP3    H272597   5.544   2.838  16.862  1.4580  1.4707  0.4531
17036TIP3   OH272598   6.373   0.283  16.294  0.2123  0.0817 -0.1559
17036TIP3    H172599   6.330   0.368  16.307  1.0461  0.2927  1.4325
17036TIP3    H272600   6.380   0.275  16.199 -1.4062  0.9996 -0.3985
17037TIP3   OH272601   1.659   5.511  17.090 -0.0528  0.3944  0.3834
17037TIP3    H172602   1.643   5.605  17.092  0.1201  0.4193  0.6486
17037TIP3    H272603   1.706   5.496  17.009  0.3806  0.6102  0.5931
17038TIP3   OH272604   2.860   2.483  16.288  0.1470  0.2974  0.7180
17038TIP3    H172605   2.853   2.398  16.245  1.5535 -0.4379  1.8624
17038TIP3    H272606   2.776   2.493  16.334 -0.1852 -0.2711  0.2568
17039TIP3   OH272607   2.237   1.078   3.849  0.1897  0.5177 -0.2006
17039TIP3    H172608   2.200   0.989   3.854 -0.6092  0.9118  1.5992
17039TIP3    H272609   2.330   1.064   3.831 -0.0678 -0.6472 -0.7290
17040TIP3   OH272610   4.737   1.233  10.599 -0.4645  0.7628 -0.3540
17040TIP3    H172611   4.653   1.275  10.583 -0.6754 -0.0211 -1.4352
17040TIP3    H272612   4.729   1.147  10.558 -0.3233 -0.6738  2.3699
17041TIP3   OH272613   6.090   5.552  17.255 -0.2175  0.8370  0.2663
17041TIP3    H172614   6.177   5.567  17.292 -0.7423  2.6437  0.8772
17041TIP3    H272615   6.103   5.483  17.190  1.1245 -1.0144  2.3412
17042TIP3   OH272616   5.412   1.627   0.255  0.0630 -0.2429  0.1329
17042TIP3    H172617   5.362   1.696   0.298 -0.0388 -0.5017  0.4317
17042TIP3    H272618   5.407   1.552   0.315  0.6102 -0.3470  0.0532
17043TIP3   OH272619   0.252   6.141   0.862  0.6497  0.5963 -0.2954
17043TIP3    H172620   0.247   6.177   0.773  0.0664  0.1305 -0.4625
17043TIP3    H272621   0.343   6.156   0.889  0.3127  2.6083 -0.1553
17044TIP3   OH272622   0.159   3.972   5.365 -0.0881 -0.3540  0.1037
17044TIP3    H172623   0.208   3.993   5.285 -1.0426 -1.6494 -0.8685
17044TIP3    H272624   0.097   4.044   5.375  2.4083  1.7403  1.8000
17045TIP3   OH272625   1.755   5.903   2.646 -0.2704  0.2387  0.4990
17045TIP3    H172626   1.697   5.935   2.715 -0.1689 -1.9416  1.6748
17045TIP3    H272627   1.795   5.982   2.610 -0.6078  1.4898  2.6920
17046TIP3   OH272628   3.445   5.630  10.561 -0.1032  0.0608 -0.1691
17046TIP3    H172629   3.431   5.702  10.499  2.7733  2.2414  1.4681
17046TIP3    H272630   3.356   5.600  10.583 -1.4407  2.9708 -1.1009
17047TIP3   OH272631   0.154   6.492   4.002 -0.0939  0.5800 -0.1087
17047TIP3    H172632   0.077   6.540   4.032 -0.0475  0.3714  0.3576
17047TIP3    H272633   0.217   6.560   3.978 -0.2243  0.7536  0.0404
17048TIP3   OH272634   1.036   0.906  14.605 -0.1252  0.2491  0.0724
17048TIP3    H172635   1.062   0.992  14.571  0.7266  0.2092  0.5975
17048TIP3    H272636   0.947   0.919  14.637 -0.4110  0.6533 -0.8541
17049TIP3   OH272637   4.129   1.135   2.844  0.2447 -0.3721  0.1655
17049TIP3    H172638   4.080   1.147   2.762 -2.6567 -0.7634  1.7221
17049TIP3    H272639   4.145   1.041   2.849  0.4864 -0.3396  0.0473
17050TIP3   OH272640   5.817   1.030   6.114  0.4893  0.5173 -0.5371
17050TIP3    H172641   5.829   0.936   6.099 -0.2034  0.3699 -0.2507
17050TIP3    H272642   5.898   1.070   6.084  1.9519 -0.4202  1.8500
17051TIP3   OH272643   2.934   3.981   0.165 -0.0138 -0.0968 -0.1247
17051TIP3    H172644   2.994   4.036   0.214 -1.5080  0.6597  0.9482
17051TIP3    H272645   2.863   4.040   0.138 -1.4260 -1.3552  0.6566
17052TIP3   OH272646   4.446   3.360  14.701  0.7824 -0.1250 -0.0823
17052TIP3    H172647   4.364   3.360  14.651  0.6970 -3.5133 -0.1696
17052TIP3    H272648   4.515   3.361  14.634  1.0656  4.3097 -0.0177
17053TIP3   OH272649   6.603   5.812  16.703  0.1041 -0.8006  0.5053
17053TIP3    H172650   6.578   5.898  16.736  0.2841 -1.8721  3.7803
17053TIP3    H272651   6.697   5.807  16.717  0.3399 -1.0538 -0.9922
17054TIP3   OH272652   1.180   4.115  10.513 -0.0118 -0.6538 -0.1973
17054TIP3    H172653   1.240   4.118  10.587 -0.7230 -0.7077  0.3937
17054TIP3    H272654   1.224   4.164  10.444  0.5195 -0.3348  0.3610
17055TIP3   OH272655   2.037   5.349   4.934  0.2208 -0.8049 -0.0297
17055TIP3    H172656   1.973   5.310   4.875 -1.5228 -1.5318  2.1761
17055TIP3    H272657   2.069   5.427   4.888 -0.0589 -1.9924 -2.3910
17056TIP3   OH272658   6.713   4.237   6.332 -0.4116  0.0739  0.0218
17056TIP3    H172659   6.622   4.214   6.314  0.0597 -0.4945 -1.9026
17056TIP3    H272660   6.751   4.158   6.371 -0.0716 -0.7511 -1.8580
17057TIP3   OH272661   2.639   4.949  12.746  0.2359  0.3372 -0.3926
17057TIP3    H172662   2.651   5.043  12.758 -0.9307  0.4643 -0.0838
17057TIP3    H272663   2.633   4.914  12.834 -0.4642  0.1434 -0.5095
17058TIP3   OH272664   1.183   4.774  10.981  0.1149  0.3995 -0.5621
17058TIP3    H172665   1.220   4.805  10.899  0.6991 -1.0304 -0.8827
17058TIP3    H272666   1.104   4.727  10.955  0.5585 -0.4734 -0.3856
17059TIP3   OH272667   2.866   1.640  13.430  0.1801 -0.0973 -0.4223
17059TIP3    H172668   2.883   1.641  13.524 -0.0097 -0.3164 -0.3821
17059TIP3    H272669   2.823   1.555  13.415  1.1923 -0.5437 -0.8818
17060TIP3   OH272670   1.493   5.753   0.842 -0.1010  0.2930  0.9682
17060TIP3    H172671   1.552   5.687   0.806 -0.7785  0.5805 -0.7943
17060TIP3    H272672   1.436   5.705   0.902 -1.1266 -0.9488 -0.9012
17061TIP3   OH272673   4.233   5.475   2.585 -0.6272 -0.5372 -0.2311
17061TIP3    H172674   4.309   5.495   2.531 -0.6299 -0.8181 -0.3424
17061TIP3    H272675   4.211   5.384   2.563 -1.2086 -0.3447 -0.4672
17062TIP3   OH272676   3.351   6.720  13.611  0.6639 -0.5763 -0.1341
17062TIP3    H172677   3.351   6.814  13.632  0.7207 -0.6955  0.4257
17062TIP3    H272678   3.258   6.697  13.605  0.5576 -0.9520  1.9958
17063TIP3   OH272679   2.032   5.524   3.733 -0.0155 -0.2498  0.2161
17063TIP3    H172680   2.068   5.459   3.673 -0.8181  0.3594 -0.9530
17063TIP3    H272681   2.107   5.578   3.758  0.2162 -0.0822 -0.7894
17064TIP3   OH272682   4.427   0.654   5.255  0.6009  0.0743  0.1682
17064TIP3    H172683   4.437   0.747   5.237  0.3357  0.3822  1.5482
17064TIP3    H272684   4.406   0.616   5.169  1.4957  1.1487 -0.5584
17065TIP3   OH272685   0.107   0.832  15.108 -0.4324  0.2474 -0.1318
17065TIP3    H172686   0.166   0.883  15.164 -0.3698  0.2434 -0.1936
17065TIP3    H272687   0.117   0.742  15.138 -0.4974  0.2629 -0.0632
17066TIP3   OH272688   1.004   6.293   4.307  0.7326 -0.2070  0.5500
17066TIP3    H172689   0.978   6.384   4.291 -0.0555 -0.4560  0.3715
17066TIP3    H272690   1.027   6.260   4.220 -1.2947 -0.8702  0.2192
17067TIP3   OH272691   3.630   3.395   1.910 -0.1837 -0.6217 -0.6751
17067TIP3    H172692   3.718   3.368   1.886  0.6339  1.6185 -0.3970
17067TIP3    H272693   3.583   3.402   1.826 -0.4265 -2.7100 -0.7604
17068TIP3   OH272694   2.574   6.592   1.647 -0.3925 -0.2090 -0.9494
17068TIP3    H172695   2.506   6.655   1.669 -0.4059 -0.7083  0.5216
17068TIP3    H272696   2.571   6.527   1.717  0.9045 -0.8078 -1.4075
17069TIP3   OH272697   3.446   6.162  16.352  0.3678  1.0271  0.0100
17069TIP3    H172698   3.496   6.150  16.271  0.0715  0.7389 -0.1332
17069TIP3    H272699   3.359   6.128  16.331  0.6676 -0.3506  0.8645
17070TIP3   OH272700   2.011   6.806   1.764 -0.0655  0.4657 -0.1589
17070TIP3    H172701   2.066   6.874   1.804  0.2848 -0.9914  2.0546
17070TIP3    H272702   1.928   6.812   1.810 -1.2190  1.4524 -2.2294
17071TIP3   OH272703   6.073   0.777   3.432  0.6301 -0.3148  0.5231
17071TIP3    H172704   5.995   0.778   3.487 -0.4818  0.2614 -1.0018
17071TIP3    H272705   6.124   0.852   3.462 -1.7887  2.4386 -1.6210
17072TIP3   OH272706   4.419   2.891   0.237  0.1142 -0.6986  0.5194
17072TIP3    H172707   4.337   2.847   0.262 -0.3907  0.7849  1.6572
17072TIP3    H272708   4.414   2.976   0.281  1.6547 -0.0340 -0.5143
17073TIP3   OH272709   0.625   3.955  10.610  0.8479  0.6402 -0.0502
17073TIP3    H172710   0.620   4.029  10.549  1.1123  2.1034  1.6399
17073TIP3    H272711   0.625   3.995  10.697 -2.1937 -1.4685  1.0739
17074TIP3   OH272712   4.599   0.557  16.587  0.0162  0.2906 -0.7420
17074TIP3    H172713   4.670   0.542  16.525  0.2580  0.8101 -0.5970
17074TIP3    H272714   4.642   0.592  16.665 -0.4529  1.2406 -0.8875
17075TIP3   OH272715   6.165   5.070  17.252 -0.6310  0.5184 -0.6467
17075TIP3    H172716   6.196   5.061  17.342 -0.8365 -2.0509 -0.7506
17075TIP3    H272717   6.244   5.077  17.199 -0.4769  1.0656 -0.3404
17076TIP3   OH272718   5.206   3.259  16.830 -0.8535  0.0050  0.1562
17076TIP3    H172719   5.244   3.294  16.911 -0.7383 -1.3864  0.7398
17076TIP3    H272720   5.212   3.164  16.841 -1.0447 -0.2025 -1.4066
17077TIP3   OH272721   3.673   4.745  13.102  0.1891  0.6335  0.4413
17077TIP3    H172722   3.716   4.806  13.042  0.6447  1.1921  1.3109
17077TIP3    H272723   3.580   4.764  13.094  0.0088 -0.8160 -1.7185
17078TIP3   OH272724   4.639   4.095  16.415 -0.0946 -0.2581 -0.0490
17078TIP3    H172725   4.654   4.002  16.430  1.1608 -0.1969 -0.7675
17078TIP3    H272726   4.643   4.105  16.320  0.2186  0.5962  0.0462
17079TIP3   OH272727   3.193   6.453   2.692 -0.2355  0.3502  0.4291
17079TIP3    H172728   3.134   6.510   2.740  0.3204  0.4792  0.9772
17079TIP3    H272729   3.248   6.413   2.759  1.9246  2.0804 -0.1807
17080TIP3   OH272730   4.895   4.105   3.909  0.3376 -0.4396 -0.1382
17080TIP3    H172731   4.834   4.116   3.836 -2.8600  0.8029  2.4986
17080TIP3    H272732   4.902   4.193   3.947 -0.2314 -1.4758  2.5760
17081TIP3   OH272733   3.780   3.305  16.765  0.6308  0.6015 -0.0600
17081TIP3    H172734   3.714   3.369  16.737 -1.4983 -0.7675  1.5118
17081TIP3    H272735   3.802   3.331  16.855  0.1667 -0.5063  0.3936
17082TIP3   OH272736   6.492   6.174  11.903  0.0814  0.7306  1.0659
17082TIP3    H172737   6.540   6.091  11.905  1.3604  1.3742 -0.3092
17082TIP3    H272738   6.479   6.191  11.810 -0.6772  1.7974  1.3501
17083TIP3   OH272739   4.144   6.820   5.161  0.3468  0.3649 -0.0348
17083TIP3    H172740   4.049   6.806   5.163  0.4744 -1.2164 -1.6415
17083TIP3    H272741   4.180   6.732   5.147  1.9706  1.0806 -0.5167
17084TIP3   OH272742   2.310   3.314   4.107 -0.6707  0.4892  0.2976
17084TIP3    H172743   2.234   3.264   4.078 -0.3991  0.2314  0.0219
17084TIP3    H272744   2.380   3.250   4.114 -0.8240  0.4698  1.9456
17085TIP3   OH272745   1.530   6.491  14.720  0.8191  0.6422 -0.2919
17085TIP3    H172746   1.497   6.515  14.807 -0.3708  1.9202 -1.0528
17085TIP3    H272747   1.527   6.396  14.719 -1.0315  0.6612  0.3905
17086TIP3   OH272748   0.693   5.041  13.098  0.1154  0.0921  0.0008
17086TIP3    H172749   0.670   5.101  13.026 -2.1102 -1.3419 -0.5509
17086TIP3    H272750   0.765   5.086  13.143 -0.8862  2.7975 -0.8635
17087TIP3   OH272751   3.455   4.489  11.523 -0.9392 -0.2885  0.1356
17087TIP3    H172752   3.450   4.519  11.432  0.4789  3.8704  1.1909
17087TIP3    H272753   3.364   4.478  11.550 -1.4575  0.2107 -1.2914
17088TIP3   OH272754   0.272   1.381  11.286  0.0815  0.1477 -0.1003
17088TIP3    H172755   0.210   1.387  11.214  0.9589 -1.3814 -1.0283
17088TIP3    H272756   0.346   1.436  11.259  0.0788  0.2010 -0.0016
17089TIP3   OH272757   4.605   0.834   2.908 -0.9603  0.5039 -0.0464
17089TIP3    H172758   4.670   0.852   2.976 -1.0439 -0.4702  0.3072
17089TIP3    H272759   4.576   0.921   2.878  0.8080  0.9570 -0.5188
17090TIP3   OH272760   3.774   1.225  16.716 -0.4825  0.5088 -0.0249
17090TIP3    H172761   3.816   1.272  16.788  1.3325  0.8225 -1.2142
17090TIP3    H272762   3.792   1.133  16.734 -0.9281  0.5035  0.4308
17091TIP3   OH272763   4.666   6.437  17.286  0.0385 -0.2067 -0.3261
17091TIP3    H172764   4.595   6.374  17.298 -0.8897  0.9701  0.5411
17091TIP3    H272765   4.706   6.411  17.203 -2.8383  0.4319 -2.0636
17092TIP3   OH272766   3.111   0.464  15.034 -0.1122 -0.2600  0.2492
17092TIP3    H172767   3.087   0.436  15.123  2.8217 -0.4906  1.0697
17092TIP3    H272768   3.136   0.383  14.990  0.2637  0.0693 -0.1486
17093TIP3   OH272769   4.457   6.577  11.940 -0.3109  0.5763 -0.1565
17093TIP3    H172770   4.422   6.489  11.924 -0.1993  0.1403  1.7459
17093TIP3    H272771   4.478   6.611  11.853 -0.5219 -1.2061 -0.9420
17094TIP3   OH272772   3.854   0.822   3.037  0.2136  0.5449  0.3990
17094TIP3    H172773   3.867   0.829   3.131  1.8959 -0.9317  0.3140
17094TIP3    H272774   3.941   0.808   3.001 -0.2716  1.9425 -1.5025
17095TIP3   OH272775   0.816   4.824  12.888  0.2278  0.1740 -0.3612
17095TIP3    H172776   0.822   4.797  12.979 -1.8508  0.8839  0.0570
17095TIP3    H272777   0.817   4.920  12.891  3.3146  0.2855 -1.4311
17096TIP3   OH272778   4.358   2.708  15.501 -0.2131  0.2863 -0.0317
17096TIP3    H172779   4.445   2.744  15.512  1.1171 -2.5926 -0.0957
17096TIP3    H272780   4.361   2.624  15.548 -2.7020 -0.2651 -0.6951
17097TIP3   OH272781   6.616   0.471   3.747  0.4201  0.0765  0.2192
17097TIP3    H172782   6.616   0.383   3.783  2.2885 -0.1183 -0.1836
17097TIP3    H272783   6.636   0.460   3.654 -2.1873  0.7414 -0.5003
17098TIP3   OH272784   6.667   3.897   4.884  0.3214  0.3234 -0.2986
17098TIP3    H172785   6.621   3.964   4.831  1.2198  1.8263  0.7394
17098TIP3    H272786   6.697   3.945   4.961  1.1065 -1.2910  0.4302
17099TIP3   OH272787   3.477   2.311  12.436 -0.2811 -0.4446  0.5887
17099TIP3    H172788   3.394   2.300  12.389 -0.8358 -0.6600  1.5770
17099TIP3    H272789   3.537   2.345  12.371 -1.2804  0.1642 -0.0466
17100TIP3   OH272790   0.890   6.522  16.707 -0.3949 -0.1914  0.1224
17100TIP3    H172791   0.798   6.543  16.693 -0.8322 -2.0072  0.0135
17100TIP3    H272792   0.927   6.601  16.745 -1.7574  0.9342 -0.7820
17101TIP3   OH272793   1.041   3.839  13.543 -0.3385 -0.4708 -0.0014
17101TIP3    H172794   1.076   3.753  13.567 -1.4932 -1.0465 -0.3057
17101TIP3    H272795   0.970   3.855  13.605 -1.2821 -0.5447 -1.0264
17102TIP3   OH272796   0.445   6.138  16.155  0.2535  0.3215  0.0832
17102TIP3    H172797   0.434   6.224  16.114  0.0990  0.3518  0.1856
17102TIP3    H272798   0.375   6.085  16.118  1.0640 -0.1077 -0.8769
17103TIP3   OH272799   3.800   1.274  13.883  0.0599  0.3131 -0.1758
17103TIP3    H172800   3.743   1.253  13.957 -2.5351 -2.3155 -2.6240
17103TIP3    H272801   3.772   1.362  13.856  0.1575  0.7732  1.1539
17104TIP3   OH272802   2.468   3.818   0.265 -0.4372  0.0279  0.4618
17104TIP3    H172803   2.504   3.878   0.200  1.0447 -0.6194  0.6602
17104TIP3    H272804   2.485   3.731   0.230  1.1161 -0.3571  2.0542
17105TIP3   OH272805   6.640   5.263   2.068  0.0880 -0.2164  0.1811
17105TIP3    H172806   6.709   5.222   2.119  0.5712 -0.2162 -0.4615
17105TIP3    H272807   6.561   5.211   2.088  0.4587 -0.7722  0.2259
17106TIP3   OH272808   0.730   5.497  15.866  0.4219  0.2414 -0.2835
17106TIP3    H172809   0.731   5.558  15.792  1.7494  0.3772 -0.1869
17106TIP3    H272810   0.814   5.513  15.910  0.2962 -0.8784  0.3890
17107TIP3   OH272811   4.374   4.572  14.920  0.2387  0.3621  0.2900
17107TIP3    H172812   4.427   4.613  14.989 -0.5063  1.7573  0.0715
17107TIP3    H272813   4.297   4.629  14.912  0.1748  0.0777 -1.5009
17108TIP3   OH272814   3.111   0.857  13.109 -0.1413  0.4605 -0.1334
17108TIP3    H172815   3.164   0.780  13.128 -0.7249 -0.0888 -0.6864
17108TIP3    H272816   3.161   0.905  13.043  0.6111  0.9923  0.7992
17109TIP3   OH272817   2.074   6.288   1.822  0.2295 -0.0909  0.3421
17109TIP3    H172818   2.023   6.261   1.745 -0.9795  0.8860  0.7719
17109TIP3    H272819   2.077   6.383   1.817  2.7798 -0.1240 -0.1038
17110TIP3   OH272820   3.009   2.382   0.260  0.0068  0.5950 -0.5509
17110TIP3    H172821   3.085   2.329   0.282 -0.5339  0.5326  1.3086
17110TIP3    H272822   3.014   2.458   0.317 -2.2780 -0.3318  1.0305
17111TIP3   OH272823   4.143   4.051  11.888 -0.2337 -0.6165 -0.3677
17111TIP3    H172824   4.135   4.121  11.953  0.6293 -0.1973 -0.7041
17111TIP3    H272825   4.181   3.978  11.935 -4.1434 -2.1335  0.8878
17112TIP3   OH272826   1.248   4.729   1.342  0.0404 -0.3670 -0.2799
17112TIP3    H172827   1.218   4.806   1.293  0.0758  1.8918  2.9407
17112TIP3    H272828   1.333   4.708   1.304  0.0604  1.2329 -1.1936
17113TIP3   OH272829   5.681   6.711   6.164 -0.3267 -0.3122 -0.7191
17113TIP3    H172830   5.691   6.798   6.126 -1.2792 -0.7128 -1.9529
17113TIP3    H272831   5.587   6.701   6.176 -0.2033 -1.0723 -0.3451
17114TIP3   OH272832   1.726   4.664  11.981  0.1040 -0.1599 -0.2497
17114TIP3    H172833   1.796   4.598  11.971  0.3969  0.2931 -1.2563
17114TIP3    H272834   1.747   4.731  11.916 -0.8290  0.3772 -0.0044
17115TIP3   OH272835   4.211   1.379   5.883 -0.4733 -0.2700 -0.1682
17115TIP3    H172836   4.231   1.401   5.974  0.3495 -0.4519 -0.2941
17115TIP3    H272837   4.118   1.396   5.874 -0.4087  0.5149  0.4968
17116TIP3   OH272838   3.881   4.771   2.231  0.7265 -0.4527  0.3845
17116TIP3    H172839   3.855   4.838   2.168  2.0992 -0.9763 -0.8283
17116TIP3    H272840   3.846   4.800   2.314  0.2581  1.1333 -0.3344
17117TIP3   OH272841   1.033   1.000   1.872 -0.1251  0.1781 -0.8704
17117TIP3    H172842   1.054   1.093   1.881 -0.5704  0.3032 -1.1145
17117TIP3    H272843   1.104   0.955   1.918 -0.7163  0.6908  0.6071
17118TIP3   OH272844   4.506   4.657  15.157 -0.1938  0.0026  0.1255
17118TIP3    H172845   4.444   4.721  15.191  0.6915 -0.0507  1.9132
17118TIP3    H272846   4.524   4.599  15.231  2.6112  0.5008 -0.0702
17119TIP3   OH272847   0.261   5.545  12.081 -0.3596 -0.6129 -0.6354
17119TIP3    H172848   0.192   5.479  12.078 -0.4240 -0.5308 -1.0551
17119TIP3    H272849   0.302   5.540  11.995  1.2383 -1.7934  0.1294
17120TIP3   OH272850   2.655   6.259  11.105  0.6091 -0.2577  0.3989
17120TIP3    H172851   2.597   6.288  11.175  1.8427  2.9273  0.3014
17120TIP3    H272852   2.598   6.252  11.028 -0.3436 -1.4764  1.1872
17121TIP3   OH272853   6.009   3.753   6.403  0.4439 -0.5522 -0.1134
17121TIP3    H172854   5.919   3.735   6.378  0.7988 -0.4870 -1.4846
17121TIP3    H272855   6.014   3.849   6.412  0.0887 -0.6318  1.1963
17122TIP3   OH272856   0.400   3.326  11.412 -0.3058  0.2121  0.1799
17122TIP3    H172857   0.443   3.291  11.333 -0.9687 -0.1140 -0.0446
17122TIP3    H272858   0.398   3.252  11.473 -0.3100  0.3027  0.2901
17123TIP3   OH272859   0.199   1.202  16.506 -0.3425  0.0735  0.3700
17123TIP3    H172860   0.235   1.175  16.422  0.9435  1.9709  0.2429
17123TIP3    H272861   0.233   1.138  16.569  0.1147 -0.3592 -0.3040
17124TIP3   OH272862   6.585   1.842   2.158 -0.1612 -0.7669 -0.2862
17124TIP3    H172863   6.644   1.775   2.122  0.4865 -0.5812  0.3963
17124TIP3    H272864   6.628   1.869   2.239  0.1092  1.1974 -1.0362
17125TIP3   OH272865   5.548   6.354  10.573 -0.0370  0.5574  0.2521
17125TIP3    H172866   5.616   6.327  10.635 -0.5706 -0.9142  0.2268
17125TIP3    H272867   5.562   6.299  10.496 -0.7147  0.8657 -0.0992
17126TIP3   OH272868   2.025   5.351  14.010 -0.3808  0.0146 -0.0783
17126TIP3    H172869   2.003   5.258  14.013 -1.7776  0.3141 -0.4574
17126TIP3    H272870   2.049   5.367  13.919  1.6364 -0.3249  0.3418
17127TIP3   OH272871   5.610   3.505  13.964 -0.3253 -0.0069 -0.0109
17127TIP3    H172872   5.623   3.589  14.007  1.7886 -1.2308  1.9971
17127TIP3    H272873   5.659   3.511  13.882 -0.9399  0.9602 -0.3247
17128TIP3   OH272874   1.564   3.461  15.069 -0.1147 -0.3094  0.2161
17128TIP3    H172875   1.562   3.405  14.991  0.2882 -0.5626  0.3884
17128TIP3    H272876   1.528   3.544  15.038 -3.1327 -1.3582  0.5419
17129TIP3   OH272877   4.712   6.066   5.635  0.8500  0.4527  0.1023
17129TIP3    H172878   4.716   6.048   5.541 -1.8157  3.5601 -0.8038
17129TIP3    H272879   4.623   6.098   5.649  1.2429  0.3638  3.6939
17130TIP3   OH272880   6.438   6.546  12.255 -0.1497 -0.5661 -0.2095
17130TIP3    H172881   6.476   6.632  12.238 -1.5362 -0.0968 -1.1681
17130TIP3    H272882   6.389   6.557  12.337  2.6427 -1.5095  1.7109
17131TIP3   OH272883   1.798   4.839  13.342  0.1235  0.1293 -0.0228
17131TIP3    H172884   1.852   4.782  13.287  0.9077  0.1894  0.6782
17131TIP3    H272885   1.786   4.918  13.289  0.2961 -0.0828 -0.3849
17132TIP3   OH272886   3.174   4.491  14.131  0.0024  0.6282 -0.2252
17132TIP3    H172887   3.232   4.513  14.205 -0.4989 -0.9137  0.6754
17132TIP3    H272888   3.112   4.428  14.168 -0.5095  0.1261 -1.8776
17133TIP3   OH272889   6.002   4.149   5.149  0.0637 -0.1327 -0.3071
17133TIP3    H172890   6.045   4.102   5.078  0.2849 -1.3338  0.5874
17133TIP3    H272891   6.001   4.240   5.121  0.9850 -0.4509 -1.4279
17134TIP3   OH272892   0.263   6.195   0.599 -0.1034  0.1889 -0.6797
17134TIP3    H172893   0.284   6.284   0.571  1.8361  0.6538  1.9161
17134TIP3    H272894   0.300   6.139   0.531  0.0063  1.3168 -1.5682
17135TIP3   OH272895   1.858   2.347   2.055  0.1347 -0.0868 -0.0852
17135TIP3    H172896   1.795   2.287   2.095 -0.2886  2.0852  2.8453
17135TIP3    H272897   1.942   2.302   2.063 -0.2554 -0.6140  1.4851
17136TIP3   OH272898   2.393   4.821   4.641 -0.5077 -0.6110 -0.3670
17136TIP3    H172899   2.304   4.829   4.676 -0.7674 -1.2152 -0.8574
17136TIP3    H272900   2.381   4.780   4.555 -0.1764  3.4373 -2.5626
17137TIP3   OH272901   5.167   6.342   3.897 -0.1153  0.0622 -0.3153
17137TIP3    H172902   5.100   6.359   3.963  1.7103  3.1957  0.9657
17137TIP3    H272903   5.153   6.409   3.830  0.7401 -0.2821 -0.8559
17138TIP3   OH272904   6.559   4.967   2.699 -0.5351 -0.2902  0.4769
17138TIP3    H172905   6.464   4.956   2.702 -0.6287  0.0868 -0.7738
17138TIP3    H272906   6.576   5.008   2.615  0.5566  1.6094  1.5608
17139TIP3   OH272907   0.948   2.915   2.654  0.3835 -0.1163  0.1394
17139TIP3    H172908   1.029   2.880   2.690  0.0490 -1.0845 -0.0283
17139TIP3    H272909   0.963   2.917   2.559 -0.1801 -1.3835  0.0006
17140TIP3   OH272910   3.044   2.723   1.849  0.5287  0.6677 -0.3072
17140TIP3    H172911   2.963   2.685   1.814  1.2375  0.3136 -1.6333
17140TIP3    H272912   3.028   2.818   1.849  0.0466  0.5880 -0.3775
17141TIP3   OH272913   5.543   6.112   2.193  0.1039  0.1968 -0.1751
17141TIP3    H172914   5.539   6.145   2.103 -0.7061  3.3229  0.8571
17141TIP3    H272915   5.473   6.159   2.238  2.3699  1.0988  2.7437
17142TIP3   OH272916   4.128   0.778   1.316 -0.1577 -0.9630  0.7491
17142TIP3    H172917   4.147   0.690   1.283  0.1279 -0.4157 -0.6187
17142TIP3    H272918   4.040   0.797   1.283 -0.2940 -0.8110  1.2033
17143TIP3   OH272919   4.950   2.343  15.607  0.8021 -0.2155 -0.2562
17143TIP3    H172920   4.990   2.390  15.680 -1.7321  1.7890  0.0253
17143TIP3    H272921   4.927   2.257  15.643  1.8420 -0.1757  0.5330
17144TIP3   OH272922   0.128   1.562  12.978 -0.2725  0.6153 -0.2760
17144TIP3    H172923   0.063   1.597  12.917  1.9464  2.0903 -1.9540
17144TIP3    H272924   0.140   1.631  13.043 -1.3789 -0.2508  0.8874
17145TIP3   OH272925   1.134   6.054  13.237 -0.2004  0.0681  0.0750
17145TIP3    H172926   1.211   6.022  13.190  1.1597  0.5901  1.8233
17145TIP3    H272927   1.170   6.105  13.310 -2.1757 -0.5913  1.6185
17146TIP3   OH272928   3.645   0.850  16.614  0.7894 -0.1887 -1.0529
17146TIP3    H172929   3.551   0.851  16.632  0.8188  0.2799 -0.9103
17146TIP3    H272930   3.685   0.839  16.700  0.8758  0.1531 -1.0467
17147TIP3   OH272931   3.681   1.544   0.544 -0.3300 -0.0009  0.2018
17147TIP3    H172932   3.777   1.551   0.540 -0.3943  0.3867 -1.0902
17147TIP3    H272933   3.652   1.631   0.571 -0.4417  0.8904 -2.5156
17148TIP3   OH272934   3.947   4.914  16.824  0.6641 -0.2791  0.6605
17148TIP3    H172935   3.949   5.000  16.867  0.9127 -0.4167  0.9348
17148TIP3    H272936   3.994   4.927  16.742 -1.0187  0.3257 -0.2497
17149TIP3   OH272937   6.605   2.446  16.182  0.1133 -0.1705  0.6288
17149TIP3    H172938   6.685   2.401  16.210  0.5767  0.5312  0.4424
17149TIP3    H272939   6.564   2.474  16.263  0.8203  0.7686  0.6715
17150TIP3   OH272940   5.616   4.030   0.713  0.2545  0.9321  0.1074
17150TIP3    H172941   5.597   3.936   0.719 -0.7739  1.0492 -1.0297
17150TIP3    H272942   5.615   4.060   0.804  0.4134 -0.1186  0.4758
17151TIP3   OH272943   2.814   3.000  11.994 -0.0567 -0.1215 -0.3707
17151TIP3    H172944   2.893   2.948  12.007 -0.4634 -0.8325 -0.6900
17151TIP3    H272945   2.845   3.078  11.947  0.5931  0.0424  0.3139
17152TIP3   OH272946   3.625   5.596  10.756  0.3242  0.1530 -0.5143
17152TIP3    H172947   3.559   5.657  10.790  0.7816  0.6986 -0.5768
17152TIP3    H272948   3.611   5.595  10.661  1.9491  2.2097 -0.8558
17153TIP3   OH272949   5.602   0.588   5.869  0.0319 -0.3178  0.3284
17153TIP3    H172950   5.518   0.631   5.882 -0.8698 -2.0185  0.3799
17153TIP3    H272951   5.601   0.514   5.930  1.6609 -0.2546  0.4762
17154TIP3   OH272952   6.287   0.947   6.337  0.5379  0.1885 -0.2108
17154TIP3    H172953   6.199   0.972   6.365  0.1001 -1.2222 -0.2273
17154TIP3    H272954   6.281   0.942   6.241  0.8971  0.9626 -0.2829
17155TIP3   OH272955   3.665   2.991  11.407  0.1637 -0.2134  0.2801
17155TIP3    H172956   3.676   3.079  11.369  1.0685 -1.2121 -1.9697
17155TIP3    H272957   3.717   2.993  11.487  1.1246  0.9630 -0.3293
17156TIP3   OH272958   0.681   3.603  12.793 -0.2883  0.0148 -0.1878
17156TIP3    H172959   0.669   3.622  12.700 -0.2987 -1.7176 -0.5708
17156TIP3    H272960   0.776   3.601  12.804 -0.2790 -0.7401 -0.3817
17157TIP3   OH272961   6.220   1.513  14.386  0.5037  0.3359  0.4360
17157TIP3    H172962   6.282   1.552  14.449  0.0658 -0.8689  1.6630
17157TIP3    H272963   6.134   1.541  14.418  0.0493 -2.6828  2.2414
17158TIP3   OH272964   1.101   1.768  16.440  0.0814  0.2223 -0.5216
17158TIP3    H172965   1.124   1.842  16.384  0.4309  0.0105 -0.6625
17158TIP3    H272966   1.173   1.763  16.503 -0.6193  0.8597  0.3592
17159TIP3   OH272967   2.618   0.545  15.444 -0.1292  0.2827 -0.2452
17159TIP3    H172968   2.631   0.605  15.371 -0.1114  0.3136 -0.2158
17159TIP3    H272969   2.673   0.469  15.423 -0.7297 -0.0431 -0.6514
17160TIP3   OH272970   5.300   2.841  12.180 -0.2965  0.2976  0.2198
17160TIP3    H172971   5.228   2.813  12.124 -0.5612 -0.2582  0.8242
17160TIP3    H272972   5.369   2.775  12.166  0.0449  0.7527 -0.2561
17161TIP3   OH272973   2.950   2.693   3.499  0.2014 -0.8185  0.3904
17161TIP3    H172974   2.868   2.674   3.453  0.4798  0.5646 -0.7132
17161TIP3    H272975   2.947   2.636   3.576 -0.8881 -2.2301 -0.6311
17162TIP3   OH272976   1.631   1.391   0.805  0.3292 -0.2644 -0.9372
17162TIP3    H172977   1.637   1.300   0.776  2.1204 -0.3395 -0.4503
17162TIP3    H272978   1.681   1.394   0.886 -0.9114  0.8799 -0.1680
17163TIP3   OH272979   5.397   2.104  12.230 -0.1777 -0.1068 -0.2352
17163TIP3    H172980   5.349   2.040  12.282  0.1283  0.6700  1.0387
17163TIP3    H272981   5.489   2.076  12.235 -0.1936 -0.2482 -0.6849
17164TIP3   OH272982   2.426   3.984  13.412  0.1838 -0.3874  0.2734
17164TIP3    H172983   2.351   4.042  13.422  1.0768  1.0718 -1.0398
17164TIP3    H272984   2.406   3.931  13.334  0.0584 -0.7467  0.5480
17165TIP3   OH272985   0.414   3.161   4.566 -0.0573  0.1114 -0.0349
17165TIP3    H172986   0.370   3.218   4.502  0.2747  0.9031  0.4250
17165TIP3    H272987   0.409   3.209   4.648  1.5334  0.1681  0.0638
17166TIP3   OH272988   5.151   0.406   3.809  0.2266  0.0666 -0.7105
17166TIP3    H172989   5.223   0.417   3.746  0.1609  0.7214 -0.6718
17166TIP3    H272990   5.096   0.483   3.796  1.5609  1.6025  1.9163
17167TIP3   OH272991   2.309   2.320  17.239 -0.7670  0.3374  0.1639
17167TIP3    H172992   2.377   2.338  17.174 -1.0222  2.5981  0.4353
17167TIP3    H272993   2.228   2.315  17.188 -0.7208  0.0646  0.1126
17168TIP3   OH272994   6.120   5.029  13.173 -0.3787 -0.3781 -0.3635
17168TIP3    H172995   6.163   5.005  13.092  0.3660 -1.7048  0.3934
17168TIP3    H272996   6.142   4.959  13.234 -1.7673  0.0555  0.6997
17169TIP3   OH272997   5.815   3.050  15.777 -0.0096 -0.2504 -0.0645
17169TIP3    H172998   5.783   2.964  15.804  1.4528  0.2727  3.9550
17169TIP3    H272999   5.905   3.033  15.748  0.0884 -0.1697  0.1896
17170TIP3   OH273000   4.347   0.349  12.131 -0.5740 -0.4584  0.4841
17170TIP3    H173001   4.435   0.312  12.116 -1.0284 -0.9110 -1.2952
17170TIP3    H273002   4.307   0.289  12.194 -0.4710 -1.7532 -0.6183
17171TIP3   OH273003   1.774   4.527  12.260  0.1811  0.1092  0.1080
17171TIP3    H173004   1.732   4.556  12.178  0.0202 -0.3866  0.0143
17171TIP3    H273005   1.777   4.432  12.253 -0.1016  0.0404  0.8111
17172TIP3   OH273006   2.828   4.837  13.719  0.2804 -0.6501 -1.0004
17172TIP3    H173007   2.764   4.780  13.676 -1.5028 -0.0031  0.6609
17172TIP3    H273008   2.804   4.926  13.691  0.3523 -0.3817 -0.2383
17173TIP3   OH273009   4.111   4.698  14.563 -0.9243  0.1264 -0.0022
17173TIP3    H173010   4.056   4.771  14.590  0.4087  0.7977  1.0352
17173TIP3    H273011   4.191   4.739  14.529  0.8647 -0.7763  2.7756
17174TIP3   OH273012   5.951   3.135   1.458 -0.3237  0.0204 -0.1108
17174TIP3    H173013   6.018   3.103   1.518 -0.3818  0.7634  0.3615
17174TIP3    H273014   5.976   3.226   1.441 -1.0767  0.2339 -0.1215
17175TIP3   OH273015   5.281   3.092  12.718 -0.5328  0.3120 -0.9025
17175TIP3    H173016   5.255   3.003  12.693  0.0830 -0.2304  0.3028
17175TIP3    H273017   5.198   3.139  12.727 -1.2846 -1.2940  2.5577
17176TIP3   OH273018   2.509   1.332  16.798  0.2256  0.0098 -0.3262
17176TIP3    H173019   2.473   1.306  16.882 -1.3069  1.5891 -0.4114
17176TIP3    H273020   2.433   1.330  16.738  0.6533  1.5891 -0.9840
17177TIP3   OH273021   1.443   1.810   1.087  0.7354 -0.1730 -0.0769
17177TIP3    H173022   1.466   1.735   1.031  1.0196  1.9095 -2.9741
17177TIP3    H273023   1.522   1.864   1.089 -0.0785  1.0581  0.1861
17178TIP3   OH273024   6.032   6.110   4.001  0.1680  0.0072  0.1592
17178TIP3    H173025   6.116   6.086   3.962 -0.3868 -1.3154 -0.2784
17178TIP3    H273026   6.036   6.074   4.090 -0.3532 -1.0728 -0.2346
17179TIP3   OH273027   0.339   0.182   0.060 -0.5682 -0.2101  0.6310
17179TIP3    H173028   0.277   0.112   0.080  0.9225 -1.7576  0.0452
17179TIP3    H273029   0.353   0.176  -0.034  1.4771 -0.8004  0.9385
17180TIP3   OH273030   2.399   0.340  14.505  0.4847  0.3826  0.2200
17180TIP3    H173031   2.492   0.360  14.517  0.8424 -0.8521 -0.2737
17180TIP3    H273032   2.361   0.420  14.470  1.2691  1.0509  0.8647
17181TIP3   OH273033   5.426   4.406  13.072 -0.6485 -0.4234  0.6808
17181TIP3    H173034   5.365   4.404  13.145 -1.2510  1.8066  0.2970
17181TIP3    H273035   5.467   4.492  13.078  0.6949 -0.9476 -0.5053
17182TIP3   OH273036   3.048   2.445  10.843  0.0900 -0.3465 -0.1240
17182TIP3    H173037   3.135   2.468  10.877 -1.2880  1.6765  2.4518
17182TIP3    H273038   3.040   2.494  10.761 -0.0056  2.8061  1.6254
17183TIP3   OH273039   0.466   6.372  13.368 -0.6383 -0.3399 -0.2024
17183TIP3    H173040   0.545   6.357  13.315 -0.8166 -1.4008 -0.1766
17183TIP3    H273041   0.396   6.328  13.321 -0.5582 -2.5596  1.5851
17184TIP3   OH273042   2.650   4.768  16.274  0.0831 -0.5040  0.3518
17184TIP3    H173043   2.570   4.795  16.320 -0.8230 -1.2163 -0.7412
17184TIP3    H273044   2.715   4.756  16.343 -1.2459 -1.5779  1.4743
17185TIP3   OH273045   0.107   0.899   2.816  0.3147  0.5057 -0.2488
17185TIP3    H173046   0.021   0.926   2.784  0.9508  0.4155 -2.1529
17185TIP3    H273047   0.153   0.982   2.833  0.1995  0.5727 -0.2647
17186TIP3   OH273048   2.550   4.950  12.141  0.0785 -0.0012  0.0872
17186TIP3    H173049   2.604   5.008  12.087  1.0017 -0.6128  0.3162
17186TIP3    H273050   2.482   4.919  12.082  0.9006 -0.4354 -0.6670
17187TIP3   OH273051   3.232   5.187   5.060  0.2336  0.1893  0.1740
17187TIP3    H173052   3.173   5.136   5.115  3.0054 -2.6037  0.8083
17187TIP3    H273053   3.204   5.167   4.970 -0.2931 -0.4100  0.4640
17188TIP3   OH273054   1.314   6.045   1.637  0.2783 -0.3813 -0.6533
17188TIP3    H173055   1.353   5.967   1.598 -0.5353 -0.5231 -1.2239
17188TIP3    H273056   1.291   6.100   1.561  0.1823  0.0871 -0.2900
17189TIP3   OH273057   6.825   0.973   0.030 -0.0818 -0.3744  0.6227
17189TIP3    H173058   6.900   0.925   0.066 -0.2290 -1.0576  0.0618
17189TIP3    H273059   6.858   1.061   0.013  1.5936 -1.4320 -2.5390
17190TIP3   OH273060   5.587   2.472   3.980  0.6062  0.1277  0.0897
17190TIP3    H173061   5.566   2.449   4.070  2.2648 -1.6485  0.0924
17190TIP3    H273062   5.641   2.551   3.986  1.8724 -0.7576  0.8020
17191TIP3   OH273063   4.202   4.513   2.943 -0.1856  0.1492 -0.0317
17191TIP3    H173064   4.198   4.516   2.848 -2.8538  1.0565  0.0246
17191TIP3    H273065   4.123   4.558   2.972 -0.3938 -1.6720  2.6193
17192TIP3   OH273066   2.118   4.293   0.375  0.0910  0.1590 -0.5448
17192TIP3    H173067   2.113   4.384   0.347  0.0192  0.0311 -0.9618
17192TIP3    H273068   2.078   4.244   0.303 -0.7986 -0.1218  0.1112
17193TIP3   OH273069   1.411   1.013  11.312  0.3052  0.3494  0.1114
17193TIP3    H173070   1.369   1.099  11.316  0.4010  0.3703  0.6359
17193TIP3    H273071   1.492   1.023  11.362 -0.1562 -0.3145  1.0138
17194TIP3   OH273072   5.491   3.808  12.292 -0.3685 -0.1004 -0.2693
17194TIP3    H173073   5.524   3.874  12.354 -0.8770 -0.2883  0.2100
17194TIP3    H273074   5.518   3.841  12.206 -1.7776  1.4677 -0.1739
17195TIP3   OH273075   4.732   1.607   4.846  0.3447 -0.2380  0.7836
17195TIP3    H173076   4.807   1.553   4.820 -1.0178 -2.4650  1.1680
17195TIP3    H273077   4.680   1.615   4.766  1.4886  2.3334  0.2031
17196TIP3   OH273078   6.228   4.190   1.963  0.5174 -0.5786  0.7502
17196TIP3    H173079   6.194   4.107   1.929  0.7250 -0.4244  0.1658
17196TIP3    H273080   6.323   4.177   1.968  0.6302 -0.1101 -0.0821
17197TIP3   OH273081   2.274   3.615   0.849  0.1503 -0.4252 -0.2089
17197TIP3    H173082   2.237   3.678   0.910  1.3481  0.1274 -0.0369
17197TIP3    H273083   2.197   3.574   0.809 -0.6906 -0.8321  1.6616
17198TIP3   OH273084   3.040   5.918  17.171 -0.2304 -0.6766 -0.0625
17198TIP3    H173085   3.135   5.907  17.176 -0.4576 -2.7309  0.6127
17198TIP3    H273086   3.024   6.004  17.208  1.2314 -1.0550  1.5822
17199TIP3   OH273087   4.259   4.590   3.661  0.6649 -0.4651 -0.5976
17199TIP3    H173088   4.212   4.562   3.582 -2.3669  0.9497  0.5252
17199TIP3    H273089   4.259   4.685   3.656  1.1714 -0.3823  0.7281
17200TIP3   OH273090   3.429   2.697  13.891  0.0117  0.1390 -0.1888
17200TIP3    H173091   3.474   2.663  13.968 -0.2799 -3.5758 -1.4462
17200TIP3    H273092   3.498   2.737  13.838  0.6137  0.5570  0.8850
17201TIP3   OH273093   0.327   3.153   4.248 -0.1370 -0.0339 -0.0657
17201TIP3    H173094   0.294   3.213   4.182  0.6366  0.9339  0.4029
17201TIP3    H273095   0.267   3.079   4.245 -1.1503  0.7822 -0.6197
17202TIP3   OH273096   6.765   1.959  14.789  0.0572 -0.2610 -0.1758
17202TIP3    H173097   6.694   1.964  14.725 -1.0355 -0.5707  0.9444
17202TIP3    H273098   6.788   2.050  14.808 -0.2305 -0.1485 -0.3668
17203TIP3   OH273099   6.681   0.898  15.021 -0.0480 -0.0726 -0.1041
17203TIP3    H173100   6.629   0.866  15.095 -1.5583  2.7607  0.2017
17203TIP3    H273101   6.772   0.891  15.051 -0.5264 -0.6426  1.3055
17204TIP3   OH273102   2.956   0.746   1.126 -0.3013 -0.4214 -0.3818
17204TIP3    H173103   2.933   0.716   1.038 -0.6821  0.8131 -0.7267
17204TIP3    H273104   2.900   0.822   1.141  2.0563  1.4536 -0.4151
17205TIP3   OH273105   4.948   6.033  17.010  0.5417  0.2654  0.2766
17205TIP3    H173106   4.989   6.062  16.929  0.7640 -0.7930 -0.0092
17205TIP3    H273107   4.928   5.941  16.995  1.2527 -0.1486  1.6647
17206TIP3   OH273108   3.633   2.453   4.302 -0.0523 -0.3052 -0.0045
17206TIP3    H173109   3.656   2.497   4.383 -1.6008  2.1703 -0.8157
17206TIP3    H273110   3.672   2.507   4.233 -1.2365 -0.6932 -1.0189
17207TIP3   OH273111   0.423   1.203   3.563 -0.1739 -0.0130 -0.1882
17207TIP3    H173112   0.483   1.133   3.537  1.0833  1.1737 -0.6129
17207TIP3    H273113   0.361   1.211   3.491  0.1632 -0.1667 -0.4951
17208TIP3   OH273114   0.745   0.066  15.971  0.4954 -0.9888 -0.2207
17208TIP3    H173115   0.766   0.157  15.950  0.3056 -0.7099  0.7674
17208TIP3    H273116   0.656   0.069  16.005 -0.1102 -1.7725 -1.6487
17209TIP3   OH273117   3.123   5.727   2.661  0.0427  0.0990  0.4257
17209TIP3    H173118   3.170   5.674   2.725  0.2361  1.3816  1.3733
17209TIP3    H273119   3.044   5.755   2.706 -0.0659  0.5941 -0.0641
17210TIP3   OH273120   0.999   6.106  12.861 -0.7137 -0.2225 -0.7455
17210TIP3    H173121   0.926   6.124  12.801 -2.0479 -1.0903  0.5487
17210TIP3    H273122   1.077   6.124  12.809 -1.8301  0.8588 -2.1509
17211TIP3   OH273123   2.965   5.226  15.561 -0.4320 -0.1102  0.1213
17211TIP3    H173124   2.983   5.319  15.549 -0.2867 -0.0898  0.5026
17211TIP3    H273125   2.969   5.213  15.655  0.2124 -0.6414  0.0273
17212TIP3   OH273126   0.019   6.521  16.989  0.6846  0.0301  0.6282
17212TIP3    H173127   0.071   6.541  17.067  1.1061 -0.5156  0.4948
17212TIP3    H273128  -0.072   6.523  17.020  0.8623 -0.5100  1.2206
17213TIP3   OH273129   1.482   3.238   0.934 -0.0995  0.0965 -0.1705
17213TIP3    H173130   1.431   3.267   0.859  0.1460 -0.6262 -0.6241
17213TIP3    H273131   1.571   3.227   0.900 -0.1437 -1.0006  0.0220
17214TIP3   OH273132   2.364   6.769  12.104  0.0820 -0.4181  0.4538
17214TIP3    H173133   2.417   6.713  12.160  1.9374  1.7956  1.0301
17214TIP3    H273134   2.420   6.791  12.030  0.1960  2.1973  1.2051
17215TIP3   OH273135   2.825   3.334   5.268 -0.2137  0.1899 -0.4128
17215TIP3    H173136   2.901   3.371   5.223 -0.6909  1.8714  0.0900
17215TIP3    H273137   2.752   3.351   5.208 -1.2760  4.5281  1.7270
17216TIP3   OH273138   3.897   2.083  12.879  0.0537  0.0991  0.7090
17216TIP3    H173139   3.839   2.141  12.830  0.1441 -0.2684  0.1537
17216TIP3    H273140   3.840   2.044  12.946 -0.2731 -0.0457  0.3508
17217TIP3   OH273141   2.234   1.461   3.276 -0.0953 -0.1467 -0.4263
17217TIP3    H173142   2.239   1.548   3.317 -1.6779  0.0247 -0.5225
17217TIP3    H273143   2.297   1.408   3.325 -1.6361  0.1525  2.0412
17218TIP3   OH273144   0.971   5.027  11.412  0.7670 -0.0249  0.5157
17218TIP3    H173145   0.981   4.984  11.497  3.3448 -0.4682  0.0878
17218TIP3    H273146   0.955   4.956  11.351  3.2778 -0.3018  0.0674
17219TIP3   OH273147   6.171   4.297   6.148  0.0312 -0.3452 -0.7270
17219TIP3    H173148   6.083   4.283   6.114  0.1267  0.2058 -1.2279
17219TIP3    H273149   6.160   4.306   6.242 -0.7065  1.6704 -0.9753
17220TIP3   OH273150   4.801   4.889  15.996 -0.4046 -0.2661  0.7520
17220TIP3    H173151   4.785   4.836  16.073 -0.5025 -1.0916  0.1784
17220TIP3    H273152   4.793   4.979  16.026  0.3702 -0.5500  1.8802
17221TIP3   OH273153   3.218   0.475   1.102  0.0678  0.0197  0.9509
17221TIP3    H173154   3.289   0.416   1.127  0.9307  0.5058 -0.2283
17221TIP3    H273155   3.148   0.418   1.070  0.0033 -0.4533  1.9168
17222TIP3   OH273156   3.303   1.224   0.072  0.4485  0.2790 -0.6242
17222TIP3    H173157   3.253   1.272   0.137 -1.1207 -0.2805 -1.3705
17222TIP3    H273158   3.247   1.150   0.048  1.1862  0.2057 -2.2488
17223TIP3   OH273159   4.139   6.514  12.248 -0.0599 -0.1712 -0.2784
17223TIP3    H173160   4.174   6.431  12.280 -0.4193 -0.4439 -0.5744
17223TIP3    H273161   4.099   6.555  12.325  0.1989 -0.2325 -0.1129
17224TIP3   OH273162   5.712   2.286   2.444  0.3306  0.8402  0.5025
17224TIP3    H173163   5.620   2.309   2.452  0.7095  2.5778  0.1444
17224TIP3    H273164   5.731   2.236   2.523 -0.2394  2.9367  2.0536
17225TIP3   OH273165   4.038   0.753   1.575 -0.2315 -0.5215 -0.5146
17225TIP3    H173166   3.955   0.794   1.550  0.7645  2.2310  0.3188
17225TIP3    H273167   4.090   0.754   1.495 -0.5480 -1.1224 -0.7364
17226TIP3   OH273168   0.078   5.580  10.833 -0.7894  0.0456  0.1724
17226TIP3    H173169   0.000   5.631  10.810  0.1484  1.0282 -0.9776
17226TIP3    H273170   0.151   5.642  10.825  0.3678 -1.3687 -0.8902
17227TIP3   OH273171   5.206   4.516  13.229 -0.2706  0.2546 -0.1206
17227TIP3    H173172   5.258   4.535  13.307 -0.4710 -0.2807  0.1480
17227TIP3    H273173   5.120   4.553  13.248 -0.2832  0.2377 -0.1448
17228TIP3   OH273174   0.969   3.069  13.210  0.4221 -0.1438  0.1923
17228TIP3    H173175   1.026   3.014  13.264  0.8129  0.4966  0.4471
17228TIP3    H273176   1.023   3.095  13.136  0.3950  0.2860  0.3201
17229TIP3   OH273177   3.337   0.239   5.704 -0.3392 -0.0551  0.2052
17229TIP3    H173178   3.416   0.191   5.729 -0.1802  0.8172  1.4790
17229TIP3    H273179   3.265   0.188   5.741 -0.3525 -0.5573 -0.4875
17230TIP3   OH273180   1.077   1.147  15.756 -0.0710  0.4471 -0.7423
17230TIP3    H173181   1.152   1.171  15.700 -0.0244  0.5759 -0.6248
17230TIP3    H273182   1.020   1.224  15.753  1.5200  1.9247  2.1467
17231TIP3   OH273183   5.468   6.623   0.555  0.0869 -0.2889  0.1675
17231TIP3    H173184   5.553   6.583   0.534  0.3939  0.7096 -0.5659
17231TIP3    H273185   5.419   6.553   0.597  1.1744 -0.9715  0.3470
17232TIP3   OH273186   3.639   2.172  14.598 -0.5506 -0.1832  0.3539
17232TIP3    H173187   3.687   2.253  14.616  1.4907 -1.1081 -0.5851
17232TIP3    H273188   3.628   2.131  14.684  0.3498  0.0848  0.6062
17233TIP3   OH273189   5.802   5.487   1.443  0.2825 -0.2611  0.2471
17233TIP3    H173190   5.750   5.567   1.430 -0.6994 -1.1175 -1.3322
17233TIP3    H273191   5.780   5.459   1.532 -2.3287 -0.7820 -0.4834
17234TIP3   OH273192   1.257   4.724  15.488 -0.1533 -0.3373  0.0183
17234TIP3    H173193   1.295   4.766  15.411 -0.3314  1.2004  0.7190
17234TIP3    H273194   1.164   4.720  15.470 -0.3563  1.1156  0.5985
17235TIP3   OH273195   2.587   5.749  16.339  0.1132  0.2386  0.5372
17235TIP3    H173196   2.573   5.749  16.244  1.3050  2.5929  0.2736
17235TIP3    H273197   2.650   5.678  16.354 -1.3121 -1.2377 -0.1368
17236TIP3   OH273198   2.556   2.407   4.725 -0.0983  0.2594 -0.0120
17236TIP3    H173199   2.580   2.402   4.633  1.7270 -2.1292  0.4908
17236TIP3    H273200   2.604   2.336   4.766 -1.8337  0.4639  2.6077
17237TIP3   OH273201   1.358   3.633   5.363  0.0566  0.3372 -0.3793
17237TIP3    H173202   1.413   3.631   5.285  1.4358  0.3476  0.5751
17237TIP3    H273203   1.296   3.561   5.350 -1.5914  1.9848 -2.7409
17238TIP3   OH273204   3.549   2.322  15.383  0.0014 -0.0066 -0.9456
17238TIP3    H173205   3.455   2.308  15.388  0.0485  0.1345  1.3067
17238TIP3    H273206   3.574   2.352  15.470  2.0818  0.3343 -1.5936
17239TIP3   OH273207   2.186   0.538  15.803 -0.0877 -0.5560  0.6342
17239TIP3    H173208   2.247   0.608  15.779 -0.5546 -0.7171 -1.2021
17239TIP3    H273209   2.238   0.476  15.853  0.7119  0.3530  0.9632
17240TIP3   OH273210   6.780   5.507   6.330 -0.0687  0.5338 -0.2852
17240TIP3    H173211   6.782   5.597   6.363  0.6037 -0.1859  1.7927
17240TIP3    H273212   6.688   5.481   6.337 -0.0090  0.5448  0.6708
17241TIP3   OH273213   0.639   5.740   2.372 -0.4071 -0.6460  0.2291
17241TIP3    H173214   0.598   5.795   2.305 -0.9548 -0.6702  0.5358
17241TIP3    H273215   0.731   5.767   2.372  0.3962 -2.7976 -2.7500
17242TIP3   OH273216   4.863   1.822  12.866 -0.4547 -0.3371 -0.9508
17242TIP3    H173217   4.857   1.881  12.791 -1.8018  2.6957  1.3231
17242TIP3    H273218   4.910   1.746  12.833  1.5813  2.0454 -4.0946
17243TIP3   OH273219   1.324   2.750   2.435  0.1948 -0.8113  0.3307
17243TIP3    H173220   1.301   2.804   2.360 -2.2339 -0.0976  1.4731
17243TIP3    H273221   1.332   2.661   2.400 -1.9235 -0.6689 -0.6681
17244TIP3   OH273222   4.050   0.691   5.939 -0.1424 -0.9057  0.2303
17244TIP3    H173223   4.139   0.673   5.910  1.1160  2.5958  1.4407
17244TIP3    H273224   4.060   0.741   6.020 -3.2774 -1.3551  1.0407
17245TIP3   OH273225   1.462   0.059  15.706 -0.3489 -0.5779 -0.0193
17245TIP3    H173226   1.454   0.043  15.800  1.2247  0.4163  0.3395
17245TIP3    H273227   1.380   0.102  15.681 -0.1462  0.6414  1.2722
17246TIP3   OH273228   0.687   5.633   3.649 -0.1567 -0.4258 -0.7248
17246TIP3    H173229   0.759   5.640   3.586  0.4280 -0.4235 -0.0704
17246TIP3    H273230   0.725   5.587   3.724 -0.8254 -0.3750 -0.3470
17247TIP3   OH273231   0.519   0.654  12.640  0.1458 -0.4137  0.0754
17247TIP3    H173232   0.579   0.592  12.600 -0.0243 -2.3332  2.5759
17247TIP3    H273233   0.555   0.671  12.727 -0.9674  1.3433  0.2599
17248TIP3   OH273234   5.720   3.901  15.814 -0.6849 -0.4435 -0.2946
17248TIP3    H173235   5.702   3.938  15.900  0.3380 -1.3225  0.3209
17248TIP3    H273236   5.657   3.830  15.805 -0.5854 -0.5555 -0.1237
17249TIP3   OH273237   4.639   6.612  13.041  0.0324 -0.0963  0.3683
17249TIP3    H173238   4.568   6.643  12.985  0.7415  0.2034 -0.3866
17249TIP3    H273239   4.679   6.540  12.992 -0.2921 -0.8409  1.1796
17250TIP3   OH273240   5.598   3.734   2.069  0.0723 -0.2683  0.2300
17250TIP3    H173241   5.663   3.802   2.089 -0.6211  0.7495 -0.8463
17250TIP3    H273242   5.514   3.780   2.069 -0.4726 -1.2341 -0.0242
17251TIP3   OH273243   3.849   0.391  13.908  0.0217  0.5436  0.1125
17251TIP3    H173244   3.870   0.340  13.830 -1.6648 -0.7479  0.4569
17251TIP3    H273245   3.758   0.370  13.926  0.7508 -0.3331  3.2783
17252TIP3   OH273246   1.544   3.374  11.422  0.1846  0.0516  0.4707
17252TIP3    H173247   1.622   3.383  11.368 -1.4884  0.8200 -1.9754
17252TIP3    H273248   1.531   3.461  11.459 -0.5917  0.4618 -0.7367
17253TIP3   OH273249   2.947   0.559   2.838 -0.0134  0.1815 -0.4484
17253TIP3    H173250   3.001   0.637   2.852 -1.9701  1.6454 -0.5973
17253TIP3    H273251   2.945   0.548   2.743 -2.3754  2.0115 -0.6867
17254TIP3   OH273252   0.962   3.913   0.843  0.1407 -0.2154 -0.0416
17254TIP3    H173253   0.896   3.900   0.911  0.2485 -0.2964  0.0480
17254TIP3    H273254   0.912   3.920   0.762  0.0806 -1.3281 -0.1189
17255TIP3   OH273255   6.781   5.481   4.187 -0.2182  0.2420 -0.1246
17255TIP3    H173256   6.795   5.523   4.272  0.8221 -1.8892  0.8276
17255TIP3    H273257   6.699   5.433   4.197  1.0548 -1.9706  0.6234
17256TIP3   OH273258   6.295   6.604   1.422  0.5391  0.4103 -0.8756
17256TIP3    H173259   6.357   6.676   1.428  1.9243 -0.3509 -3.9288
17256TIP3    H273260   6.209   6.645   1.431  1.3254  1.6050  2.6600
17257TIP3   OH273261   4.279   3.543  11.464 -0.3032 -0.4891  0.3638
17257TIP3    H173262   4.360   3.492  11.456 -0.2667 -0.3047 -0.6136
17257TIP3    H273263   4.286   3.587  11.548  0.1574 -1.2559  0.7383
17258TIP3   OH273264   2.047   5.392  12.048 -0.0808 -0.5513  0.0684
17258TIP3    H173265   2.141   5.407  12.033 -0.1320  0.3405  0.5551
17258TIP3    H273266   2.036   5.297  12.038  1.3353 -1.0605  2.4728
17259TIP3   OH273267   0.623   4.790   3.499 -0.2041  0.0294 -0.0511
17259TIP3    H173268   0.635   4.873   3.545  1.7220 -0.1989 -0.0820
17259TIP3    H273269   0.602   4.728   3.568 -0.1972  0.2548  0.1559
17260TIP3   OH273270   6.137   5.740  15.121 -0.7330 -0.8433 -0.4955
17260TIP3    H173271   6.131   5.834  15.107  0.2906 -0.8053 -0.8209
17260TIP3    H273272   6.185   5.730  15.203 -2.3050 -1.0940  0.4267
17261TIP3   OH273273   0.506   2.491   5.876 -0.7704  0.3418  0.2649
17261TIP3    H173274   0.592   2.450   5.889 -0.3394  0.8509 -0.8271
17261TIP3    H273275   0.445   2.436   5.925  0.4179  1.0821  2.7467
17262TIP3   OH273276   1.410   1.715   1.537  0.2686  0.1255  0.3018
17262TIP3    H173277   1.463   1.649   1.492  0.5942  1.0735 -0.7571
17262TIP3    H273278   1.354   1.751   1.468  0.3210  1.1724  0.7856
17263TIP3   OH273279   5.907   1.486  11.440 -0.4661  0.0505 -0.3932
17263TIP3    H173280   5.857   1.432  11.501  1.5724 -0.6981  0.6876
17263TIP3    H273281   5.938   1.425  11.373 -2.1071  0.7511 -1.8776
17264TIP3   OH273282   4.803   1.325   2.348 -0.1998  0.0563 -0.0304
17264TIP3    H173283   4.838   1.240   2.375 -2.1733 -1.5703 -2.2662
17264TIP3    H273284   4.838   1.339   2.260 -2.6745 -0.2448 -1.1485
17265TIP3   OH273285   4.403   0.215  14.406  0.1474 -0.0113  0.1259
17265TIP3    H173286   4.331   0.156  14.383 -0.0575  0.1304  0.4000
17265TIP3    H273287   4.479   0.158  14.410 -0.0467 -0.2572  0.3702
17266TIP3   OH273288   4.233   2.728  15.963  0.4328 -0.3905  0.5198
17266TIP3    H173289   4.323   2.714  15.933  0.0843 -1.1552 -0.2083
17266TIP3    H273290   4.192   2.642  15.956 -0.2061 -0.1608  1.3727
17267TIP3   OH273291   3.422   3.763  12.368 -0.2399  0.2835 -0.3658
17267TIP3    H173292   3.371   3.841  12.344  0.8227  0.3512 -2.6303
17267TIP3    H273293   3.366   3.690  12.342 -0.5989  0.2831  0.3686
17268TIP3   OH273294   3.076   0.921  16.741 -0.7850 -0.0826  0.6782
17268TIP3    H173295   3.037   0.949  16.658  0.8195 -1.2584 -0.5445
17268TIP3    H273296   3.124   0.998  16.772 -0.8560  0.1699  0.1720
17269TIP3   OH273297   5.434   3.343  13.681 -0.2685  0.0529  0.3062
17269TIP3    H173298   5.359   3.388  13.642 -0.4466  2.3671  2.9535
17269TIP3    H273299   5.396   3.267  13.726 -0.3986 -1.0939 -1.6506
17270TIP3   OH273300   2.071   1.978  12.966 -0.0976 -0.5283 -0.1484
17270TIP3    H173301   2.097   1.910  13.028  1.2604 -0.6909 -0.8691
17270TIP3    H273302   2.018   1.932  12.901 -1.5208 -0.3590  0.8430
17271TIP3   OH273303   1.079   1.202  11.247 -0.2998  0.0400  0.4664
17271TIP3    H173304   1.045   1.199  11.158  1.4262  0.0962 -0.2381
17271TIP3    H273305   1.140   1.276  11.247  0.3218 -0.4443  1.4543
17272TIP3   OH273306   4.626   2.740  14.071 -0.3381  0.7075 -0.8236
17272TIP3    H173307   4.678   2.765  13.995  1.3619 -1.2118 -0.3785
17272TIP3    H273308   4.660   2.793  14.142 -0.3624  0.8707 -0.9330
17273TIP3   OH273309   1.013   3.944  12.040  0.3828  0.2523  0.3673
17273TIP3    H173310   1.093   3.896  12.015  0.5974  1.0232 -0.4427
17273TIP3    H273311   1.019   4.027  11.994 -1.7020 -0.3059 -1.0478
17274TIP3   OH273312   2.577   5.132  16.311  0.7254  0.1479 -0.2803
17274TIP3    H173313   2.583   5.225  16.285 -1.3626  0.4693  0.2031
17274TIP3    H273314   2.610   5.085  16.235  0.1703  1.2596 -1.2549
17275TIP3   OH273315   6.653   0.524   4.441 -0.5513 -0.1984 -0.1612
17275TIP3    H173316   6.629   0.494   4.353  1.9151 -0.1481 -0.9371
17275TIP3    H273317   6.729   0.472   4.465  1.1658  2.3074  0.3074
17276TIP3   OH273318   5.217   0.487  15.993 -0.1029  0.2778  0.3750
17276TIP3    H173319   5.300   0.459  15.954 -0.6067  0.6390 -1.0230
17276TIP3    H273320   5.150   0.447  15.937 -0.8509  1.4681  0.3967
17277TIP3   OH273321   3.787   1.712  11.206  0.7988  0.4318 -0.0305
17277TIP3    H173322   3.717   1.701  11.270  0.3341  1.3430 -0.3494
17277TIP3    H273323   3.824   1.798  11.226  0.6152  0.7552 -0.9850
17278TIP3   OH273324   2.062   0.906  13.837 -0.0710 -0.3503  0.5736
17278TIP3    H173325   2.105   0.890  13.754 -1.9229 -0.2953 -0.4544
17278TIP3    H273326   2.079   0.998  13.856  0.5983 -0.4382  0.4133
17279TIP3   OH273327   3.864   6.027   2.600  0.1002  0.0241 -0.2151
17279TIP3    H173328   3.825   6.083   2.533 -2.7502 -2.0333 -0.4795
17279TIP3    H273329   3.829   6.061   2.682 -1.2025 -0.9549 -0.3331
17280TIP3   OH273330   0.650   0.240   1.131  0.2348  0.0593 -0.0731
17280TIP3    H173331   0.621   0.201   1.213 -0.2226 -2.6541 -1.4350
17280TIP3    H273332   0.701   0.317   1.158  0.8054 -1.1961  2.7610
17281TIP3   OH273333   4.896   6.763  13.279  0.2341 -0.8486  0.1175
17281TIP3    H173334   4.858   6.774  13.192  0.2756  1.1051  0.3112
17281TIP3    H273335   4.961   6.694  13.268  0.5027 -0.3750 -1.5052
17282TIP3   OH273336   6.069   2.501   1.897 -0.4950 -0.5645 -0.0725
17282TIP3    H173337   6.076   2.569   1.963 -1.2098 -0.4644 -0.0824
17282TIP3    H273338   6.122   2.429   1.930  1.5649  0.5442 -0.8079
17283TIP3   OH273339   4.243   0.494   0.350  0.2170 -0.0236  0.2016
17283TIP3    H173340   4.334   0.516   0.370  0.0363 -1.0119  2.3550
17283TIP3    H273341   4.213   0.443   0.425 -1.9129 -0.3501 -0.7860
17284TIP3   OH273342   3.565   4.721   4.194 -0.8304 -0.0131 -0.1271
17284TIP3    H173343   3.641   4.744   4.248 -0.1220 -0.3746 -0.9424
17284TIP3    H273344   3.532   4.806   4.162 -0.3413  0.1071 -0.3263
17285TIP3   OH273345   1.156   3.133   3.238 -0.1447 -0.5893  0.4117
17285TIP3    H173346   1.238   3.167   3.273  0.7090 -0.9201 -1.1813
17285TIP3    H273347   1.108   3.210   3.211  0.0833 -0.4482  0.4069
17286TIP3   OH273348   2.003   2.771  16.284 -0.3151 -0.2279  0.1169
17286TIP3    H173349   2.018   2.842  16.347 -1.4597  1.8411 -1.7675
17286TIP3    H273350   2.019   2.691  16.333  1.4320  1.3288  2.2766
17287TIP3   OH273351   3.920   5.513  14.501 -0.2620  0.3222 -0.8595
17287TIP3    H173352   3.999   5.488  14.454 -0.4464  1.6548 -1.9474
17287TIP3    H273353   3.920   5.609  14.498 -0.2630  0.4868  1.9522
17288TIP3   OH273354   3.385   2.046  15.782  0.7665  0.0569  0.2298
17288TIP3    H173355   3.480   2.047  15.767  1.0645  2.7917  1.7185
17288TIP3    H273356   3.348   2.030  15.695  2.5509 -2.0103 -0.2397
17289TIP3   OH273357   2.606   2.557   1.124 -0.6252  0.1340 -0.4005
17289TIP3    H173358   2.683   2.564   1.180 -2.0817  0.6749  1.6691
17289TIP3    H273359   2.624   2.617   1.051  0.1354  1.7493  1.0369
17290TIP3   OH273360   1.175   1.830   4.362 -0.4625  0.2579 -0.3560
17290TIP3    H173361   1.143   1.905   4.411 -0.7519  0.8798 -1.4725
17290TIP3    H273362   1.116   1.822   4.287  0.9076  0.3424 -1.4986
17291TIP3   OH273363   1.737   5.839  11.602 -0.5572 -0.1201  0.2755
17291TIP3    H173364   1.742   5.744  11.592 -1.3709 -0.1254 -0.1689
17291TIP3    H273365   1.647   5.861  11.576 -0.3514  0.7779  0.2973
17292TIP3   OH273366   4.456   4.039  15.899  0.1256 -0.1620 -0.2143
17292TIP3    H173367   4.433   4.124  15.936  1.2449 -0.0824  0.3394
17292TIP3    H273368   4.444   4.049  15.805 -0.7125  0.2900 -0.0708
17293TIP3   OH273369   4.930   2.762   5.166 -0.1365  0.3884 -0.3044
17293TIP3    H173370   4.905   2.671   5.180  0.1474  0.5260  1.3151
17293TIP3    H273371   4.907   2.779   5.075 -0.3883 -1.2322 -0.5814
17294TIP3   OH273372   4.483   0.615  14.388  0.0112 -0.1424  0.5948
17294TIP3    H173373   4.530   0.617  14.471 -2.4079  0.5997  2.0693
17294TIP3    H273374   4.401   0.568  14.409 -0.1337 -1.0606 -1.7114
17295TIP3   OH273375   3.529   1.428   2.335 -0.3217  0.2776  0.1871
17295TIP3    H173376   3.619   1.458   2.341  0.5607 -2.0979 -0.1503
17295TIP3    H273377   3.499   1.457   2.249  0.2863  0.6927  0.1159
17296TIP3   OH273378   0.638   0.505   4.940  0.2873 -0.6448  0.2404
17296TIP3    H173379   0.709   0.567   4.925  2.4902 -3.4645 -2.1134
17296TIP3    H273380   0.677   0.434   4.990 -1.2522 -1.6652  0.0733
17297TIP3   OH273381   3.370   1.000   1.451 -0.0320  0.6283 -0.5846
17297TIP3    H173382   3.319   1.002   1.370  0.8366 -0.3095 -1.1642
17297TIP3    H273383   3.425   1.078   1.447  0.2445  0.4099 -1.0562
17298TIP3   OH273384   3.100   5.230   6.231  0.7892 -0.3079 -0.3087
17298TIP3    H173385   3.037   5.299   6.207  0.0458 -1.2580 -1.1983
17298TIP3    H273386   3.055   5.178   6.297  1.8820  0.8250  1.4003
17299TIP3   OH273387   2.419   2.043   2.391  0.7425 -0.4996 -0.7309
17299TIP3    H173388   2.428   2.051   2.485  1.7092  0.6388 -0.9008
17299TIP3    H273389   2.428   2.132   2.357 -2.0998 -0.4946 -1.7344
17300TIP3   OH273390   6.780   4.936  16.484  0.2663  0.0961 -0.0946
17300TIP3    H173391   6.756   4.999  16.552 -1.5371 -1.7679  1.1064
17300TIP3    H273392   6.702   4.930  16.430  0.8349 -0.2809 -0.8892
17301TIP3   OH273393   2.062   3.813   1.360 -0.4367 -0.0013  0.0035
17301TIP3    H173394   2.003   3.785   1.429 -1.3170  0.7898 -0.4082
17301TIP3    H273395   2.130   3.746   1.358 -0.7285 -0.3565  1.2093
17302TIP3   OH273396   3.952   0.311   0.429  0.0389  0.2183  0.7991
17302TIP3    H173397   3.961   0.360   0.348  0.9152 -0.5327  0.4266
17302TIP3    H273398   3.882   0.247   0.411  1.2740 -0.9800  0.0819
17303TIP3   OH273399   2.633   2.518   1.435  0.1321  0.2031  0.4214
17303TIP3    H173400   2.588   2.602   1.427 -1.9084 -0.7715  0.8317
17303TIP3    H273401   2.725   2.541   1.446 -0.3229  2.3588  0.2492
17304TIP3   OH273402   0.888   1.328  14.193 -0.1662  0.2144 -0.0498
17304TIP3    H173403   0.840   1.261  14.145  2.1149  0.3192 -2.6910
17304TIP3    H273404   0.949   1.280  14.248  0.9918  0.0293 -1.4323
17305TIP3   OH273405   0.842   0.277   4.082  0.3229  0.2249 -0.1266
17305TIP3    H173406   0.880   0.345   4.026  1.6718 -0.9280 -0.6963
17305TIP3    H273407   0.879   0.196   4.048 -1.7042 -0.8756  0.1400
17306TIP3   OH273408   0.343   1.152   2.331 -0.1645  0.5922 -0.1460
17306TIP3    H173409   0.297   1.107   2.402  1.1027 -0.9596 -0.2604
17306TIP3    H273410   0.333   1.095   2.255 -1.2229  2.0800 -1.1774
17307TIP3   OH273411   1.555   4.432   1.280 -0.2797  0.0278  0.3194
17307TIP3    H173412   1.521   4.511   1.240 -0.8379 -0.5869 -0.4459
17307TIP3    H273413   1.647   4.428   1.252 -0.1337  0.5870  0.6817
17308TIP3   OH273414   0.993   6.412   0.824 -0.4734  0.0553  0.0392
17308TIP3    H173415   0.985   6.507   0.837 -2.0441 -0.1740  1.0492
17308TIP3    H273416   1.030   6.380   0.906 -1.2159 -0.3375  0.2290
17309TIP3   OH273417   4.364   3.533   2.939 -0.1187 -0.1964  0.2365
17309TIP3    H173418   4.298   3.466   2.956 -1.5069  1.6031  2.5308
17309TIP3    H273419   4.349   3.559   2.848  0.1903 -2.5994 -0.5849
17310TIP3   OH273420   3.835   3.229  16.110 -0.3257  0.0683  0.3121
17310TIP3    H173421   3.821   3.163  16.178 -1.1490  0.4926  0.5710
17310TIP3    H273422   3.748   3.241  16.070  0.0653  0.1128 -0.5512
17311TIP3   OH273423   1.879   0.751  16.513 -0.0365  0.0225 -0.3423
17311TIP3    H173424   1.905   0.836  16.476  2.8152 -1.1426 -1.2647
17311TIP3    H273425   1.805   0.723  16.460  0.6580  0.7708 -1.7483
17312TIP3   OH273426   5.232   5.755   1.566  0.4289 -0.6928 -0.0030
17312TIP3    H173427   5.181   5.755   1.484 -1.1202 -0.3491  0.9160
17312TIP3    H273428   5.223   5.844   1.599 -0.7196 -1.3357  1.5474
17313TIP3   OH273429   1.966   1.413   0.823  0.1855 -0.4906 -0.5536
17313TIP3    H173430   2.039   1.378   0.875 -0.4140 -0.3736  0.3937
17313TIP3    H273431   1.979   1.507   0.824  0.2239 -0.4951 -0.6840
17314TIP3   OH273432   4.166   3.201   5.541 -0.5002 -0.4300  0.4259
17314TIP3    H173433   4.249   3.191   5.494 -0.9818  0.8991 -0.8163
17314TIP3    H273434   4.166   3.292   5.570 -1.0860 -0.6996  1.3052
17315TIP3   OH273435   5.035   3.264  14.045  0.6283  0.0254 -0.2158
17315TIP3    H173436   5.101   3.287  14.110  1.2137  0.3191 -0.8998
17315TIP3    H273437   5.052   3.323  13.972 -0.2739 -0.0263 -0.4801
17316TIP3   OH273438   6.347   1.504   2.722  0.4521  0.1670 -0.3582
17316TIP3    H173439   6.326   1.411   2.729  1.7335 -0.0880  0.5616
17316TIP3    H273440   6.431   1.512   2.766  1.5886  1.3380 -2.5772
17317TIP3   OH273441   3.028   4.138  12.333 -0.1632 -0.3272 -0.2647
17317TIP3    H173442   2.950   4.145  12.388 -0.8935 -1.1420 -1.1666
17317TIP3    H273443   3.059   4.228  12.323 -0.2451 -0.1312  1.1384
17318TIP3   OH273444   4.098   1.327  15.516  0.2394 -0.5646  0.1209
17318TIP3    H173445   4.164   1.320  15.585  0.3019 -0.8414  0.0329
17318TIP3    H273446   4.140   1.382  15.449 -0.3220  0.8585  0.8928
17319TIP3   OH273447   0.308   4.181  12.942 -0.5740  0.2129  0.2605
17319TIP3    H173448   0.384   4.123  12.927 -0.4418  0.8570 -1.8696
17319TIP3    H273449   0.347   4.268  12.952 -0.9461  0.3120  0.8735
17320TIP3   OH273450   4.216   1.119  16.724 -0.0533 -0.3926 -0.4534
17320TIP3    H173451   4.161   1.197  16.716 -1.7143 -1.5822 -1.3881
17320TIP3    H273452   4.170   1.063  16.786  0.1895 -1.3261 -1.0890
17321TIP3   OH273453   4.752   5.804  12.919  0.1037  0.1098 -0.2875
17321TIP3    H173454   4.723   5.762  12.838 -0.6164  0.2812 -0.1217
17321TIP3    H273455   4.680   5.863  12.943 -0.2216 -0.8063  1.1088
17322TIP3   OH273456   2.892   3.958   1.119 -0.6733 -0.1250  0.5505
17322TIP3    H173457   2.854   4.044   1.100 -2.3135 -0.5650  1.7017
17322TIP3    H273458   2.826   3.895   1.089  0.7749 -1.0603 -0.8722
17323TIP3   OH273459   0.696   3.379  15.111  0.9829  0.5514  0.4963
17323TIP3    H173460   0.601   3.370  15.107  0.9004  0.7387  1.7183
17323TIP3    H273461   0.715   3.459  15.062  0.6035  0.0486 -0.4885
17324TIP3   OH273462   4.717   0.465  14.815 -0.1173  0.4524 -0.0572
17324TIP3    H173463   4.801   0.505  14.837 -0.9944  2.2506  0.1837
17324TIP3    H273464   4.713   0.386  14.868  1.2436  0.5506  0.2233
17325TIP3   OH273465   0.001   0.594   0.010  0.6466 -0.0493 -0.2283
17325TIP3    H173466   0.010   0.660   0.079  2.6249  0.9106 -1.3010
17325TIP3    H273467   0.073   0.533   0.026  0.8825 -0.0393 -1.1767
17326TIP3   OH273468   4.912   3.498   2.626  0.1882  0.1979 -0.3653
17326TIP3    H173469   4.888   3.564   2.561 -0.5996  0.3353  0.0581
17326TIP3    H273470   4.923   3.417   2.576  1.0649  0.6136 -0.8752
17327TIP3   OH273471   3.327   5.855  17.235  0.2382 -0.7475 -0.1948
17327TIP3    H173472   3.273   5.784  17.269 -0.2598  0.2092  1.1169
17327TIP3    H273473   3.405   5.812  17.200  0.8377 -1.8095  2.2826
17328TIP3   OH273474   2.343   4.642  11.154 -0.6439 -0.2329  0.3339
17328TIP3    H173475   2.262   4.618  11.109  0.6683 -2.3280 -1.1389
17328TIP3    H273476   2.400   4.675  11.084  0.2149 -0.0706  1.0884
17329TIP3   OH273477   3.380   2.176   5.545  0.3897  0.3571  0.2623
17329TIP3    H173478   3.360   2.111   5.479 -0.3548  0.0698  0.7597
17329TIP3    H273479   3.445   2.134   5.601  2.4431  1.2655 -1.3107
17330TIP3   OH273480   0.493   1.536   5.854 -0.3414 -0.0557 -0.2048
17330TIP3    H173481   0.464   1.602   5.916 -1.0487 -0.6698  0.1392
17330TIP3    H273482   0.428   1.466   5.862  1.0721 -1.3685  0.3993
17331TIP3   OH273483   6.690   4.089  16.081 -0.0678  0.6511 -0.2313
17331TIP3    H173484   6.634   4.035  16.136 -0.6578  1.0179 -0.4559
17331TIP3    H273485   6.776   4.047  16.084 -0.3936 -0.0054 -0.0021
17332TIP3   OH273486   6.009   5.156  14.033 -0.2901 -0.0980 -0.1977
17332TIP3    H173487   5.988   5.188  14.121 -1.5113  0.1502 -0.5645
17332TIP3    H273488   6.101   5.179  14.021 -0.6685  1.8390  0.1904
17333TIP3   OH273489   2.888   2.455   1.958 -0.4367  0.0056 -0.4661
17333TIP3    H173490   2.968   2.506   1.949 -0.4455  0.3281  1.0465
17333TIP3    H273491   2.822   2.504   1.908  0.1322  0.1223 -1.1080
17334TIP3   OH273492   5.532   5.968  10.392  0.1154 -0.1722 -0.4206
17334TIP3    H173493   5.448   5.976  10.438  0.6466  0.3025  0.5076
17334TIP3    H273494   5.586   5.913  10.450  0.9080  0.7114 -0.2897
17335TIP3   OH273495   4.295   3.370  14.076 -0.1808 -0.2450  0.5865
17335TIP3    H173496   4.226   3.429  14.048  0.7724  0.3058 -0.7490
17335TIP3    H273497   4.313   3.394  14.166 -2.4030 -1.0987  1.3155
17336TIP3   OH273498   0.355   0.510   2.146 -0.1696  0.4640  0.0616
17336TIP3    H173499   0.379   0.591   2.101  0.9339  0.0889 -0.0560
17336TIP3    H273500   0.342   0.535   2.237  2.1771  0.4520  0.4416
17337TIP3   OH273501   5.340   6.348  15.134  1.1026 -0.0114  0.1291
17337TIP3    H173502   5.280   6.412  15.173  0.5929 -0.7850  0.6383
17337TIP3    H273503   5.421   6.357  15.185  0.8918 -0.0660  0.4765
17338TIP3   OH273504   4.573   3.747  12.025 -0.2686  0.7196  0.0314
17338TIP3    H173505   4.607   3.821  11.974  1.4983  0.6328  0.9881
17338TIP3    H273506   4.621   3.751  12.107 -0.2444 -1.4005  0.1766
17339TIP3   OH273507   1.907   5.104  16.103 -0.5225  0.1968  0.2804
17339TIP3    H173508   1.859   5.156  16.039 -0.5072  0.6803  0.6564
17339TIP3    H273509   1.856   5.111  16.184  1.1439  2.3697  1.2543
17340TIP3   OH273510   1.444   4.346   4.461  0.0281  0.1156 -0.8056
17340TIP3    H173511   1.517   4.319   4.406  0.7367 -0.8549  0.5553
17340TIP3    H273512   1.413   4.265   4.502 -1.8701  0.4877 -1.3760
17341TIP3   OH273513   0.280   5.271  15.022 -0.1282  0.1561 -0.0464
17341TIP3    H173514   0.190   5.301  15.015  0.6937  2.5679 -1.8012
17341TIP3    H273515   0.308   5.256  14.932  1.4818  0.4501  0.3568
17342TIP3   OH273516   2.342   5.125   4.740  0.2774  0.4331  0.0928
17342TIP3    H173517   2.426   5.141   4.697  0.4523  0.3933  0.4153
17342TIP3    H273518   2.365   5.080   4.821 -0.0263  0.7596  0.3650
17343TIP3   OH273519   3.110   4.507   3.851  0.2614  0.1142  0.2627
17343TIP3    H173520   3.115   4.484   3.944 -0.3849  0.6303  0.4305
17343TIP3    H273521   3.179   4.571   3.838  2.1030 -1.8633 -0.2132
17344TIP3   OH273522   4.415   5.779   4.919  0.1668 -0.1645 -0.2111
17344TIP3    H173523   4.456   5.775   4.833  0.1556 -2.2582 -0.1835
17344TIP3    H273524   4.478   5.825   4.974 -0.0818  1.7191 -1.4303
17345TIP3   OH273525   1.485   2.290   4.130 -0.0846  0.1147 -0.4837
17345TIP3    H173526   1.481   2.235   4.208 -1.6087  0.3492 -0.3721
17345TIP3    H273527   1.574   2.325   4.130  0.0313 -0.1301  0.9831
17346TIP3   OH273528   5.269   1.289  16.142 -0.2292  0.0301 -0.5002
17346TIP3    H173529   5.314   1.374  16.137 -0.9207  0.4957  0.6533
17346TIP3    H273530   5.253   1.277  16.235 -2.6771 -0.0026 -0.8617
17347TIP3   OH273531   4.133   2.511   5.784  0.1546  0.1933  0.0152
17347TIP3    H173532   4.159   2.547   5.699  0.9602  0.3514  0.3160
17347TIP3    H273533   4.190   2.555   5.847  0.4118 -0.8090  0.5069
17348TIP3   OH273534   4.079   0.552  13.659 -0.3925 -0.2737  0.7218
17348TIP3    H173535   4.051   0.518  13.574  0.9173  1.2178 -0.3512
17348TIP3    H273536   4.010   0.612  13.685 -0.2928  0.0831  0.1793
17349TIP3   OH273537   0.899   0.352  14.928 -0.5184 -0.2028  0.1483
17349TIP3    H173538   0.984   0.361  14.972 -0.4015  2.5373 -0.4048
17349TIP3    H273539   0.917   0.374  14.836 -1.4847 -1.7209 -0.4420
17350TIP3   OH273540   0.529   4.363   3.651  0.6601  1.2232 -0.3763
17350TIP3    H173541   0.583   4.290   3.621 -0.3676 -0.5507  1.8347
17350TIP3    H273542   0.581   4.404   3.721  0.0496  0.8198  0.3231
17351TIP3   OH273543   1.638   0.588   1.499 -0.1780 -0.5695 -0.1555
17351TIP3    H173544   1.563   0.646   1.505  0.3720  0.3024 -1.2384
17351TIP3    H273545   1.660   0.567   1.589 -1.6421 -0.7676  0.1820
17352TIP3   OH273546   3.964   1.068  13.566  0.5732  0.4484  0.1768
17352TIP3    H173547   3.944   1.149  13.519 -0.5617  0.1800  0.1668
17352TIP3    H273548   3.886   1.050  13.619  0.2225 -1.3706 -0.8627
17353TIP3   OH273549   1.323   2.552  14.034  0.4537 -0.1759 -0.0653
17353TIP3    H173550   1.305   2.624  13.974 -1.5027  1.4012  2.1958
17353TIP3    H273551   1.379   2.591  14.102 -0.1885 -0.8974  0.9075
17354TIP3   OH273552   3.428   2.900   6.948  0.4054 -0.1459 -0.0328
17354TIP3    H173553   3.492   2.958   6.907 -0.3930  0.6845 -0.1341
17354TIP3    H273554   3.345   2.921   6.905 -0.4131  0.5540  1.7499
17355TIP3   OH273555   4.335   3.088  14.282  0.3082 -0.2299 -0.6402
17355TIP3    H173556   4.279   3.060  14.209 -0.8806 -0.0697  0.1829
17355TIP3    H273557   4.337   3.183  14.276  1.1336 -0.2675 -1.1122
17356TIP3   OH273558   5.844   5.594   0.050 -0.2460  0.7736  0.2509
17356TIP3    H173559   5.918   5.582  -0.010  0.2084  0.0094  0.9357
17356TIP3    H273560   5.860   5.530   0.120 -1.8742  0.1798  0.1139
17357TIP3   OH273561   2.241   2.753   1.873 -0.0259  0.0416 -0.6625
17357TIP3    H173562   2.260   2.772   1.782  0.5301  1.5429 -0.2606
17357TIP3    H273563   2.318   2.784   1.921 -0.4784 -0.3564  0.3549
17358TIP3   OH273564   0.786   5.229   0.006  0.6908  0.0823 -0.1248
17358TIP3    H173565   0.864   5.277   0.034  0.1293  0.4633  0.8734
17358TIP3    H273566   0.719   5.297  -0.007 -0.1672 -0.3956  1.4866
17359TIP3   OH273567   5.938   3.100   4.050  0.0312 -0.3294 -0.2950
17359TIP3    H173568   5.968   3.176   4.100 -2.0050 -0.3278  1.0493
17359TIP3    H273569   5.843   3.112   4.041 -0.4556 -2.9028  0.3733
17360TIP3   OH273570   5.522   2.681  15.634 -0.1663 -0.1726  0.4589
17360TIP3    H173571   5.538   2.682  15.540 -1.2241 -1.3197  0.2498
17360TIP3    H273572   5.463   2.754  15.650  2.8768  2.4011  0.8424
17361TIP3   OH273573   3.604   3.569  16.366 -0.2473 -0.2637 -0.0209
17361TIP3    H173574   3.581   3.503  16.301 -2.3002  0.2392  0.1221
17361TIP3    H273575   3.688   3.603  16.337 -0.0159 -1.6582 -1.0977
17362TIP3   OH273576   1.606   1.676  16.275  0.3826  0.0128 -0.2151
17362TIP3    H173577   1.671   1.699  16.342 -2.0144 -0.4649  2.4495
17362TIP3    H273578   1.536   1.740  16.286 -1.8570 -2.4128  0.5014
17363TIP3   OH273579   1.793   0.171   1.607  0.5219 -0.3601  0.2800
17363TIP3    H173580   1.888   0.162   1.608  0.6057  0.2887 -0.5058
17363TIP3    H273581   1.775   0.246   1.664  0.5920  0.3079 -0.5630
17364TIP3   OH273582   6.418   0.847   3.076 -0.0861 -0.2091 -0.3681
17364TIP3    H173583   6.479   0.866   3.148 -1.4108 -0.1139  0.7566
17364TIP3    H273584   6.334   0.831   3.119 -0.3054 -3.0232 -1.6668
17365TIP3   OH273585   2.554   0.651  14.215  0.5047 -0.4939 -0.4775
17365TIP3    H173586   2.484   0.716  14.212  2.6248  1.9892  0.0851
17365TIP3    H273587   2.510   0.570  14.240 -2.2142  0.7979 -0.6767
17366TIP3   OH273588   4.131   5.648  17.321  0.4074 -0.5189  0.6520
17366TIP3    H173589   4.093   5.574  17.369  0.3819 -1.2149 -0.4019
17366TIP3    H273590   4.059   5.710  17.313 -0.0392 -1.1003  0.1222
17367TIP3   OH273591   3.212   2.391   3.865  0.0833 -0.0281  0.1008
17367TIP3    H173592   3.292   2.380   3.813 -0.2748  0.5324 -0.5930
17367TIP3    H273593   3.215   2.321   3.930  0.8044 -0.4245 -0.3519
17368TIP3   OH273594   2.609   2.007  15.355 -0.4176  0.0401 -0.3150
17368TIP3    H173595   2.660   2.072  15.404 -0.4692  0.0058 -0.2176
17368TIP3    H273596   2.604   2.043  15.266  1.9509 -1.1179 -1.0084
17369TIP3   OH273597   3.610   6.082   1.892 -0.0400  0.5106 -0.2880
17369TIP3    H173598   3.625   6.013   1.827  0.8167  0.5541 -0.1523
17369TIP3    H273599   3.570   6.154   1.843 -0.2557  0.1918 -0.5774
17370TIP3   OH273600   6.667   0.180   4.468  0.1398  0.2712 -0.2550
17370TIP3    H173601   6.676   0.146   4.379  0.6351 -0.0034 -0.1089
17370TIP3    H273602   6.581   0.221   4.470  0.6459  1.4345 -1.2344
17371TIP3   OH273603   2.641   0.546  17.262  0.3686  0.1389  0.4292
17371TIP3    H173604   2.636   0.615  17.196 -0.7247  0.2232  0.5920
17371TIP3    H273605   2.573   0.484  17.238  1.4522 -0.9954  0.1848
17372TIP3   OH273606   1.359   2.609  16.931  0.6214 -0.3167 -0.3255
17372TIP3    H173607   1.278   2.581  16.889  1.1616 -2.3472 -0.1165
17372TIP3    H273608   1.343   2.700  16.956 -1.0075 -0.1752 -1.6784
17373TIP3   OH273609   2.665   6.792  13.470 -0.0711 -0.8628 -0.0789
17373TIP3    H173610   2.665   6.816  13.563  1.8098  0.9386 -0.4570
17373TIP3    H273611   2.755   6.809  13.442 -1.4292  2.6778 -3.1592
17374TIP3   OH273612   0.751   5.061  16.717  0.4148 -0.8109 -0.0689
17374TIP3    H173613   0.767   5.006  16.641 -0.1295 -0.4729 -0.4311
17374TIP3    H273614   0.808   5.137  16.705 -0.5672 -0.1509 -0.7903
17375TIP3   OH273615   1.295   2.476   6.609 -0.0683  0.1508 -0.1596
17375TIP3    H173616   1.370   2.416   6.615  0.1329 -0.1018 -3.2954
17375TIP3    H273617   1.307   2.537   6.681  1.5642 -1.5690  1.1453
17376TIP3   OH273618   6.149   3.633  13.165  0.3921  0.0931 -0.1797
17376TIP3    H173619   6.159   3.568  13.095 -0.7892 -0.8098  0.4632
17376TIP3    H273620   6.126   3.583  13.242 -0.6993  1.2804  0.3079
17377TIP3   OH273621   6.801   2.480   3.282 -0.1374  0.0091 -0.5233
17377TIP3    H173622   6.879   2.450   3.235  0.1772  1.3117 -0.8697
17377TIP3    H273623   6.751   2.527   3.216  0.2314  1.7435  0.3792
17378TIP3   OH273624   4.099   3.041   4.463  0.2642  0.3520 -0.0982
17378TIP3    H173625   4.184   3.035   4.506 -0.5482  0.2893  1.5740
17378TIP3    H273626   4.052   2.961   4.490 -1.2057  1.5486  1.1016
17379TIP3   OH273627   5.560   2.777  13.504 -0.2819  0.2049 -0.1528
17379TIP3    H173628   5.516   2.862  13.508  1.5848  1.1955  0.5981
17379TIP3    H273629   5.526   2.729  13.579  0.4767  1.2504  0.8788
17380TIP3   OH273630   6.524   1.718  11.568 -0.0901 -0.1241 -0.6188
17380TIP3    H173631   6.502   1.809  11.585 -3.1307 -0.9745  0.5873
17380TIP3    H273632   6.507   1.707  11.474 -0.7969  0.2912 -0.5462
17381TIP3   OH273633   5.146   4.953  11.103 -0.7983  0.7380  0.2280
17381TIP3    H173634   5.131   4.876  11.158  0.5901 -0.6352 -1.1980
17381TIP3    H273635   5.067   4.959  11.049 -0.4971 -0.4025 -0.3942
17382TIP3   OH273636   6.562   5.101  11.940 -0.3263  0.0667  0.2753
17382TIP3    H173637   6.552   5.022  11.886 -3.2191 -0.8617  1.9602
17382TIP3    H273638   6.652   5.095  11.974  0.5705 -0.8232 -2.0515
17383TIP3   OH273639   6.332   0.489  15.536 -0.7895 -0.3139 -0.0498
17383TIP3    H173640   6.249   0.530  15.512 -0.9484 -0.3050  0.5074
17383TIP3    H273641   6.398   0.543  15.493 -1.1115 -0.9573 -1.4053
17384TIP3   OH273642   2.369   0.563   3.433  0.4925 -0.1726  0.5632
17384TIP3    H173643   2.454   0.561   3.389  0.6187  0.8442  0.7475
17384TIP3    H273644   2.333   0.475   3.419  1.2237 -0.3636 -0.1929
17385TIP3   OH273645   3.748   6.209   2.376  0.5215  0.1639  0.1401
17385TIP3    H173646   3.652   6.208   2.367  0.5251 -1.9986 -0.1560
17385TIP3    H273647   3.780   6.213   2.287  0.6730 -1.1598  0.1194
17386TIP3   OH273648   0.830   6.619  17.054  0.1659  0.5547 -0.1158
17386TIP3    H173649   0.915   6.633  17.011 -0.4429  0.3718 -1.4321
17386TIP3    H273650   0.772   6.683  17.013 -0.8068 -0.6786 -0.7244
17387TIP3   OH273651   6.256   0.657  16.285 -0.6006  0.3062  0.1845
17387TIP3    H173652   6.257   0.752  16.296  0.9890  0.3726 -0.2067
17387TIP3    H273653   6.221   0.624  16.368 -3.2125  1.2597 -0.4562
17388TIP3   OH273654   3.685   2.184  11.786 -0.2755 -0.1361  0.2960
17388TIP3    H173655   3.714   2.194  11.695  4.0108 -1.1845  1.3481
17388TIP3    H273656   3.711   2.265  11.829  0.8591 -0.9662  1.2387
17389TIP3   OH273657   1.635   0.213  16.007 -0.0616  0.6742  0.5101
17389TIP3    H173658   1.701   0.144  15.998 -1.5450 -0.7712  0.1711
17389TIP3    H273659   1.647   0.267  15.929  0.3416  0.1019  0.1615
17390TIP3   OH273660   4.476   3.518   4.544  0.5655 -0.5837  0.4033
17390TIP3    H173661   4.381   3.516   4.551  0.3162  0.2656 -1.8180
17390TIP3    H273662   4.499   3.610   4.554  1.0164 -0.6225 -0.1939
17391TIP3   OH273663   4.923   1.560   0.603 -0.5105  0.6114 -0.3106
17391TIP3    H173664   5.006   1.515   0.586 -0.3602  1.3537 -1.6912
17391TIP3    H273665   4.935   1.601   0.688 -1.2520 -3.2128  1.8729
17392TIP3   OH273666   2.636   4.239   5.731  0.0520  0.5572 -0.3016
17392TIP3    H173667   2.715   4.243   5.785 -0.5994  0.6606  0.6724
17392TIP3    H273668   2.654   4.298   5.658  1.6569 -0.9515 -1.2000
17393TIP3   OH273669   1.873   0.515   3.202 -0.1250 -0.3171  0.7516
17393TIP3    H173670   1.968   0.505   3.204  0.0733  1.4006  1.2550
17393TIP3    H273671   1.840   0.432   3.238  1.1279 -1.1594  0.0574
17394TIP3   OH273672   6.450   1.447  14.224 -0.4108 -0.7984 -0.0313
17394TIP3    H173673   6.437   1.459  14.130  0.0420  1.8001  0.1742
17394TIP3    H273674   6.364   1.461  14.262 -0.4604 -1.1603 -0.0121
17395TIP3   OH273675   4.927   0.175   1.683  0.1966  0.2076 -0.6374
17395TIP3    H173676   4.979   0.236   1.734 -0.4376  0.6412 -0.4962
17395TIP3    H273677   4.874   0.129   1.748  2.4049 -2.3077 -0.4276
17396TIP3   OH273678   6.465   6.752  16.419  0.0596 -0.4018  0.0498
17396TIP3    H173679   6.527   6.689  16.454  0.6932  0.2533  0.1339
17396TIP3    H273680   6.424   6.791  16.496  1.0703  0.6583  0.0827
17397TIP3   OH273681   0.899   0.169   4.669 -0.0892  0.3342  0.5920
17397TIP3    H173682   0.874   0.135   4.754 -0.3064  1.8320  1.1632
17397TIP3    H273683   0.992   0.148   4.661 -0.3491 -0.9087  0.6259
17398TIP3   OH273684   2.587   3.523   1.378  0.5920  0.4638  0.0780
17398TIP3    H173685   2.679   3.541   1.354  0.6443  0.0690 -0.0294
17398TIP3    H273686   2.536   3.562   1.306  0.6691  0.7815  0.1940
17399TIP3   OH273687   0.869   1.652  12.394 -0.6881  0.4555  0.2043
17399TIP3    H173688   0.942   1.610  12.440 -0.9785  0.6675  0.8663
17399TIP3    H273689   0.804   1.582  12.382  0.5281 -0.3662 -2.4787
17400TIP3   OH273690   4.009   0.499  12.557 -0.6139  0.0954 -0.5105
17400TIP3    H173691   3.954   0.470  12.630  0.3308 -0.6455 -0.0720
17400TIP3    H273692   3.950   0.500  12.482 -1.4142  0.0928  0.1042
17401TIP3   OH273693   6.015   1.557  15.849 -0.1334  0.1391  0.0353
17401TIP3    H173694   6.074   1.572  15.924 -1.2646  1.6531  0.6899
17401TIP3    H273695   6.071   1.519  15.782  1.3494  0.4875  1.0111
17402TIP3   OH273696   6.547   3.727   6.389  0.0918 -0.2902 -0.3788
17402TIP3    H173697   6.564   3.797   6.452 -1.6354 -0.8847  0.8348
17402TIP3    H273698   6.625   3.724   6.334  0.8995  1.4544  0.5953
17403TIP3   OH273699   3.339   6.230   6.391  0.0113 -0.2195  0.4246
17403TIP3    H173700   3.321   6.307   6.445 -0.2914 -0.2461  0.3625
17403TIP3    H273701   3.254   6.186   6.382 -0.2000  0.4630 -1.1288
17404TIP3   OH273702   1.108   2.716  17.255  0.6756 -0.2482 -0.5285
17404TIP3    H173703   1.172   2.741  17.188  0.8816 -2.0712 -1.0876
17404TIP3    H273704   1.028   2.700  17.205  0.7023 -1.1494 -0.3068
17405TIP3   OH273705   1.005   1.187  11.958 -0.3743 -0.2824  0.6880
17405TIP3    H173706   0.965   1.205  11.873  1.2878 -0.2187 -0.1112
17405TIP3    H273707   0.975   1.259  12.014  0.1969  0.8575 -0.4383
17406TIP3   OH273708   0.286   2.078  12.742  0.6139  0.4987  0.3223
17406TIP3    H173709   0.359   2.116  12.694  0.4002  0.6438  0.1112
17406TIP3    H273710   0.210   2.091  12.685  0.4667  0.1271  0.4311
17407TIP3   OH273711   5.178   1.527   1.668 -0.2099 -0.1786 -0.0919
17407TIP3    H173712   5.245   1.553   1.605 -1.3307  2.1811 -0.4048
17407TIP3    H273713   5.210   1.444   1.704  1.7083 -0.3018 -1.8927
17408TIP3   OH273714   5.402   3.607  16.971  0.3861 -0.0337 -0.1050
17408TIP3    H173715   5.339   3.568  17.031  0.4173 -0.3436 -0.2747
17408TIP3    H273716   5.468   3.540  16.957 -0.1797 -0.3731 -1.3344
17409TIP3   OH273717   1.057   5.848  15.556 -0.2612 -0.1873  0.3812
17409TIP3    H173718   1.100   5.927  15.590 -0.5748  0.5938 -0.9503
17409TIP3    H273719   0.964   5.865  15.568 -0.3345 -0.2820 -0.0446
17410TIP3   OH273720   4.240   1.617  13.855  0.1230  0.0856 -0.3771
17410TIP3    H173721   4.176   1.613  13.785 -0.7965  0.8472  0.3798
17410TIP3    H273722   4.288   1.699  13.839 -0.4543  0.5418  0.1630
17411TIP3   OH273723   1.759   4.081  13.133 -0.5251 -0.7161  0.0521
17411TIP3    H173724   1.787   4.163  13.093 -1.6223  0.4727  1.6259
17411TIP3    H273725   1.664   4.086  13.137 -0.6337 -2.1669  0.0171
17412TIP3   OH273726   1.736   0.795   6.256  0.0548 -0.1859 -0.1020
17412TIP3    H173727   1.652   0.778   6.299 -0.3663  1.1202 -0.3709
17412TIP3    H273728   1.799   0.801   6.328 -0.2900 -0.0266  0.1879
17413TIP3   OH273729   2.761   0.357  13.983 -0.6248  0.5219 -0.1295
17413TIP3    H173730   2.666   0.351  13.996 -0.5757 -0.6177 -0.2404
17413TIP3    H273731   2.775   0.448  13.956 -1.7429  0.5810 -0.5705
17414TIP3   OH273732   0.545   1.143   5.038 -0.6141 -0.0027 -0.3750
17414TIP3    H173733   0.572   1.074   4.977 -1.0233  0.5342 -1.1839
17414TIP3    H273734   0.622   1.158   5.092 -0.1377 -0.2899 -0.9534
17415TIP3   OH273735   5.842   6.191  15.728  0.1230 -0.1489 -0.1870
17415TIP3    H173736   5.758   6.236  15.736  1.3854  1.9767  2.6141
17415TIP3    H273737   5.843   6.129  15.800  0.5559 -0.9945 -0.9006
17416TIP3   OH273738   4.192   4.416   5.018  0.4142 -0.3845 -0.6184
17416TIP3    H173739   4.193   4.340   4.960 -1.0606 -0.2048 -0.9347
17416TIP3    H273740   4.108   4.458   5.000  1.6990  2.0503 -1.3634
17417TIP3   OH273741   4.442   1.700  12.932 -0.2936  0.2722  0.5557
17417TIP3    H173742   4.525   1.691  12.884 -0.7779  1.9521 -0.6977
17417TIP3    H273743   4.443   1.628  12.995  1.9942  0.0784  0.3931
17418TIP3   OH273744   2.700   2.443   2.477  0.4795  0.3581  0.0728
17418TIP3    H173745   2.621   2.420   2.526  1.7944 -0.5201  1.8762
17418TIP3    H273746   2.667   2.481   2.396 -1.7932 -0.4296  0.5533
17419TIP3   OH273747   4.477   1.996   2.678  0.0000  0.7497 -0.2612
17419TIP3    H173748   4.428   1.924   2.637  1.6563 -0.4343 -0.2903
17419TIP3    H273749   4.464   2.070   2.618 -0.2891 -0.0295 -1.1971
17420TIP3   OH273750   1.085   3.814   0.570  0.2377  0.3629  0.6645
17420TIP3    H173751   1.021   3.830   0.500  0.2725  0.0129  0.5487
17420TIP3    H273752   1.166   3.794   0.524  0.0622 -0.6902  0.7798
17421TIP3   OH273753   3.261   0.774  14.854 -0.9300 -0.5474 -0.1605
17421TIP3    H173754   3.306   0.782  14.770  0.3269 -0.7118  0.4845
17421TIP3    H273755   3.168   0.786  14.832 -0.4968  0.9133 -1.3471
17422TIP3   OH273756   2.785   5.249   5.293  0.0949 -0.3184 -0.0270
17422TIP3    H173757   2.807   5.301   5.370 -0.8322  0.8470 -0.5213
17422TIP3    H273758   2.757   5.312   5.227  2.2650 -1.1443 -1.8871
17423TIP3   OH273759   3.753   1.701   0.966  0.7902  0.7695 -0.5982
17423TIP3    H173760   3.757   1.780   1.019  0.2192 -0.1344  0.8581
17423TIP3    H273761   3.685   1.647   1.008 -2.5177  1.4921 -4.3837
17424TIP3   OH273762   6.110   1.376  11.683 -0.7421 -0.4577  0.1923
17424TIP3    H173763   6.127   1.364  11.589 -0.1801 -0.6611  0.3134
17424TIP3    H273764   6.017   1.357  11.693 -1.0298  0.5140 -0.4810
17425TIP3   OH273765   6.557   0.140   5.532 -0.1391  0.2653  0.2050
17425TIP3    H173766   6.636   0.185   5.562 -0.8733  1.0691  0.9760
17425TIP3    H273767   6.523   0.097   5.610 -0.0499 -0.7235 -0.2940
17426TIP3   OH273768   3.930   3.881  13.750 -0.5325 -0.7916 -0.3684
17426TIP3    H173769   3.951   3.857  13.840  0.3901 -0.5460 -0.5118
17426TIP3    H273770   3.920   3.798  13.704  1.0638 -0.9345 -0.5024
17427TIP3   OH273771   1.163   4.221   2.792 -0.7647 -0.2699  0.5951
17427TIP3    H173772   1.224   4.287   2.759 -2.5263  1.0950 -0.0861
17427TIP3    H273773   1.124   4.184   2.713 -0.7231 -1.2555  1.0202
17428TIP3   OH273774   5.740   0.464  17.292 -0.4356 -0.2338 -0.0249
17428TIP3    H173775   5.763   0.472  17.200  0.1657 -1.5603 -0.0102
17428TIP3    H273776   5.788   0.387  17.323 -1.4123 -0.4156  1.1438
17429TIP3   OH273777   3.982   4.039   3.551  0.2894  0.0665  0.2614
17429TIP3    H173778   3.926   4.023   3.475  0.0406  0.0655  0.4448
17429TIP3    H273779   4.053   3.975   3.542  0.3196  0.1416 -0.0292
17430TIP3   OH273780   1.509   2.381  14.260 -0.2659  0.2648  0.4562
17430TIP3    H173781   1.427   2.333  14.272  0.8359 -1.3834  1.9113
17430TIP3    H273782   1.562   2.324  14.204 -0.2002  1.4826 -0.7746
17431TIP3   OH273783   0.566   0.542   5.718 -0.0848  0.1132  0.3153
17431TIP3    H173784   0.645   0.488   5.709 -1.1055 -1.5371  0.8219
17431TIP3    H273785   0.524   0.537   5.633  0.2459  0.8717  0.0925
17432TIP3   OH273786   2.954   2.659   2.197 -0.3137 -0.0922 -0.3904
17432TIP3    H173787   2.987   2.742   2.161  0.2708  0.2728  0.9290
17432TIP3    H273788   2.915   2.615   2.122 -2.1159  2.0889 -0.8488
17433TIP3   OH273789   4.965   0.154   4.528  1.2008 -0.1800 -0.2782
17433TIP3    H173790   4.963   0.058   4.518  4.1480 -0.4075  0.3930
17433TIP3    H273791   4.962   0.187   4.438  0.5912 -0.9144 -0.5389
17434TIP3   OH273792   3.883   3.578  13.950  0.0471 -0.3188  0.2925
17434TIP3    H173793   3.804   3.540  13.989 -0.6760  0.9903  0.1406
17434TIP3    H273794   3.912   3.643  14.014  1.8236 -1.7111  0.9954
17435TIP3   OH273795   6.398   0.753   5.751  0.3407  0.8615  0.1536
17435TIP3    H173796   6.469   0.697   5.783  1.1848  2.2300  0.7780
17435TIP3    H273797   6.343   0.768   5.827 -0.8882 -0.5070 -0.4148
17436TIP3   OH273798   4.317   4.258  12.328 -0.1938 -0.5845 -0.4999
17436TIP3    H173799   4.386   4.236  12.391 -1.9639 -0.8534  1.4594
17436TIP3    H273800   4.274   4.174  12.310 -0.1744 -0.3840 -1.5316
17437TIP3   OH273801   3.184   3.672  12.163 -0.3659 -0.1590  0.3633
17437TIP3    H173802   3.190   3.588  12.209  0.2747 -1.5836 -2.1740
17437TIP3    H273803   3.103   3.667  12.114 -0.2850  0.6993  0.1328
17438TIP3   OH273804   3.848   1.959  11.935 -0.2370 -0.1945 -0.3863
17438TIP3    H173805   3.778   2.021  11.918  0.7946  1.2506  0.4212
17438TIP3    H273806   3.897   1.954  11.853  1.0725  1.9579  0.1884
17439TIP3   OH273807   0.869   1.279  10.904 -0.4696  0.1295 -0.3045
17439TIP3    H173808   0.927   1.355  10.896 -1.0883  0.4999 -1.5665
17439TIP3    H273809   0.899   1.218  10.836 -0.3674 -0.5030  0.2945
17440TIP3   OH273810   4.050   2.315  16.626  0.2190 -0.1779  0.4485
17440TIP3    H173811   4.119   2.249  16.634  0.0737 -0.2676  1.0459
17440TIP3    H273812   3.969   2.266  16.640  0.1445  0.2303  1.5746
17441TIP3   OH273813   5.021   1.810   2.238  0.2692  0.1146 -0.1422
17441TIP3    H173814   5.043   1.725   2.199  0.7521  0.1241  0.1014
17441TIP3    H273815   5.106   1.851   2.256  0.0375  0.7166 -0.3970
17442TIP3   OH273816   3.669   4.910  14.382  0.1985 -0.0932  0.4142
17442TIP3    H173817   3.672   4.941  14.473 -0.9985  1.0036  0.1186
17442TIP3    H273818   3.652   4.816  14.389  1.2310 -0.2260  1.3258
17443TIP3   OH273819   2.630   4.033  14.582  0.0579 -0.1834  0.6612
17443TIP3    H173820   2.537   4.011  14.571  0.6160 -2.3069 -0.2496
17443TIP3    H273821   2.649   4.090  14.507  0.3822 -3.0587 -1.6397
17444TIP3   OH273822   0.641   3.208  12.791 -0.3686  0.2617  0.0715
17444TIP3    H173823   0.636   3.188  12.885 -0.7097  0.4933  0.1052
17444TIP3    H273824   0.717   3.160  12.760 -1.6859 -1.8647 -0.0467
17445TIP3   OH273825   5.429   4.551  11.670 -0.2462  0.2362 -0.3484
17445TIP3    H173826   5.508   4.601  11.650 -2.5860  3.7462 -1.7471
17445TIP3    H273827   5.427   4.546  11.766  1.6380 -0.0013 -0.2854
17446TIP3   OH273828   0.313   2.386   3.569  0.3196 -0.1582  0.1240
17446TIP3    H173829   0.360   2.401   3.487  0.7481 -2.5134 -0.1350
17446TIP3    H273830   0.232   2.343   3.543 -0.7337  1.3730  0.7840
17447TIP3   OH273831   4.052   5.839  14.162 -0.3518  0.3512  0.7542
17447TIP3    H173832   4.047   5.745  14.175  1.2080  0.2030  0.4754
17447TIP3    H273833   4.134   5.853  14.115 -1.2913  1.7136 -0.5969
17448TIP3   OH273834   6.051   3.049  10.885 -0.2036 -0.0795  0.5637
17448TIP3    H173835   5.993   3.107  10.835 -0.9933 -1.8921 -0.7584
17448TIP3    H273836   6.138   3.085  10.872 -0.6069  0.5143 -0.6624
17449TIP3   OH273837   4.044   5.357  11.708 -0.0597 -0.0223  0.0040
17449TIP3    H173838   3.985   5.350  11.634 -0.7963 -0.1356  0.5885
17449TIP3    H273839   4.113   5.293  11.690 -0.4642 -0.3591 -0.3694
17450TIP3   OH273840   1.222   0.702  14.275  0.3020 -0.4503 -0.5747
17450TIP3    H173841   1.176   0.744  14.348  0.3794 -1.7675  0.2670
17450TIP3    H273842   1.312   0.734  14.282  0.4362 -0.9676  0.2602
17451TIP3   OH273843   5.778   1.635  10.664 -0.3799 -0.0258  0.1504
17451TIP3    H173844   5.716   1.707  10.652  0.4429  1.2021  2.6726
17451TIP3    H273845   5.752   1.593  10.746  0.1100 -1.6646 -0.4803
17452TIP3   OH273846   2.359   5.284  14.719 -0.0214 -0.1792 -0.1508
17452TIP3    H173847   2.348   5.378  14.702 -3.1054 -0.1429  1.3702
17452TIP3    H273848   2.329   5.242  14.638 -1.3953  0.1722  0.1389
17453TIP3   OH273849   6.750   6.709   2.969  0.3008  0.2227  0.5631
17453TIP3    H173850   6.807   6.785   2.958 -0.9190  0.8292 -2.4004
17453TIP3    H273851   6.808   6.633   2.956  0.5548  0.8203 -2.4248
17454TIP3   OH273852   6.248   2.702  12.951 -0.5604  0.1319  0.4641
17454TIP3    H173853   6.159   2.723  12.924  0.3091  1.4532 -1.6374
17454TIP3    H273854   6.304   2.748  12.889  1.6103 -1.6464  0.9422
17455TIP3   OH273855   2.231   4.542   2.109 -0.2254  0.3761  0.2871
17455TIP3    H173856   2.273   4.464   2.072 -0.5033 -0.1328  1.0260
17455TIP3    H273857   2.300   4.583   2.161 -0.9213 -1.2191  2.6671
17456TIP3   OH273858   2.784   0.156  13.673 -0.2922  0.0236 -0.3092
17456TIP3    H173859   2.873   0.149  13.640  0.6803  1.1424  1.8889
17456TIP3    H273860   2.757   0.245  13.650 -0.1217  0.3299  0.6516
17457TIP3   OH273861   2.358   5.651   4.174 -0.0678 -0.2620 -0.3924
17457TIP3    H173862   2.440   5.616   4.210 -1.2111 -0.6521  2.0674
17457TIP3    H273863   2.370   5.745   4.173  0.9140 -0.3786 -1.4559
17458TIP3   OH273864   4.633   1.946  16.700  0.1370 -0.2553  0.0233
17458TIP3    H173865   4.660   2.016  16.759 -0.8141 -1.4334  1.9722
17458TIP3    H273866   4.684   1.960  16.621  0.5911  2.1169  0.6539
17459TIP3   OH273867   0.276   1.767  11.231  0.1875  0.1025  0.3470
17459TIP3    H173868   0.290   1.857  11.199  0.0569 -0.5490 -1.7020
17459TIP3    H273869   0.205   1.734  11.175  0.5121 -1.4127  0.8080
17460TIP3   OH273870   3.219   0.855  13.898 -0.0463 -0.3309 -0.1798
17460TIP3    H173871   3.261   0.778  13.936  0.9110 -0.3764 -1.2655
17460TIP3    H273872   3.131   0.856  13.936  0.6475 -0.6970  1.5273
17461TIP3   OH273873   5.429   4.561   5.549  0.3131 -0.0779 -0.0216
17461TIP3    H173874   5.500   4.616   5.583  0.2255  0.4803 -0.7112
17461TIP3    H273875   5.350   4.601   5.585  0.2904 -0.1495  0.0074
17462TIP3   OH273876   1.470   3.412  15.789 -0.8042  0.1740 -0.1076
17462TIP3    H173877   1.499   3.365  15.711 -1.0649 -0.4565  0.1710
17462TIP3    H273878   1.386   3.451  15.764 -1.0179 -0.2549 -0.0531
17463TIP3   OH273879   1.568   4.004   1.472  0.8207  0.3704  0.0835
17463TIP3    H173880   1.512   4.081   1.478 -1.4408 -0.9819 -1.7120
17463TIP3    H273881   1.577   3.973   1.562 -1.1245  0.8427  0.4840
17464TIP3   OH273882   2.150   1.269   6.414  0.1720  0.0851  0.2210
17464TIP3    H173883   2.124   1.219   6.492 -2.3805 -0.5330 -0.9052
17464TIP3    H273884   2.166   1.202   6.347  0.6246  0.6544 -0.2465
17465TIP3   OH273885   1.715   3.517   2.349 -0.2340  0.1062  0.6635
17465TIP3    H173886   1.625   3.543   2.366 -0.8046 -1.5644  0.3721
17465TIP3    H273887   1.733   3.550   2.261 -1.2173 -1.1194 -0.0266
17466TIP3   OH273888   2.743   0.211   4.697  0.0681  0.0338 -0.5339
17466TIP3    H173889   2.732   0.151   4.623 -1.4499 -0.3786 -0.0123
17466TIP3    H273890   2.828   0.188   4.735  0.0930 -0.8990 -1.1307
17467TIP3   OH273891   1.976   0.852   0.812 -0.3440  0.3295 -0.2488
17467TIP3    H173892   1.993   0.758   0.816  2.0024  0.4945 -2.9779
17467TIP3    H273893   2.062   0.893   0.827 -0.9710  1.9375 -0.7918
17468TIP3   OH273894   2.187   6.365  13.978 -0.1041  0.0737 -0.0242
17468TIP3    H173895   2.230   6.334  13.898 -0.8286 -1.6413  0.2123
17468TIP3    H273896   2.111   6.308  13.988 -0.4804  0.7842  1.4648
17469TIP3   OH273897   4.017   6.745   4.177  0.0113 -0.4444 -0.0526
17469TIP3    H173898   4.020   6.664   4.127  0.2073  0.6950 -1.9821
17469TIP3    H273899   3.925   6.773   4.172 -0.0887 -0.6044  0.7367
17470TIP3   OH273900   5.654   6.195   4.104  0.1770 -0.2787  0.7338
17470TIP3    H173901   5.580   6.248   4.134  0.0473 -0.5845  0.9579
17470TIP3    H273902   5.696   6.248   4.035  0.0610  0.1221  0.9696
17471TIP3   OH273903   1.951   5.592  16.071  0.0508 -0.2871 -0.4871
17471TIP3    H173904   1.861   5.558  16.077 -0.8742  1.8294 -1.0530
17471TIP3    H273905   1.975   5.578  15.979 -0.6758  1.2104 -0.9528
17472TIP3   OH273906   0.949   3.431   4.603  0.3468 -0.6867  0.2972
17472TIP3    H173907   0.944   3.478   4.519 -3.0202 -2.7134 -0.8153
17472TIP3    H273908   0.910   3.346   4.586  0.1165 -1.4500  3.8012
17473TIP3   OH273909   5.564   2.905  12.326  0.3374 -0.3320  0.4661
17473TIP3    H173910   5.482   2.924  12.281  1.2501 -0.5905 -1.4272
17473TIP3    H273911   5.587   2.987  12.370 -2.4520 -1.1240  3.7780
17474TIP3   OH273912   3.514   3.717  11.327 -0.0252  0.4033  0.0545
17474TIP3    H173913   3.504   3.657  11.253  1.7565 -0.0232  0.1076
17474TIP3    H273914   3.479   3.668  11.402 -0.7183  0.3579 -0.2954
17475TIP3   OH273915   3.853   0.430  13.436  0.4114 -0.7940 -0.1809
17475TIP3    H173916   3.867   0.432  13.341  0.6084  0.2482 -0.1403
17475TIP3    H273917   3.781   0.492  13.450 -0.9257 -2.3360  0.1623
17476TIP3   OH273918   3.943   5.748  13.832 -0.5958  0.6358 -0.7608
17476TIP3    H173919   3.875   5.769  13.896 -0.7569 -0.6051 -0.5079
17476TIP3    H273920   4.014   5.809  13.852 -1.2578  1.3226 -0.4338
17477TIP3   OH273921   3.400   5.362   2.981  0.7656 -0.4532 -0.0333
17477TIP3    H173922   3.379   5.378   3.073  0.1109 -2.4566  0.2156
17477TIP3    H273923   3.384   5.268   2.969  1.0120 -0.2668 -2.1493
17478TIP3   OH273924   2.087   0.830   4.085 -0.6850 -0.4902  0.0361
17478TIP3    H173925   2.155   0.815   4.019  0.1355 -3.2974  1.3761
17478TIP3    H273926   2.005   0.814   4.038 -0.1210 -2.2840 -0.4337
17479TIP3   OH273927   4.110   3.877  15.043 -0.1430 -0.6798 -0.2734
17479TIP3    H173928   4.069   3.915  14.965 -0.1746  1.1399  0.5901
17479TIP3    H273929   4.180   3.822  15.008  0.2797  0.6268 -1.5847
17480TIP3   OH273930   6.483   6.351   6.004  0.1532  0.3572 -1.2766
17480TIP3    H173931   6.506   6.276   6.059  1.5826  0.1105 -2.1479
17480TIP3    H273932   6.509   6.428   6.056 -1.5937  0.3115 -0.2552
17481TIP3   OH273933   3.245   2.568   5.495  0.4219  0.0421 -0.0905
17481TIP3    H173934   3.180   2.613   5.549  2.1713  2.2807  0.2899
17481TIP3    H273935   3.239   2.611   5.410  0.4682 -0.6972 -0.4758
17482TIP3   OH273936   3.251   0.305  16.989 -0.1483 -0.1355 -0.3276
17482TIP3    H173937   3.310   0.364  16.941  1.0624 -0.7630  0.3200
17482TIP3    H273938   3.224   0.240  16.924  0.5068 -0.2818 -0.4631
17483TIP3   OH273939   3.208   1.056   2.362  0.0288  0.3475 -0.1352
17483TIP3    H173940   3.218   1.077   2.269  0.3654 -0.6217 -0.3316
17483TIP3    H273941   3.269   1.114   2.407  2.5984 -1.6055 -0.8476
17484TIP3   OH273942   1.267   6.468   5.367  0.8172  0.4173 -0.0135
17484TIP3    H173943   1.267   6.373   5.378  0.5924  0.3073 -0.9222
17484TIP3    H273944   1.235   6.501   5.451  0.1242 -0.3455  0.0380
17485TIP3   OH273945   2.775   2.264   5.173 -0.9778 -0.1322 -0.2215
17485TIP3    H173946   2.791   2.344   5.123 -0.9465 -0.0555 -0.0902
17485TIP3    H273947   2.773   2.195   5.107  0.6692 -0.2580 -0.1848
17486TIP3   OH273948   5.291   1.907   5.111 -0.1300 -0.1115  0.5681
17486TIP3    H173949   5.336   1.972   5.058  0.4893  0.6261  1.9543
17486TIP3    H273950   5.347   1.894   5.187 -0.7757 -1.4786  0.8536
17487TIP3   OH273951   5.088   1.223   5.743  0.6509  0.0488  0.2865
17487TIP3    H173952   5.039   1.297   5.706 -0.1815 -0.6191  0.0198
17487TIP3    H273953   5.170   1.261   5.773  0.1059  1.1458  0.4398
17488TIP3   OH273954   4.566   2.271  12.243 -0.0799 -0.1644 -0.2892
17488TIP3    H173955   4.650   2.297  12.280 -1.1793 -0.0627  2.3691
17488TIP3    H273956   4.546   2.339  12.179 -0.2179  2.5233  2.3736
17489TIP3   OH273957   1.151   4.481  14.733  0.2888 -0.2591  0.1163
17489TIP3    H173958   1.072   4.508  14.779  2.2648 -1.2493  4.6579
17489TIP3    H273959   1.144   4.385  14.727  0.3198 -0.1928 -1.2227
17490TIP3   OH273960   1.956   2.393  12.413 -0.3264 -0.0068 -0.1694
17490TIP3    H173961   1.981   2.425  12.327 -1.4595  0.6487 -0.2723
17490TIP3    H273962   1.880   2.447  12.438  0.9029  0.8729  1.9116
17491TIP3   OH273963   1.282   5.152  17.224  0.1227  0.6488 -0.0538
17491TIP3    H173964   1.335   5.077  17.197 -0.5882  0.4655 -1.0122
17491TIP3    H273965   1.344   5.212  17.267  0.9411  0.0934 -0.4397
17492TIP3   OH273966   3.595   4.757  14.012  0.3754  0.1212 -0.3696
17492TIP3    H173967   3.635   4.690  14.068 -0.3961 -0.2957 -0.2931
17492TIP3    H273968   3.570   4.827  14.073  0.6181  0.1996 -0.3610
17493TIP3   OH273969   6.189   3.102   1.222  0.2094 -0.3234  0.2279
17493TIP3    H173970   6.192   3.144   1.137 -1.3465  0.2676  0.4366
17493TIP3    H273971   6.154   3.168   1.281 -0.3711 -1.2658  0.9761
17494TIP3   OH273972   3.763   3.458   4.076  0.2860  0.2123  0.5338
17494TIP3    H173973   3.710   3.470   3.998  1.4937  1.3809 -0.1276
17494TIP3    H273974   3.699   3.457   4.148 -0.7858 -0.3334 -0.3939
17495TIP3   OH273975   2.725   5.929  10.556  0.1056  0.0060 -0.4267
17495TIP3    H173976   2.680   5.990  10.615 -0.7687 -0.5527 -0.4947
17495TIP3    H273977   2.816   5.959  10.556  0.1354  0.0231  1.1908
17496TIP3   OH273978   3.731   1.341   3.321 -0.3526  0.1706 -0.8286
17496TIP3    H173979   3.755   1.248   3.313  0.1903  0.3525 -1.4335
17496TIP3    H273980   3.639   1.340   3.344 -0.7476 -0.5259 -2.2959
17497TIP3   OH273981   4.195   2.809  11.275  0.1857  0.8278  0.5156
17497TIP3    H173982   4.278   2.790  11.317  1.2956  2.2585 -0.8998
17497TIP3    H273983   4.200   2.903  11.255 -2.0612  1.1102  0.9869
17498TIP3   OH273984   6.378   2.074   3.896 -0.2445  0.0728  0.3458
17498TIP3    H173985   6.285   2.058   3.912 -0.6410  0.5429 -1.3242
17498TIP3    H273986   6.396   2.033   3.812  0.9139  0.5089  0.3623
17499TIP3   OH273987   5.982   1.442  10.823  0.2328 -0.1811  0.1432
17499TIP3    H173988   6.050   1.402  10.769  0.0176 -1.1454  0.5778
17499TIP3    H273989   5.948   1.514  10.769  1.3362  0.0944 -0.2244
17500TIP3   OH273990   6.563   5.707   3.897  0.6551  0.3626  1.0414
17500TIP3    H173991   6.593   5.783   3.948 -0.9674  0.5912  1.7437
17500TIP3    H273992   6.469   5.722   3.887  0.8942  0.3285 -2.0888
17501TIP3   OH273993   2.024   3.526  12.436  0.1566 -0.2025 -0.7453
17501TIP3    H173994   1.939   3.528  12.393 -0.5052 -2.5800  0.2370
17501TIP3    H273995   2.052   3.434  12.428  1.8499  0.1694  0.3819
17502TIP3   OH273996   2.669   3.619  16.872  0.4226 -0.1253 -0.2529
17502TIP3    H173997   2.757   3.583  16.862  0.8067 -0.1537  2.4003
17502TIP3    H273998   2.649   3.606  16.965 -2.5989 -0.5722 -0.8662
17503TIP3   OH273999   4.576   1.739  13.956  0.3090 -0.3011  0.2940
17503TIP3    H174000   4.607   1.787  13.879 -0.4143 -0.8550 -0.3644
17503TIP3    H274001   4.492   1.781  13.977  0.3199 -0.4057  0.5499
17504TIP3   OH274002   0.636   3.524  14.307 -0.5613  0.0172  0.4582
17504TIP3    H174003   0.659   3.431  14.307 -1.4575 -0.2639 -1.4717
17504TIP3    H274004   0.578   3.534  14.382  0.9709 -0.5345  1.8019
17505TIP3   OH274005   6.018   2.560  11.225  0.0578 -0.2718 -0.1283
17505TIP3    H174006   5.995   2.572  11.317  1.0583 -0.8977  0.2185
17505TIP3    H274007   6.077   2.485  11.224 -0.8841 -1.0407 -1.4425
17506TIP3   OH274008   4.608   5.205  16.923 -0.6221  0.5068  0.5565
17506TIP3    H174009   4.627   5.277  16.863 -1.0247  0.8863  0.8738
17506TIP3    H274010   4.530   5.234  16.970 -0.6985 -0.0754  0.7941
17507TIP3   OH274011   5.084   5.660  14.511 -0.7534 -0.1040 -0.0104
17507TIP3    H174012   5.143   5.723  14.469 -0.4447 -0.0064  0.5598
17507TIP3    H274013   5.096   5.676  14.605 -0.5449 -1.1269  0.1448
17508TIP3   OH274014   3.535   5.659   4.890 -0.0215  0.5983 -0.0990
17508TIP3    H174015   3.617   5.692   4.853 -0.7320  1.9246 -0.5854
17508TIP3    H274016   3.521   5.575   4.846  0.4154  0.9784 -0.9996
17509TIP3   OH274017   6.769   0.605   1.683  0.3999 -0.5187 -0.2011
17509TIP3    H174018   6.859   0.592   1.713  0.3383 -1.2508 -0.3272
17509TIP3    H274019   6.742   0.520   1.650 -1.2504 -1.0336  2.2192
17510TIP3   OH274020   6.639   2.356   0.977  0.5644 -0.1995  0.2429
17510TIP3    H174021   6.719   2.305   0.993  0.6291  0.4341  2.2879
17510TIP3    H274022   6.657   2.441   1.017 -0.7731  0.2848 -0.1562
17511TIP3   OH274023   3.645   5.579  12.685 -0.3097  0.1071  0.2295
17511TIP3    H174024   3.686   5.500  12.650 -1.0984  1.5808 -4.9483
17511TIP3    H274025   3.718   5.640  12.697 -0.1539  0.7461 -2.9888
17512TIP3   OH274026   1.456   3.340   1.171  0.1679  0.5693 -0.6540
17512TIP3    H174027   1.478   3.339   1.078  0.0586  1.0044 -0.6841
17512TIP3    H274028   1.503   3.416   1.206 -2.1786  2.2559 -0.9394
17513TIP3   OH274029   2.788   2.548  17.067  0.2171  0.4417 -0.2456
17513TIP3    H174030   2.770   2.611  17.136 -1.7927 -1.7448  1.3774
17513TIP3    H274031   2.705   2.537  17.021  0.6151 -0.7136 -0.7482
17514TIP3   OH274032   0.374   4.410  17.065 -0.4387  0.6811 -0.3973
17514TIP3    H174033   0.300   4.429  17.007  0.6573  0.9301 -1.7690
17514TIP3    H274034   0.344   4.437  17.151 -3.3527 -2.6200 -0.1146
17515TIP3   OH274035   2.550   4.637  15.199 -0.1885  0.0953  0.0431
17515TIP3    H174036   2.529   4.544  15.208 -0.5170  0.1576 -0.0660
17515TIP3    H274037   2.643   4.639  15.176 -0.5023 -0.2788 -1.3550
17516TIP3   OH274038   5.946   4.161   2.325  0.1456  0.8090 -0.0798
17516TIP3    H174039   5.962   4.210   2.244 -2.4593  1.7993 -0.0927
17516TIP3    H274040   5.934   4.228   2.392 -1.1882  0.1530  0.3831
17517TIP3   OH274041   6.523   3.872   1.688 -0.6453  0.5775  0.3756
17517TIP3    H174042   6.524   3.793   1.741  2.5044  0.9585  1.0850
17517TIP3    H274043   6.542   3.842   1.599 -1.1133  0.3897  0.3378
17518TIP3   OH274044   5.496   2.814   2.131 -0.3277 -0.7617 -0.2399
17518TIP3    H174045   5.538   2.898   2.150 -1.4236 -0.5202  1.2892
17518TIP3    H274046   5.543   2.781   2.055  0.7937  0.7633 -0.2655
17519TIP3   OH274047   3.752   3.097   5.063 -0.0139 -0.1992 -0.3414
17519TIP3    H174048   3.772   3.187   5.040 -0.6398 -0.0456 -0.2995
17519TIP3    H274049   3.746   3.097   5.158  1.2551 -0.5593 -0.2419
17520TIP3   OH274050   5.385   4.231   0.654 -0.1392  0.7078 -0.0301
17520TIP3    H174051   5.360   4.242   0.746 -0.8415 -0.4506 -0.0647
17520TIP3    H274052   5.371   4.318   0.616 -1.3784  0.8177  0.6064
17521TIP3   OH274053   2.110   2.830  14.822 -0.6261  0.7522 -0.4588
17521TIP3    H174054   2.094   2.746  14.865 -1.7124  1.6477  0.9501
17521TIP3    H274055   2.190   2.815  14.771  1.7194  0.0224  3.0638
17522TIP3   OH274056   5.426   5.634  12.239  0.4009 -0.3065  0.2204
17522TIP3    H174057   5.343   5.593  12.216  0.9533 -1.2341 -0.1761
17522TIP3    H274058   5.448   5.596  12.324  0.2286  0.2632  0.5324
17523TIP3   OH274059   5.332   6.241  15.875  0.1288 -0.5058 -0.4243
17523TIP3    H174060   5.415   6.216  15.835 -0.7632 -0.4887 -2.4121
17523TIP3    H274061   5.356   6.299  15.948  1.9627 -2.7832  0.9291
17524TIP3   OH274062   4.508   5.625  16.514 -0.0949  0.4157  0.3547
17524TIP3    H174063   4.510   5.549  16.456  1.9963  0.9690 -0.3862
17524TIP3    H274064   4.441   5.603  16.579 -1.3430 -0.9434 -1.2729
17525TIP3   OH274065   2.401   2.483  10.655 -0.1868 -0.1320 -0.2752
17525TIP3    H174066   2.361   2.536  10.725 -0.5918 -0.1617 -0.4813
17525TIP3    H274067   2.452   2.546  10.603 -0.1727 -0.0492 -0.1621
17526TIP3   OH274068   5.460   4.879   2.135  0.1125 -0.8334  0.2440
17526TIP3    H174069   5.490   4.803   2.184 -1.5701 -2.0073 -0.4586
17526TIP3    H274070   5.371   4.894   2.166  0.6819  1.4491  1.0057
17527TIP3   OH274071   5.112   0.361   2.414 -0.2132 -0.0735 -0.4064
17527TIP3    H174072   5.040   0.402   2.461 -0.6841  1.0430 -2.0050
17527TIP3    H274073   5.071   0.327   2.334  1.1097  1.0563 -1.6012
17528TIP3   OH274074   6.321   6.796   4.872  0.2008 -0.0412  0.0095
17528TIP3    H174075   6.238   6.842   4.882  1.0995  1.3619  1.4476
17528TIP3    H274076   6.363   6.838   4.797 -0.2704 -0.5989 -0.5765
17529TIP3   OH274077   2.128   5.178  15.546  0.4288  0.2450  0.2743
17529TIP3    H174078   2.128   5.196  15.452  0.4892 -0.7283  0.0817
17529TIP3    H274079   2.217   5.200  15.575  0.4091  0.5460  0.1147
17530TIP3   OH274080   2.042   6.763  14.390 -0.3272  0.0972 -0.1047
17530TIP3    H174081   2.118   6.821  14.399  1.8250 -2.5204 -0.2427
17530TIP3    H274082   2.058   6.713  14.310 -0.5661 -2.6675  1.4374
17531TIP3   OH274083   5.217   4.505  15.088 -0.1116 -0.0926  0.2238
17531TIP3    H174084   5.294   4.544  15.129  0.6829 -1.1309 -0.2151
17531TIP3    H274085   5.249   4.421  15.053 -1.1745 -0.0363 -0.9470
17532TIP3   OH274086   5.941   1.687   0.190  0.2639 -0.6533  0.8026
17532TIP3    H174087   5.846   1.696   0.184  0.4270  1.6748  0.8484
17532TIP3    H274088   5.958   1.667   0.282 -0.1576 -1.2390  0.7648
17533TIP3   OH274089   0.180   0.316   2.119  0.0152  1.1681 -0.0664
17533TIP3    H174090   0.237   0.246   2.089 -1.3360  0.2348 -0.5684
17533TIP3    H274091   0.234   0.394   2.118  1.6152  0.1116  0.6712
17534TIP3   OH274092   2.179   1.379  12.330 -0.6826  0.0421  0.1011
17534TIP3    H174093   2.230   1.431  12.267 -0.7148 -0.6038 -0.4777
17534TIP3    H274094   2.220   1.397  12.414  1.4511 -1.5225 -0.5067
17535TIP3   OH274095   2.405   0.081  15.433  0.5593 -0.8686 -0.3135
17535TIP3    H174096   2.406   0.112  15.343  0.6374  0.1270  0.0232
17535TIP3    H274097   2.398  -0.014  15.425  1.3757 -0.8566 -1.3720
17536TIP3   OH274098   3.257   2.041   4.476  0.7236 -0.3935  0.4710
17536TIP3    H174099   3.283   1.997   4.557 -1.4155 -0.8298  0.9821
17536TIP3    H274100   3.218   1.972   4.422  0.1957  0.2918 -0.0466
17537TIP3   OH274101   6.393   3.293  15.793  0.0558 -0.3981 -0.1897
17537TIP3    H174102   6.383   3.246  15.875 -0.0721 -1.1681 -0.6352
17537TIP3    H274103   6.410   3.225  15.728  1.1825  0.2780 -0.6354
17538TIP3   OH274104   4.628   2.287  11.852 -0.3317  0.3300  0.0450
17538TIP3    H174105   4.550   2.338  11.831  1.2183  2.3289 -1.2243
17538TIP3    H274106   4.603   2.196  11.835 -2.2329  0.9707 -0.8004
17539TIP3   OH274107   6.531   4.623  13.977  0.6626 -0.4152 -0.4082
17539TIP3    H174108   6.511   4.537  13.941  2.1161 -1.4208  1.0658
17539TIP3    H274109   6.456   4.678  13.951  1.2122 -1.1923 -4.1759
17540TIP3   OH274110   3.752   1.743  15.126 -0.2678  0.1615 -0.3406
17540TIP3    H174111   3.696   1.795  15.068 -2.5827 -2.6003 -0.7720
17540TIP3    H274112   3.729   1.652  15.108  4.5887 -1.2782 -0.6781
17541TIP3   OH274113   0.450   3.625   2.238 -0.1905 -0.1336  0.2007
17541TIP3    H174114   0.391   3.576   2.295 -0.3506 -0.3740 -0.1655
17541TIP3    H274115   0.517   3.562   2.212 -1.3275 -0.6810 -1.6404
17542TIP3   OH274116   3.909   5.054   2.164 -0.1950  0.1670 -0.0975
17542TIP3    H174117   3.827   5.101   2.181 -0.1972  0.1685 -0.1128
17542TIP3    H274118   3.952   5.051   2.249  0.4167  1.3517 -0.3458
17543TIP3   OH274119   0.612   4.499  16.123 -0.8269 -0.6293  0.7052
17543TIP3    H174120   0.590   4.471  16.212 -0.9530 -1.8317  0.3099
17543TIP3    H274121   0.613   4.418  16.072  1.8661 -0.3635  0.1456
17544TIP3   OH274122   4.845   4.067  12.293 -0.1667 -0.2830  0.5676
17544TIP3    H174123   4.805   4.103  12.372 -0.8309  0.0930  0.0753
17544TIP3    H274124   4.882   4.143  12.248 -2.3739  0.0170 -0.9408
17545TIP3   OH274125   2.783   1.610   1.512 -0.6255 -0.3709  0.5080
17545TIP3    H174126   2.852   1.556   1.551 -0.3107  1.1610  2.2596
17545TIP3    H274127   2.822   1.697   1.505 -0.5865 -0.5412 -3.6628
17546TIP3   OH274128   5.685   6.552   1.589  0.0288 -0.2289  0.0009
17546TIP3    H174129   5.642   6.560   1.504  1.9974  1.2766 -0.9417
17546TIP3    H274130   5.774   6.524   1.568  0.9358  1.4190  1.4279
17547TIP3   OH274131   2.106   5.166   2.390 -0.6631  0.7337 -0.0307
17547TIP3    H174132   2.061   5.242   2.427  1.6569  2.4802 -0.5216
17547TIP3    H274133   2.111   5.184   2.296  0.7473  0.5055 -0.0295
17548TIP3   OH274134   1.853   3.701   1.169 -0.2900  0.4919 -0.5747
17548TIP3    H174135   1.938   3.729   1.133 -0.6272  0.9875 -1.0010
17548TIP3    H274136   1.840   3.756   1.246  0.4423 -0.5844  0.3584
17549TIP3   OH274137   5.052   1.511   4.578  0.0266  0.1402  0.2766
17549TIP3    H174138   5.007   1.527   4.661 -0.3297  0.1007  0.0928
17549TIP3    H274139   5.057   1.597   4.536 -0.4658  0.0370  0.0024
17550TIP3   OH274140   2.217   6.324   4.690  1.1450 -0.1202  0.2715
17550TIP3    H174141   2.203   6.234   4.721  1.0985  0.4808  2.1361
17550TIP3    H274142   2.158   6.377   4.744 -0.8542  0.8336 -2.5837
17551TIP3   OH274143   4.283   6.508   4.879  0.0448 -0.5396  0.6092
17551TIP3    H174144   4.363   6.481   4.924  0.3278 -1.4604 -0.4016
17551TIP3    H274145   4.248   6.427   4.843  0.8271  0.3518 -2.4164
17552TIP3   OH274146   3.369   4.147   0.870  0.0438 -0.3049  0.3637
17552TIP3    H174147   3.354   4.194   0.788  0.5803  0.1733  0.5326
17552TIP3    H274148   3.282   4.120   0.899 -0.2135  0.1202 -0.0124
17553TIP3   OH274149   0.757   5.290   1.733  0.4044  0.1415  0.1945
17553TIP3    H174150   0.797   5.207   1.705 -0.6161 -1.0217  2.0018
17553TIP3    H274151   0.785   5.300   1.824 -0.1926  1.3661  0.2621
17554TIP3   OH274152   4.942   5.689   4.370 -0.2989  0.0118 -0.1627
17554TIP3    H174153   4.895   5.720   4.293 -0.9971  1.9968  0.9980
17554TIP3    H274154   5.024   5.653   4.335 -1.1522 -0.3376 -1.9100
17555TIP3   OH274155   5.612   4.262   3.875  0.2012 -0.1411  0.5026
17555TIP3    H174156   5.618   4.358   3.873 -0.6034 -0.0911 -0.4034
17555TIP3    H274157   5.593   4.241   3.967 -1.8938  0.7443  0.3218
17556TIP3   OH274158   0.434   1.683  13.011 -0.6859  0.3138 -0.2666
17556TIP3    H174159   0.475   1.770  13.005 -0.2568  0.1559  0.2788
17556TIP3    H274160   0.351   1.698  13.056  0.2338  0.1938  1.5546
17557TIP3   OH274161   1.163   2.552   2.685 -0.0015  0.1304 -0.4340
17557TIP3    H174162   1.141   2.550   2.778 -0.4998 -3.5309 -0.4929
17557TIP3    H274163   1.259   2.552   2.683  0.0229 -1.3149  0.1296
17558TIP3   OH274164   0.530   0.650   2.709  0.3737 -0.3170  0.5228
17558TIP3    H174165   0.561   0.567   2.672  0.3263 -0.1789  0.1679
17558TIP3    H274166   0.539   0.713   2.637 -1.0320 -0.3413  0.2903
17559TIP3   OH274167   4.647   6.308   2.380  0.2292  0.2230 -0.3657
17559TIP3    H174168   4.739   6.283   2.389 -0.0890 -1.1137 -0.6338
17559TIP3    H274169   4.610   6.242   2.322 -0.9034  0.7540 -0.2671
17560TIP3   OH274170   2.631   1.072  13.079 -0.1038  0.0283 -0.1213
17560TIP3    H174171   2.600   1.077  13.169 -0.3836 -0.3566 -0.1912
17560TIP3    H274172   2.552   1.075  13.026  0.0319 -0.1200 -0.3373
17561TIP3   OH274173   4.156   1.506  17.172 -0.3405  0.7060 -0.4177
17561TIP3    H174174   4.224   1.551  17.121  1.5087 -0.9274  0.4921
17561TIP3    H274175   4.128   1.571  17.236  0.5223  1.3664 -0.6813
17562TIP3   OH274176   6.449   1.294   0.164 -0.4232  0.4229  0.6280
17562TIP3    H174177   6.403   1.211   0.173 -0.3435  0.4509  1.3580
17562TIP3    H274178   6.531   1.272   0.119 -1.0210  0.3358 -0.4521
17563TIP3   OH274179   4.292   2.216  11.572 -0.1716 -0.6003  0.1140
17563TIP3    H174180   4.210   2.231  11.619 -0.2253 -1.4410  0.3057
17563TIP3    H274181   4.359   2.250  11.631 -0.1540 -2.5053  1.2801
17564TIP3   OH274182   3.753   4.344  16.081 -0.1610 -0.0272  0.0693
17564TIP3    H174183   3.776   4.296  16.001  2.3604  1.2347 -0.0474
17564TIP3    H274184   3.768   4.281  16.152 -2.2890 -1.1117 -0.3479
17565TIP3   OH274185   2.594   1.038  10.454  0.9678  0.3249  0.2274
17565TIP3    H174186   2.589   1.008  10.545 -1.0024 -0.6092 -0.1464
17565TIP3    H274187   2.518   1.095  10.443 -0.3626 -1.6546 -1.5052
17566TIP3   OH274188   6.054   0.616  14.270 -0.1494  0.0002 -0.1516
17566TIP3    H174189   6.000   0.677  14.219 -1.6943 -0.6436  0.6383
17566TIP3    H274190   5.995   0.542  14.288  0.5590 -0.1072  1.9316
17567TIP3   OH274191   4.744   2.253  12.563 -0.3209 -0.0721  0.6856
17567TIP3    H174192   4.686   2.182  12.537  1.3533 -1.3133  0.1752
17567TIP3    H274193   4.749   2.309  12.485  1.1971 -1.4031 -0.2370
17568TIP3   OH274194   5.692   3.150   3.660  0.4948  0.7472  0.0385
17568TIP3    H174195   5.761   3.188   3.714  1.2877  0.2860 -0.6312
17568TIP3    H274196   5.612   3.194   3.689  1.0349  1.1553  0.9556
17569TIP3   OH274197   4.501   4.561   2.686  0.2402  0.1170 -0.2212
17569TIP3    H174198   4.464   4.646   2.661 -2.1508 -0.7503  0.0474
17569TIP3    H274199   4.546   4.577   2.769  1.3321  1.4411 -1.0435
17570TIP3   OH274200   4.331   0.051   1.679  0.3727  0.6354 -0.4105
17570TIP3    H174201   4.298  -0.039   1.669 -0.4034  0.8348  0.2410
17570TIP3    H274202   4.372   0.071   1.595  0.9673 -0.4882 -0.4200
17571TIP3   OH274203   3.071   5.594   3.165  0.4589  0.2896 -0.4763
17571TIP3    H174204   3.081   5.531   3.094  0.3383  0.1119 -0.3339
17571TIP3    H274205   3.055   5.677   3.120  0.5574  0.2095 -0.6610
17572TIP3   OH274206   3.557   2.856  13.368  0.3009 -0.3456 -0.4895
17572TIP3    H174207   3.614   2.801  13.313  1.6750 -1.3751  1.8019
17572TIP3    H274208   3.543   2.804  13.447 -0.3834  1.6383  0.7576
17573TIP3   OH274209   2.005   6.662  12.987  0.3154 -0.3963  0.1953
17573TIP3    H174210   1.987   6.644  12.895 -0.6800 -0.8699  0.4721
17573TIP3    H274211   1.961   6.746  13.004 -1.8425 -1.5916  0.8923
17574TIP3   OH274212   5.937   3.379   4.080 -0.3880  0.1018 -0.5946
17574TIP3    H174213   5.995   3.385   4.156 -2.5853  0.8232  1.1392
17574TIP3    H274214   5.849   3.385   4.117 -1.5730 -0.1492 -3.1766
17575TIP3   OH274215   3.813   5.181   2.745  0.0855  0.3866  0.3118
17575TIP3    H174216   3.737   5.239   2.752  1.1059  1.9420 -0.7169
17575TIP3    H274217   3.802   5.117   2.815 -0.3720  2.7346  2.5388
17576TIP3   OH274218   6.370   2.333  16.861 -0.6451  0.7499 -0.0169
17576TIP3    H174219   6.335   2.296  16.942  0.5292 -0.0281  0.1727
17576TIP3    H274220   6.356   2.264  16.795 -0.0885  0.6972 -0.0856
17577TIP3   OH274221   0.292   1.239   4.285  0.6775 -0.3926 -0.3247
17577TIP3    H174222   0.301   1.157   4.237  3.7606  0.6024 -1.6780
17577TIP3    H274223   0.242   1.296   4.227 -0.3058 -0.8650  0.0418
17578TIP3   OH274224   5.724   1.022  17.095  0.3324 -0.5555  0.3930
17578TIP3    H174225   5.668   1.076  17.039  0.4800 -0.8753 -0.0726
17578TIP3    H274226   5.812   1.034  17.058  0.3787 -1.0317  0.3455
17579TIP3   OH274227   6.505   0.145   6.130 -0.0766  0.3524 -0.1768
17579TIP3    H174228   6.594   0.156   6.165 -1.2377  1.4447  2.7342
17579TIP3    H274229   6.459   0.095   6.197 -1.6897 -0.2331 -1.6598
17580TIP3   OH274230   6.487   5.211  12.937  0.5265 -0.0549  0.0390
17580TIP3    H174231   6.472   5.305  12.944 -0.6123 -0.3081  1.3844
17580TIP3    H274232   6.581   5.201  12.953  0.6924  0.8607 -0.3063
17581TIP3   OH274233   6.822   5.039  11.597 -0.1587  0.0596  0.0251
17581TIP3    H174234   6.734   5.004  11.587 -0.7298  0.8592  1.8091
17581TIP3    H274235   6.813   5.133  11.583  0.7285 -0.0288 -1.3369
17582TIP3   OH274236   3.550   5.389   1.888  0.0284  0.1461 -0.3202
17582TIP3    H174237   3.502   5.393   1.805  0.1832  1.2517 -0.3707
17582TIP3    H274238   3.605   5.467   1.888 -1.3461  1.2121  1.6320
17583TIP3   OH274239   3.476   2.221   4.535 -0.1933 -0.2443 -0.5531
17583TIP3    H174240   3.547   2.160   4.512 -0.6705 -1.5218  1.1479
17583TIP3    H274241   3.412   2.211   4.465  0.7540  0.0209 -1.4781
17584TIP3   OH274242   5.723   3.973  16.343 -0.5349  0.0494  0.1765
17584TIP3    H174243   5.651   4.005  16.288  0.3745  0.5238 -0.7731
17584TIP3    H274244   5.718   3.878  16.336 -0.8375  0.0921 -0.1960
17585TIP3   OH274245   1.074   0.901   0.757  0.1216 -0.5561 -0.1659
17585TIP3    H174246   1.108   0.911   0.846  0.1491 -0.2060 -0.2166
17585TIP3    H274247   1.000   0.841   0.767 -0.3842  0.1199  0.2206
17586TIP3   OH274248   3.787   4.325   5.894  0.1784  0.2074 -0.2000
17586TIP3    H174249   3.770   4.242   5.939 -0.1005  1.1470  1.5051
17586TIP3    H274250   3.879   4.343   5.911  0.0546  0.6058  0.0527
17587TIP3   OH274251   0.533   0.033   3.553 -0.0768  0.0327  0.1591
17587TIP3    H174252   0.541   0.082   3.471 -2.5758 -1.8755 -1.3861
17587TIP3    H274253   0.529   0.100   3.621 -0.1451  1.7961 -1.4900
17588TIP3   OH274254   5.950   1.427  14.959 -0.7349  0.4307 -0.4048
17588TIP3    H174255   5.878   1.419  15.021 -2.1076 -0.3259 -2.0203
17588TIP3    H274256   5.937   1.354  14.898  0.6278  1.0744 -1.5213
17589TIP3   OH274257   3.622   4.204   5.016  0.2238 -0.5252 -0.4884
17589TIP3    H174258   3.606   4.117   4.978  0.5092 -0.2232 -1.3232
17589TIP3    H274259   3.715   4.220   5.001  0.0265  0.2151 -0.9710
17590TIP3   OH274260   5.719   1.283   4.214  0.0979 -0.4682  0.3864
17590TIP3    H174261   5.676   1.357   4.259  0.3089  0.6641 -1.2075
17590TIP3    H274262   5.801   1.272   4.261  1.3110  2.1180 -0.9312
17591TIP3   OH274263   5.834   2.870   0.999 -0.5825  0.6535 -0.5027
17591TIP3    H174264   5.755   2.847   1.049  0.0304  0.0428  0.2157
17591TIP3    H274265   5.844   2.798   0.937 -2.1465  2.0955 -2.5685
17592TIP3   OH274266   4.055   0.322  11.027 -0.7744 -0.2005 -0.0577
17592TIP3    H174267   4.002   0.244  11.011 -1.3693 -0.0007  0.8636
17592TIP3    H274268   3.997   0.395  11.004  0.2249 -0.0077 -2.2447
17593TIP3   OH274269   5.188   3.981  16.526  0.1069  0.1094  0.3748
17593TIP3    H174270   5.267   4.002  16.575  0.0072  0.3889  0.4193
17593TIP3    H274271   5.218   3.928  16.452  0.6175  1.8491 -0.7275
17594TIP3   OH274272   2.450   0.342   5.885  0.0269 -0.1061  0.6435
17594TIP3    H174273   2.413   0.263   5.845 -0.0416  0.4832 -0.5008
17594TIP3    H274274   2.441   0.327   5.979 -2.2452 -0.4261  0.4430
17595TIP3   OH274275   5.735   0.420  12.397  0.0442  0.4155  0.3844
17595TIP3    H174276   5.796   0.351  12.423  2.1409  1.3681 -1.5599
17595TIP3    H274277   5.674   0.377  12.338  0.0957 -0.1768  0.7635
17596TIP3   OH274278   4.641   0.992  11.558 -0.0394  0.1803 -0.3841
17596TIP3    H174279   4.639   0.900  11.529  1.6297  0.4138 -1.3749
17596TIP3    H274280   4.551   1.010  11.585 -0.2025 -2.0446  0.8277
17597TIP3   OH274281   3.994   2.138  11.449  0.4974  0.1198 -0.1094
17597TIP3    H174282   3.938   2.209  11.482 -0.0706 -0.6626  0.6384
17597TIP3    H274283   4.033   2.099  11.527  0.3527 -0.7637 -0.4667
17598TIP3   OH274284   4.594   3.777  13.559 -0.0981 -0.1076  0.4074
17598TIP3    H174285   4.666   3.828  13.597  0.0037 -0.1670  0.2949
17598TIP3    H274286   4.635   3.696  13.529 -0.3202 -0.3971  0.8803
17599TIP3   OH274287   5.932   5.352  15.045  0.0529 -0.3924 -0.3036
17599TIP3    H174288   5.939   5.446  15.060  0.5462 -0.2503 -1.3840
17599TIP3    H274289   5.861   5.324  15.103  0.9977  0.3521  1.2767
17600TIP3   OH274290   5.669   4.668   5.628  0.0986 -0.6185 -0.4322
17600TIP3    H174291   5.718   4.653   5.709  0.7948 -2.7042 -1.1712
17600TIP3    H274292   5.725   4.632   5.560 -1.1088 -0.1803 -1.6988
17601TIP3   OH274293   4.958   1.584  13.934 -0.7187  0.4791 -0.0237
17601TIP3    H174294   4.892   1.534  13.888 -0.4159 -0.8948  0.9748
17601TIP3    H274295   4.917   1.607  14.018  0.5625 -1.9143  1.3760
17602TIP3   OH274296   6.060   5.518  13.107  0.3577 -0.8408  0.1122
17602TIP3    H174297   6.137   5.529  13.052  0.5623  0.3048  0.5803
17602TIP3    H274298   6.032   5.608  13.127 -0.3726 -1.2322  0.9376
17603TIP3   OH274299   1.311   4.319  13.108 -0.6426 -0.3658 -0.2820
17603TIP3    H174300   1.252   4.245  13.125 -0.8529 -0.2376 -0.4434
17603TIP3    H274301   1.399   4.281  13.113 -0.7551 -0.6870 -0.6227
17604TIP3   OH274302   0.205   2.960  14.476  0.0436  0.2712 -0.0278
17604TIP3    H174303   0.119   2.926  14.499 -0.9879  1.6554 -1.6394
17604TIP3    H274304   0.188   3.044  14.435  2.1876  0.6593 -0.2652
17605TIP3   OH274305   3.476   1.888   6.082  0.1163 -0.0724 -0.3373
17605TIP3    H174306   3.447   1.801   6.107 -1.0756  1.1702  3.1621
17605TIP3    H274307   3.544   1.910   6.146  1.1050  1.2227 -1.7683
17606TIP3   OH274308   5.138   4.460  11.512  0.2543 -0.3558 -0.5779
17606TIP3    H174309   5.074   4.508  11.565  1.0258 -0.1360  0.1752
17606TIP3    H274310   5.088   4.429  11.436 -0.9845 -1.0970  0.5082
17607TIP3   OH274311   5.693   0.304  13.484  0.3156 -0.1694  0.1842
17607TIP3    H174312   5.601   0.282  13.474  0.3826  0.3415 -2.1798
17607TIP3    H274313   5.693   0.397  13.505  0.2876 -0.4473  1.4963
17608TIP3   OH274314   5.933   1.186   5.008 -0.2740 -0.3439 -0.1649
17608TIP3    H174315   5.940   1.094   4.982  0.3055 -0.3263 -0.0814
17608TIP3    H274316   5.889   1.184   5.093  4.0995 -0.9553  2.3506
17609TIP3   OH274317   0.835   3.927   1.811 -0.7485 -0.2034  0.0864
17609TIP3    H174318   0.741   3.912   1.804 -1.5814  3.5878  0.9336
17609TIP3    H274319   0.866   3.860   1.872 -2.9172 -1.2841  0.0960
17610TIP3   OH274320   1.833   5.615   3.556  0.2545 -0.1705  0.5130
17610TIP3    H174321   1.789   5.542   3.513 -0.4698  0.4288  0.2109
17610TIP3    H274322   1.887   5.574   3.624  1.5241 -1.1492 -1.0251
17611TIP3   OH274323   4.123   6.029  17.137  0.5240 -0.1442  0.0940
17611TIP3    H174324   4.218   6.022  17.130  0.5046  0.5318 -1.3197
17611TIP3    H274325   4.106   6.050  17.228  1.8617  1.4584  0.0189
17612TIP3   OH274326   2.896   2.121   6.762  0.2132 -0.0974  0.0778
17612TIP3    H174327   2.943   2.176   6.700  0.3497  0.5485  0.7280
17612TIP3    H274328   2.812   2.103   6.720 -0.0153  1.0011  0.0388
17613TIP3   OH274329   0.757   3.397  14.688  0.4164 -0.4068 -0.5804
17613TIP3    H174330   0.803   3.426  14.609  0.7348  0.8135  0.0195
17613TIP3    H274331   0.763   3.472  14.748 -2.5055 -0.1336 -0.5121
17614TIP3   OH274332   3.262   6.410   1.001  0.1304 -0.0860  0.3829
17614TIP3    H174333   3.201   6.339   1.021 -0.5627  0.7903  1.5336
17614TIP3    H274334   3.303   6.430   1.085  1.2511  0.0482 -0.1792
17615TIP3   OH274335   3.447   6.310   5.222  0.2773 -0.5027 -0.3265
17615TIP3    H174336   3.378   6.269   5.170  0.5984 -0.2597 -0.9479
17615TIP3    H274337   3.464   6.393   5.179  0.2765 -0.1208  0.3980
17616TIP3   OH274338   6.379   3.295   3.720 -0.1048 -0.0391 -0.2713
17616TIP3    H174339   6.289   3.271   3.697 -0.4853  2.4111 -1.6506
17616TIP3    H274340   6.422   3.307   3.636  1.7229 -1.6995  0.3685
17617TIP3   OH274341   0.469   5.155   3.208 -0.3315  0.2279  0.6147
17617TIP3    H174342   0.539   5.191   3.263 -0.6823 -0.6449  1.6774
17617TIP3    H274343   0.390   5.202   3.237 -0.4213  0.2024  0.4138
17618TIP3   OH274344   2.051   2.972   3.762  0.3064  0.9501 -0.2974
17618TIP3    H174345   2.005   2.926   3.832  0.5708  0.8310 -0.2001
17618TIP3    H274346   2.141   2.980   3.794  0.2795  1.4676 -0.3445
17619TIP3   OH274347   4.512   1.206  15.094 -0.4433  0.1993  0.1498
17619TIP3    H174348   4.592   1.200  15.147 -0.1367  0.1459 -0.3120
17619TIP3    H274349   4.530   1.278  15.033  0.3105 -1.4567 -1.6911
17620TIP3   OH274350   1.197   2.771  11.499 -0.2677  0.1485 -0.8717
17620TIP3    H174351   1.245   2.730  11.571 -0.5809  0.3455 -0.5488
17620TIP3    H274352   1.195   2.703  11.431  0.3838  0.1074 -0.8532
17621TIP3   OH274353   3.895   3.772  14.176  0.0312 -0.0715  0.0964
17621TIP3    H174354   3.856   3.709  14.237  0.9148 -0.9798 -0.2453
17621TIP3    H274355   3.850   3.854  14.194  0.3869 -0.2691  2.1067
17622TIP3   OH274356   1.515   5.348  16.725  0.2898  0.4471 -0.0711
17622TIP3    H174357   1.564   5.336  16.807 -1.7940 -0.7537  1.0913
17622TIP3    H274358   1.462   5.426  16.740 -0.7809 -0.2964  0.1273
17623TIP3   OH274359   0.507   1.025  12.300 -0.4952  0.3904  0.1866
17623TIP3    H174360   0.458   1.094  12.345  0.4026  0.9200  0.3676
17623TIP3    H274361   0.463   0.944  12.326 -0.0633  0.6860  1.9532
17624TIP3   OH274362   4.998   4.878   0.262  0.2477  0.1446  0.2810
17624TIP3    H174363   5.081   4.850   0.299  0.9677  1.3052 -0.3811
17624TIP3    H274364   5.016   4.965   0.226 -1.8201  1.4723  2.1753
17625TIP3   OH274365   0.548   2.883  10.492  0.6420 -0.0110 -0.0704
17625TIP3    H174366   0.487   2.907  10.561 -1.1245  1.2239 -1.9598
17625TIP3    H274367   0.527   2.792  10.471  0.0775  0.1227 -0.0837
17626TIP3   OH274368   5.318   5.379   3.394 -0.3261  0.0464 -0.6520
17626TIP3    H174369   5.381   5.446   3.422 -0.5478  1.2265 -2.7653
17626TIP3    H274370   5.372   5.303   3.372  0.0742  0.0510  0.2769
17627TIP3   OH274371   5.190   6.576   0.300  0.5478 -0.3127  0.1931
17627TIP3    H174372   5.196   6.481   0.286  1.3357  0.0432 -2.4079
17627TIP3    H274373   5.281   6.605   0.301  0.2841  0.6352 -1.1391
17628TIP3   OH274374   1.897   2.564  11.321 -0.0818  0.9617 -0.2482
17628TIP3    H174375   1.880   2.657  11.305  1.2830  1.1243 -0.8295
17628TIP3    H274376   1.986   2.561  11.356  0.6934 -0.2825 -2.1858
17629TIP3   OH274377   5.949   0.571  14.888 -0.0847 -0.0855  0.2066
17629TIP3    H174378   5.998   0.494  14.859 -0.6899 -0.3318 -0.1864
17629TIP3    H274379   5.934   0.621  14.807 -0.2821  0.0994  0.3567
17630TIP3   OH274380   5.597   6.739   3.785  0.4129 -0.5044 -0.3190
17630TIP3    H174381   5.623   6.808   3.725 -0.3261 -0.7376 -0.9247
17630TIP3    H274382   5.508   6.763   3.814  0.1152 -1.2238 -0.5987
17631TIP3   OH274383   0.980   1.840  16.687  0.1812  0.1067 -0.6411
17631TIP3    H174384   1.059   1.786  16.685  0.0862 -0.0177 -1.4760
17631TIP3    H274385   0.933   1.816  16.607 -0.9591 -0.2056  0.0961
17632TIP3   OH274386   2.738   6.196  13.189  0.0817  0.0624 -0.2917
17632TIP3    H174387   2.728   6.283  13.152 -1.3611 -0.2984 -0.8431
17632TIP3    H274388   2.801   6.206  13.260  0.1956  1.4794 -0.5805
17633TIP3   OH274389   2.702   1.670  14.398  0.3325  0.8125 -0.4670
17633TIP3    H174390   2.792   1.700  14.411  0.5640  0.5796 -1.4843
17633TIP3    H274391   2.672   1.646  14.486  2.0394 -1.3026 -0.3724
17634TIP3   OH274392   2.545   5.729   3.949 -0.0656  0.1771  0.1118
17634TIP3    H174393   2.609   5.788   3.988  1.5382 -0.9828 -0.6192
17634TIP3    H274394   2.491   5.785   3.894 -1.1098  1.5290  2.3824
17635TIP3   OH274395   2.474   4.213  14.378  0.5143  0.4890  0.2728
17635TIP3    H174396   2.556   4.210  14.328  1.3964 -1.0776  1.7179
17635TIP3    H274397   2.451   4.121  14.391 -0.3527  0.8786  1.6812
17636TIP3   OH274398   1.287   1.148  14.689  0.0370 -0.1797 -0.2523
17636TIP3    H174399   1.343   1.077  14.657 -1.5674 -2.4764  1.6888
17636TIP3    H274400   1.214   1.152  14.627 -1.0083 -1.8391  0.8107
17637TIP3   OH274401   0.873   2.485  16.758 -0.8372 -0.5390 -0.1202
17637TIP3    H174402   0.811   2.515  16.691 -1.6925 -0.8344  0.5241
17637TIP3    H274403   0.827   2.496  16.841 -0.1746 -1.1300  0.3439
17638TIP3   OH274404   6.480   0.201   3.328 -0.3743 -0.2669  0.3266
17638TIP3    H174405   6.409   0.251   3.367 -1.0979 -0.8894 -0.1470
17638TIP3    H274406   6.438   0.150   3.258  0.4138 -1.1704  0.4860
17639TIP3   OH274407   3.419   6.647   0.820 -0.7894  0.7058 -0.0085
17639TIP3    H174408   3.340   6.696   0.797 -0.8706  0.4847 -0.1968
17639TIP3    H274409   3.392   6.591   0.893 -1.3884 -0.9475 -1.4401
17640TIP3   OH274410   2.139   5.402   5.182  0.3153 -0.0679 -0.0034
17640TIP3    H174411   2.154   5.309   5.200  1.5441  0.2063  0.4628
17640TIP3    H274412   2.100   5.403   5.095 -0.3345 -1.0506  0.2505
17641TIP3   OH274413   3.565   0.586  14.756  0.5455 -0.2743 -0.5808
17641TIP3    H174414   3.530   0.659  14.706  0.9175 -0.1062 -0.5916
17641TIP3    H274415   3.659   0.601  14.760  0.4641  0.0105  0.6411
17642TIP3   OH274416   3.266   0.543  15.817  0.8168  1.1051 -0.1625
17642TIP3    H174417   3.287   0.460  15.775 -1.6527  0.1153  0.4033
17642TIP3    H274418   3.306   0.609  15.760  1.6022 -0.3971 -1.4242
17643TIP3   OH274419   4.366   1.127   4.091 -0.5861  0.2657  0.1257
17643TIP3    H174420   4.284   1.131   4.142 -0.0006 -0.5642  1.1830
17643TIP3    H274421   4.426   1.185   4.138  0.2768 -1.3015  1.0309
17644TIP3   OH274422   3.408   2.803  14.583 -0.3165 -0.6444  0.1841
17644TIP3    H174423   3.459   2.826  14.661 -0.4609  2.5262 -0.5143
17644TIP3    H274424   3.317   2.808  14.613 -0.3440 -1.4373  0.2567
17645TIP3   OH274425   3.889   4.320  13.188  0.9787 -0.0821 -0.0494
17645TIP3    H174426   3.892   4.338  13.094  1.0953 -0.9506 -0.2183
17645TIP3    H274427   3.825   4.383  13.222 -1.7179 -1.9445 -1.2708
17646TIP3   OH274428   3.961   3.676   1.999  0.0796 -0.2661 -0.1376
17646TIP3    H174429   4.010   3.757   2.015 -0.8102  0.1881  0.3785
17646TIP3    H274430   4.028   3.608   1.996  0.7431  0.3332  0.6097
17647TIP3   OH274431   4.709   3.230  11.518 -0.7615  0.2533 -0.1907
17647TIP3    H174432   4.680   3.177  11.443 -1.6783 -1.0469  1.0277
17647TIP3    H274433   4.713   3.168  11.590  0.0432  1.4979  0.8697
17648TIP3   OH274434   5.408   2.334  17.066 -0.1665 -0.4661  0.3833
17648TIP3    H174435   5.478   2.282  17.107  0.1743 -0.3188 -0.0145
17648TIP3    H274436   5.368   2.381  17.139 -0.5045 -1.3118  0.7608
17649TIP3   OH274437   5.956   5.341   3.638 -0.5064 -0.1569  0.0777
17649TIP3    H174438   5.983   5.281   3.708  0.2091 -0.3528 -0.3565
17649TIP3    H274439   6.033   5.349   3.582 -0.7526  0.7767 -0.1483
17650TIP3   OH274440   5.383   4.602  12.584 -0.2310 -0.3528  0.0441
17650TIP3    H174441   5.455   4.603  12.521 -0.1846 -1.6209  0.0625
17650TIP3    H274442   5.415   4.656  12.657  0.4419 -0.3709 -0.2296
17651TIP3   OH274443   0.160   0.033   1.873  0.1726  0.2784  0.0955
17651TIP3    H174444   0.214   0.041   1.952 -0.3272  0.4763  0.4234
17651TIP3    H274445   0.195   0.098   1.813  1.5990 -0.9620 -0.4724
17652TIP3   OH274446   3.590   1.377   2.679  0.0498 -0.1664 -0.3814
17652TIP3    H174447   3.585   1.339   2.766 -0.1825  0.1711 -0.2455
17652TIP3    H274448   3.559   1.467   2.690 -0.7861 -0.3738 -0.9625
17653TIP3   OH274449   3.383   0.957  15.274  0.3488 -0.1003 -0.5784
17653TIP3    H174450   3.395   1.038  15.325 -0.9765 -0.8232  0.9770
17653TIP3    H274451   3.376   0.889  15.340 -0.5208 -1.2246 -1.7992
17654TIP3   OH274452   1.326   3.932   1.233  0.1468 -0.3821  0.6716
17654TIP3    H174453   1.245   3.973   1.201  0.3619 -1.1752 -0.9641
17654TIP3    H274454   1.354   3.988   1.305 -1.4895  0.3023  0.8203
17655TIP3   OH274455   6.168   1.897  13.851 -0.0210  0.8743 -0.0104
17655TIP3    H174456   6.246   1.851  13.821 -1.3630 -0.7750 -1.1407
17655TIP3    H274457   6.177   1.985  13.815  0.3823  0.1261 -1.8455
17656TIP3   OH274458   6.468   4.298   3.764  0.2324  0.5584 -0.0237
17656TIP3    H174459   6.508   4.290   3.851  0.6492  0.3237 -0.2323
17656TIP3    H274460   6.528   4.354   3.715  2.0669 -2.3381 -1.3412
17657TIP3   OH274461   2.849   1.473  13.893  0.0896  0.0892  0.0730
17657TIP3    H174462   2.897   1.390  13.890  0.3111  0.2204 -0.0021
17657TIP3    H274463   2.777   1.457  13.954 -1.4369 -1.0019 -1.9040
17658TIP3   OH274464   1.303   2.165   1.203  0.9498 -0.4670  0.5838
17658TIP3    H174465   1.310   2.104   1.129 -1.8971  0.7765 -0.8658
17658TIP3    H274466   1.209   2.172   1.219  1.3559  1.3617  2.6165
17659TIP3   OH274467   6.684   5.942   1.317  0.5402 -0.3154  0.4328
17659TIP3    H174468   6.678   5.856   1.359  0.3523 -0.9729 -0.8804
17659TIP3    H274469   6.593   5.965   1.298  0.6841 -0.4973 -0.5090
17660TIP3   OH274470   5.336   5.590   2.593 -0.4350 -0.2817 -0.4708
17660TIP3    H174471   5.314   5.679   2.564 -2.2575 -0.4813  0.1490
17660TIP3    H274472   5.431   5.585   2.584  0.0544  2.5328  1.7061
17661TIP3   OH274473   0.352   6.728  13.657 -0.6883  0.1168  0.2799
17661TIP3    H174474   0.335   6.677  13.578 -1.3765 -1.1506  1.2185
17661TIP3    H274475   0.363   6.818  13.625  2.6321 -0.8276 -1.6509
17662TIP3   OH274476   2.530   4.413  10.977 -0.3573 -0.1739  0.4585
17662TIP3    H174477   2.487   4.355  10.915 -0.5923 -0.6299  1.0492
17662TIP3    H274478   2.518   4.501  10.940 -1.3529 -0.3444  0.3677
17663TIP3   OH274479   5.054   0.559  16.358  0.1580  0.1536  0.1903
17663TIP3    H174480   5.103   0.583  16.436  1.0641 -1.9750  0.3523
17663TIP3    H274481   4.972   0.608  16.364  1.1706  1.7725  1.2698
17664TIP3   OH274482   2.680   6.075   0.384 -0.1553  0.2547  0.3074
17664TIP3    H174483   2.713   5.988   0.409 -1.1066  0.0775  0.9931
17664TIP3    H274484   2.619   6.098   0.454 -1.3688  0.6451 -0.8504
17665TIP3   OH274485   4.683   5.926   5.380 -0.3520 -0.2912  0.1418
17665TIP3    H174486   4.717   5.858   5.439 -0.7849 -1.2397 -0.6711
17665TIP3    H274487   4.731   5.913   5.298  0.1837  0.9617  0.2375
17666TIP3   OH274488   0.250   5.035   2.714  0.3261  0.1685  0.8358
17666TIP3    H174489   0.286   4.948   2.733 -0.8234 -0.5257  0.0132
17666TIP3    H274490   0.156   5.024   2.727 -0.0435  0.7804 -1.0261
17667TIP3   OH274491   0.650   1.557  13.146  0.3192 -0.1217 -0.1163
17667TIP3    H174492   0.571   1.586  13.101  0.9164  0.5985 -0.7338
17667TIP3    H274493   0.712   1.538  13.075  2.0304  3.1055  0.3174
17668TIP3   OH274494   6.814   0.157  12.432  0.3194  0.2333 -0.1450
17668TIP3    H174495   6.862   0.221  12.379  0.8774  1.1694  1.4324
17668TIP3    H274496   6.722   0.183  12.422  0.6280  2.2096  1.5598
17669TIP3   OH274497   1.820   1.672   0.937  0.2198 -0.5043  0.3953
17669TIP3    H174498   1.836   1.596   0.992  1.3875 -2.3623 -2.3243
17669TIP3    H274499   1.727   1.667   0.915 -0.0112 -0.3448  1.2964
17670TIP3   OH274500   6.680   1.119   1.169  0.0057  0.1593  0.3219
17670TIP3    H174501   6.627   1.094   1.245  1.3893  1.2689  1.7011
17670TIP3    H274502   6.634   1.079   1.095 -0.6657 -2.1157  1.8432
17671TIP3   OH274503   0.889   4.848  12.219 -0.1488 -0.7165 -0.6394
17671TIP3    H174504   0.905   4.821  12.309 -1.0316 -1.4077 -0.6740
17671TIP3    H274505   0.919   4.939  12.216  1.7604 -1.2867 -0.2055
17672TIP3   OH274506   2.407   4.588   5.595 -0.8725  0.0497 -0.1981
17672TIP3    H174507   2.369   4.671   5.567  0.5345  0.6277 -0.4862
17672TIP3    H274508   2.339   4.523   5.577 -1.6790  1.0137 -0.7436
17673TIP3   OH274509   5.830   2.110  14.575  0.1253  0.2238 -0.3279
17673TIP3    H174510   5.736   2.092  14.578  0.5067 -2.2045 -0.7381
17673TIP3    H274511   5.857   2.115  14.666 -0.4642  1.3804 -0.2078
17674TIP3   OH274512   4.595   2.454   3.970 -0.3129 -0.1194  0.2439
17674TIP3    H174513   4.613   2.367   3.934  0.1091  1.6006 -4.3175
17674TIP3    H274514   4.679   2.500   3.966 -1.1141  1.3705 -0.3677
17675TIP3   OH274515   2.468   3.238   0.537  0.0723  0.3107  0.1904
17675TIP3    H174516   2.559   3.241   0.565 -0.2811  1.7394  1.3530
17675TIP3    H274517   2.438   3.151   0.561  1.3744 -0.5388 -1.1195
17676TIP3   OH274518   1.454   6.589  12.144  0.7476  0.1547  0.2481
17676TIP3    H174519   1.447   6.494  12.140 -2.5687  0.2287  0.9777
17676TIP3    H274520   1.405   6.620  12.067  1.3445  1.2967  0.3001
17677TIP3   OH274521   4.442   4.465  14.331  0.0795 -0.1939 -0.4829
17677TIP3    H174522   4.493   4.388  14.307 -0.4856 -0.6141 -0.3325
17677TIP3    H274523   4.497   4.539  14.304  0.0389 -0.6489 -1.8678
17678TIP3   OH274524   0.986   1.002  15.968  0.0328  0.3668 -0.5688
17678TIP3    H174525   1.031   1.049  15.899  0.4638  0.2383 -0.3742
17678TIP3    H274526   0.942   0.930  15.923  1.9306 -0.9181 -0.4879
17679TIP3   OH274527   2.448   1.036  11.925  0.4034 -0.0398 -0.8188
17679TIP3    H174528   2.491   1.023  11.841  1.4091  3.6416 -1.0815
17679TIP3    H274529   2.470   1.127  11.948 -0.6780 -0.5798  2.9336
17680TIP3   OH274530   3.475   3.802   1.759 -0.2371 -0.9716 -0.1766
17680TIP3    H174531   3.568   3.826   1.753  0.3376 -2.8790  0.3877
17680TIP3    H274532   3.446   3.837   1.843  0.2811 -1.2754  0.1353
17681TIP3   OH274533   0.854   4.682  13.138  0.1459  0.4352 -0.0163
17681TIP3    H174534   0.894   4.673  13.224  1.1141 -1.6412 -0.6119
17681TIP3    H274535   0.780   4.622  13.139 -0.2042  0.8533 -0.4283
17682TIP3   OH274536   3.142   4.212  14.513 -0.1327 -0.1895  0.0826
17682TIP3    H174537   3.180   4.166  14.589  1.0982 -0.3444 -0.6042
17682TIP3    H274538   3.218   4.248  14.467 -0.9851  1.2832 -0.2091
17683TIP3   OH274539   0.150   1.854   5.930 -0.0547 -0.1842 -0.1051
17683TIP3    H174540   0.125   1.767   5.962 -1.8907 -0.4050 -1.8894
17683TIP3    H274541   0.189   1.838   5.845  0.2659  0.6862 -0.1313
17684TIP3   OH274542   5.306   2.630   2.278  0.0567 -0.2942  0.4554
17684TIP3    H174543   5.325   2.697   2.212  1.2222 -1.3814 -0.3638
17684TIP3    H274544   5.286   2.679   2.357  1.5858  1.0329  0.0676
17685TIP3   OH274545   1.013   1.245   0.379  0.0797  0.1094 -0.7910
17685TIP3    H174546   1.099   1.243   0.336  0.4093 -0.9157 -0.1108
17685TIP3    H274547   1.026   1.197   0.460 -0.7018  1.4722  0.1711
17686TIP3   OH274548   2.661   4.767   0.931  0.0343 -0.2991  0.4983
17686TIP3    H174549   2.590   4.790   0.990  0.5009  0.2988  0.8290
17686TIP3    H274550   2.741   4.778   0.983  0.5070  0.9917 -0.4440
17687TIP3   OH274551   0.910   3.797   0.337 -0.3842 -0.0598 -0.3827
17687TIP3    H174552   0.975   3.735   0.301 -0.3439  0.0168 -0.4428
17687TIP3    H274553   0.827   3.752   0.328 -0.8440  1.1214 -3.4355
17688TIP3   OH274554   0.170   4.853   4.765 -0.1184  0.0113  0.0174
17688TIP3    H174555   0.251   4.902   4.780  0.1064 -0.7118  1.4165
17688TIP3    H274556   0.140   4.881   4.679 -0.0992  2.6827  0.8123
17689TIP3   OH274557   4.914   6.057  15.171  0.0694  0.2281 -0.0377
17689TIP3    H174558   4.829   6.069  15.130 -0.7066 -0.0102  1.4294
17689TIP3    H274559   4.911   6.112  15.249  0.8180 -0.6707  0.6479
17690TIP3   OH274560   0.366   0.997   2.001 -0.0996  0.0889  0.5489
17690TIP3    H174561   0.311   1.025   1.928  2.1365 -1.2724 -1.7905
17690TIP3    H274562   0.446   1.048   1.992  0.6337 -0.8726  1.4027
17691TIP3   OH274563   2.525   2.658   2.946 -0.5798 -0.3176 -0.5506
17691TIP3    H174564   2.558   2.662   3.036  1.1993 -0.0056 -1.1884
17691TIP3    H274565   2.466   2.583   2.946  0.1622 -0.9378  0.6347
17692TIP3   OH274566   3.539   0.388  14.985 -0.1194  0.2664  0.2042
17692TIP3    H174567   3.590   0.396  14.904 -1.3160 -0.8791 -0.7142
17692TIP3    H274568   3.490   0.469  14.991  0.3836  0.5836  0.0810
17693TIP3   OH274569   1.567   2.373  14.939  0.1526  0.2530 -0.3165
17693TIP3    H174570   1.633   2.321  14.893  0.4757  1.4914 -1.3179
17693TIP3    H274571   1.515   2.309  14.987  1.3526 -0.8565 -0.4467
17694TIP3   OH274572   5.460   1.025  12.915 -0.4080  0.0822 -0.0757
17694TIP3    H174573   5.496   0.973  12.843 -2.0741 -0.9536 -0.2046
17694TIP3    H274574   5.370   1.044  12.889 -1.5040 -1.4758  2.2846
17695TIP3   OH274575   3.550   0.868  13.432  0.2438 -0.1139  0.0106
17695TIP3    H174576   3.536   0.929  13.504 -0.1377 -0.0315 -0.1288
17695TIP3    H274577   3.538   0.922  13.353 -0.4162 -0.4361 -0.1155
17696TIP3   OH274578   3.019   1.638  11.972 -0.1237 -0.2172 -0.0797
17696TIP3    H174579   3.083   1.691  12.018  0.8858 -0.5226 -1.0965
17696TIP3    H274580   2.960   1.702  11.931 -0.6614  0.0564  1.0705
17697TIP3   OH274581   0.595   0.821  16.445 -0.3860 -0.7096  0.0622
17697TIP3    H174582   0.608   0.757  16.375 -0.2425  0.9567 -1.4901
17697TIP3    H274583   0.568   0.901  16.400  0.7999  0.7466  1.8102
17698TIP3   OH274584   2.349   6.387   0.318 -0.4347 -0.6323 -0.4641
17698TIP3    H174585   2.279   6.333   0.281 -0.7582  0.3746 -1.3785
17698TIP3    H274586   2.334   6.474   0.281 -0.0111  0.1319  1.0723
17699TIP3   OH274587   4.393   3.268  11.974  0.3292 -0.8118  0.0801
17699TIP3    H174588   4.479   3.225  11.972  0.3797 -0.6911 -1.1614
17699TIP3    H274589   4.411   3.355  12.009  0.8906 -0.4631 -1.0152
17700TIP3   OH274590   2.732   0.515   3.071  0.1784  0.6675 -0.1717
17700TIP3    H174591   2.805   0.458   3.094 -0.7446 -0.6133 -0.2614
17700TIP3    H274592   2.677   0.516   3.149  0.7631  2.4437  0.2559
17701TIP3   OH274593   4.125   1.007   0.549 -0.1493  0.0981  0.0696
17701TIP3    H174594   4.082   0.979   0.468  1.7552 -0.7766 -0.6816
17701TIP3    H274595   4.088   1.094   0.566 -1.0484  0.0307 -1.3791
17702TIP3   OH274596   3.310   5.985   0.811 -0.0483 -0.1826  0.5458
17702TIP3    H174597   3.229   5.959   0.856 -1.8828  1.4340 -1.5977
17702TIP3    H274598   3.318   6.079   0.830  0.2784  0.0630 -0.7616
17703TIP3   OH274599   0.556   5.636   0.154 -0.3982  0.0059  0.0089
17703TIP3    H174600   0.518   5.724   0.157  2.9356  1.5621  1.7069
17703TIP3    H274601   0.513   5.589   0.226 -1.4404  0.5904 -0.2182
17704TIP3   OH274602   4.285   2.312   0.938 -0.3268  0.7428 -0.2553
17704TIP3    H174603   4.282   2.219   0.916 -1.4750  0.6401  0.2960
17704TIP3    H274604   4.195   2.335   0.961  0.0383  1.8642  0.1302
17705TIP3   OH274605   3.502   2.774   4.443  0.0168 -0.0827 -0.6849
17705TIP3    H174606   3.463   2.721   4.373 -1.9398 -1.7320  1.5075
17705TIP3    H274607   3.556   2.711   4.492  0.1971  0.7054  0.1407
17706TIP3   OH274608   4.324   5.827  10.763  0.2772 -0.2308 -0.4738
17706TIP3    H174609   4.280   5.903  10.803  1.4183  0.2027  0.0029
17706TIP3    H274610   4.400   5.812  10.818  0.8844 -0.7965 -1.4412
17707TIP3   OH274611   3.882   2.359  14.283 -0.0485 -0.6423 -0.2048
17707TIP3    H174612   3.964   2.395  14.316  0.0926 -0.9373 -0.2346
17707TIP3    H274613   3.816   2.392  14.344 -0.0535  0.4620 -0.7857
17708TIP3   OH274614   5.166   2.955   1.402 -0.5834 -0.0390  0.0621
17708TIP3    H174615   5.194   3.000   1.481 -1.2158  0.5507 -0.0354
17708TIP3    H274616   5.076   2.927   1.421 -0.2743 -1.0769  0.0411
17709TIP3   OH274617   1.494   1.765  17.316 -0.2372  0.2799  0.1457
17709TIP3    H174618   1.553   1.783  17.390  1.6105 -1.8546 -0.6830
17709TIP3    H274619   1.479   1.671  17.321 -0.5474  0.1937 -1.8562
17710TIP3   OH274620   1.507   4.016   5.282  0.4016  0.2181  0.1253
17710TIP3    H174621   1.479   4.106   5.265  1.9911  0.8314  0.5467
17710TIP3    H274622   1.426   3.966   5.289 -0.5523  1.7861  0.7895
17711TIP3   OH274623   6.373   3.636  11.623  0.1936 -0.1400 -0.4254
17711TIP3    H174624   6.378   3.560  11.566 -0.5362 -1.4178  1.1570
17711TIP3    H274625   6.342   3.707  11.566  3.1262 -0.3233 -2.5131
17712TIP3   OH274626   4.013   1.989  15.363 -0.1793 -0.2154  0.0511
17712TIP3    H174627   4.014   2.074  15.320 -0.2727 -0.1795  0.1188
17712TIP3    H274628   4.084   1.940  15.323  0.4282  0.1946  0.6164
17713TIP3   OH274629   0.750   2.316   2.342 -0.3231 -0.1371 -0.1605
17713TIP3    H174630   0.677   2.300   2.284 -0.5028  0.5914 -0.1427
17713TIP3    H274631   0.827   2.288   2.292 -0.6726 -2.0279  0.2516
17714TIP3   OH274632   1.693   1.028  10.353  0.1490 -0.1613  0.0601
17714TIP3    H174633   1.779   0.989  10.369 -0.4980 -0.8379  2.2945
17714TIP3    H274634   1.631   0.967  10.393 -1.0857  1.9902  1.7009
17715TIP3   OH274635   2.337   1.716   6.549  0.1213  0.8032  0.0057
17715TIP3    H174636   2.313   1.685   6.637 -0.1690  0.0171 -0.3416
17715TIP3    H274637   2.430   1.698   6.542 -0.1483 -0.5700 -0.3990
17716TIP3   OH274638   3.340   3.895  15.029  0.3971  0.1197 -0.2077
17716TIP3    H174639   3.390   3.976  15.044  0.3486  0.0623  0.2807
17716TIP3    H274640   3.282   3.888  15.105  2.1077 -1.6491  1.0647
17717TIP3   OH274641   3.344   0.692  12.590  0.2187  0.4073 -0.4351
17717TIP3    H174642   3.310   0.762  12.533 -1.3317 -1.2457 -1.6399
17717TIP3    H274643   3.278   0.682  12.658 -0.1485 -0.6433 -0.9317
17718TIP3   OH274644   4.022   6.269   4.717  0.4793 -0.2236 -0.3888
17718TIP3    H174645   3.967   6.344   4.693  0.0539  0.2211  1.7783
17718TIP3    H274646   3.964   6.193   4.709  1.0133 -0.4528 -2.9545
17719TIP3   OH274647   6.635   5.406  15.088  0.1606  0.2486  0.6904
17719TIP3    H174648   6.540   5.415  15.099 -0.1174 -0.5438 -0.7415
17719TIP3    H274649   6.669   5.495  15.096 -0.9240  0.7994 -0.5242
17720TIP3   OH274650   0.251   4.115  15.742 -0.3671 -0.3419  0.0673
17720TIP3    H174651   0.213   4.074  15.665  1.6861  1.9175 -2.3440
17720TIP3    H274652   0.235   4.208  15.730  3.8344  0.5550 -0.0682
17721TIP3   OH274653   3.968   1.412   4.931 -0.1994  0.0725 -0.0997
17721TIP3    H174654   3.879   1.449   4.928 -0.1512  0.1812 -0.2016
17721TIP3    H274655   4.006   1.435   4.846 -0.6299 -1.3754 -0.7104
17722TIP3   OH274656   3.392   0.672   5.252  0.3731  0.3589 -0.3704
17722TIP3    H174657   3.452   0.651   5.324  0.1098 -0.6195 -0.4168
17722TIP3    H274658   3.332   0.598   5.249  0.9669 -0.1113 -2.2009
17723TIP3   OH274659   0.127   6.487  12.020  0.2416 -0.2992  0.1355
17723TIP3    H174660   0.133   6.487  11.925 -2.4518 -0.3126 -0.1095
17723TIP3    H274661   0.139   6.395  12.045  0.5779 -0.3550 -0.2293
17724TIP3   OH274662   5.341   2.401   4.179 -0.0846  0.2869  0.1970
17724TIP3    H174663   5.367   2.314   4.210 -0.0704  0.4076  0.5192
17724TIP3    H274664   5.267   2.384   4.121  0.3427 -0.0038 -0.2735
17725TIP3   OH274665   3.432   1.609   2.698  0.0463  0.1744 -0.1762
17725TIP3    H174666   3.478   1.667   2.758  0.0849 -0.6485  0.6166
17725TIP3    H274667   3.404   1.666   2.626  1.3095  0.8898 -0.1234
17726TIP3   OH274668   4.584   2.648  14.463 -0.0598  0.9682  0.1066
17726TIP3    H174669   4.519   2.628  14.530 -1.9434  2.3845 -1.1687
17726TIP3    H274670   4.573   2.742  14.446  0.2057  0.6510 -2.2530
17727TIP3   OH274671   3.113   4.119   0.617  0.2790 -0.4238  0.1816
17727TIP3    H174672   3.039   4.092   0.563  0.4125  0.4031 -0.4408
17727TIP3    H274673   3.102   4.072   0.699 -1.7251  0.7239  0.6312
17728TIP3   OH274674   0.603   0.640   4.654 -0.2650 -0.2707 -0.0676
17728TIP3    H174675   0.653   0.609   4.579  1.2913 -2.9121  1.9091
17728TIP3    H274676   0.655   0.713   4.689  0.7597 -1.1324  0.2729
17729TIP3   OH274677   1.094   4.224  14.947  0.2523  0.2231  0.0482
17729TIP3    H174678   1.059   4.310  14.969 -0.8744 -0.2053  0.0132
17729TIP3    H274679   1.180   4.222  14.988  1.0339  1.9933 -1.3983
17730TIP3   OH274680   3.314   2.739   6.167 -0.3565 -0.1503  0.3722
17730TIP3    H174681   3.384   2.698   6.217  0.2029  0.3765  0.0316
17730TIP3    H274682   3.309   2.828   6.201  1.4501  0.9147 -1.8484
17731TIP3   OH274683   1.842   4.382   6.311 -0.2399  0.1425 -0.3302
17731TIP3    H174684   1.791   4.379   6.392 -0.8331 -1.0377 -0.7268
17731TIP3    H274685   1.888   4.299   6.309 -0.0521  0.2626 -1.0920
17732TIP3   OH274686   3.118   3.011  16.371  0.9793 -0.4393 -0.2961
17732TIP3    H174687   3.062   3.026  16.447  0.2126 -0.0816 -0.9044
17732TIP3    H274688   3.108   2.918  16.352 -0.7336 -0.0959 -1.3513
17733TIP3   OH274689   6.671   2.249  10.865  0.2693  0.1450  0.4231
17733TIP3    H174690   6.702   2.250  10.956 -0.6976 -0.8415  0.7952
17733TIP3    H274691   6.622   2.167  10.858 -2.6493  1.7992  0.0218
17734TIP3   OH274692   6.183   3.481   5.598 -0.8229  1.0617  0.2012
17734TIP3    H174693   6.255   3.509   5.655 -0.6565 -0.0613  0.5649
17734TIP3    H274694   6.145   3.405   5.643 -0.8461  0.3044 -1.0522
17735TIP3   OH274695   5.373   5.638   4.139  0.3613 -0.0143 -0.2963
17735TIP3    H174696   5.396   5.552   4.174  1.0956 -0.0321 -0.8126
17735TIP3    H274697   5.441   5.697   4.173 -0.8605  0.6312  1.1480
17736TIP3   OH274698   6.175   1.198   2.213  0.0160  0.2119  0.0696
17736TIP3    H174699   6.223   1.118   2.234 -0.1676  0.1693  0.3308
17736TIP3    H274700   6.181   1.205   2.118 -1.2190 -0.9170 -0.1232
17737TIP3   OH274701   0.050   5.466   0.641 -0.7019  0.0075 -0.1226
17737TIP3    H174702  -0.033   5.483   0.685 -0.1269  1.3394  0.4879
17737TIP3    H274703   0.078   5.552   0.608 -0.1839 -0.6327 -1.4309
17738TIP3   OH274704   1.954   3.922  14.374 -0.1276 -0.3645  0.0629
17738TIP3    H174705   1.894   3.887  14.441  0.9670 -0.9634  0.7605
17738TIP3    H274706   2.027   3.860  14.373  0.2510  0.0788 -1.1366
17739TIP3   OH274707   0.433   1.740   6.011 -0.4618 -0.1439  0.3635
17739TIP3    H174708   0.410   1.832   6.022  0.8507  0.3622 -0.9237
17739TIP3    H274709   0.376   1.694   6.073 -1.9333  1.4104  0.2341
17740TIP3   OH274710   3.772   0.332  16.192 -0.3693 -0.4004 -0.7212
17740TIP3    H174711   3.720   0.407  16.219  1.1318  0.6527 -0.6626
17740TIP3    H274712   3.800   0.353  16.103  3.5940  1.2417  0.6631
17741TIP3   OH274713   2.584   0.083   1.748 -0.0029 -0.0583 -0.3248
17741TIP3    H174714   2.620   0.131   1.673 -0.7736  0.3792 -0.4269
17741TIP3    H274715   2.492   0.072   1.726 -0.0784 -0.5493  0.2474
17742TIP3   OH274716   0.142   2.485   5.784 -0.0719  0.3223 -0.1824
17742TIP3    H174717   0.168   2.569   5.823  0.7397  0.2631 -0.5493
17742TIP3    H274718   0.153   2.500   5.689  0.5992 -0.3537 -0.2196
17743TIP3   OH274719   6.647   1.212   4.891  0.5166  0.1059  0.0513
17743TIP3    H174720   6.665   1.133   4.840 -0.5834 -0.3399  0.3145
17743TIP3    H274721   6.720   1.271   4.872  1.7350 -1.2398  0.3978
17744TIP3   OH274722   0.734   1.194  11.133  0.0379 -0.1873 -0.3777
17744TIP3    H174723   0.797   1.224  11.067 -1.1298  0.3302 -1.3086
17744TIP3    H274724   0.653   1.240  11.110 -0.3146  0.2761  1.6510
17745TIP3   OH274725   0.552   5.035  17.197 -0.0286 -0.0519  0.0177
17745TIP3    H174726   0.622   4.976  17.223  0.5647  0.1283 -1.1139
17745TIP3    H274727   0.510   5.060  17.280  0.4045 -1.1769  0.5990
17746TIP3   OH274728   2.585   1.330   0.112  0.2484 -0.5498  0.1983
17746TIP3    H174729   2.632   1.299   0.035 -0.0644 -0.2646 -0.1132
17746TIP3    H274730   2.499   1.289   0.105  0.6652 -1.6011  1.1188
17747TIP3   OH274731   1.869   5.321   4.419 -0.1708 -0.0642 -0.2677
17747TIP3    H174732   1.921   5.243   4.404 -2.0417 -1.8783  1.9318
17747TIP3    H274733   1.839   5.347   4.332  1.7910 -0.7784 -1.2130
17748TIP3   OH274734   5.622   4.298  15.633  0.0604  0.0690 -0.0904
17748TIP3    H174735   5.698   4.317  15.689  0.1525 -1.1853  0.2568
17748TIP3    H274736   5.593   4.383  15.602  1.8440  0.5646 -0.5355
17749TIP3   OH274737   4.310   3.682  14.425  0.4241  0.3583  0.1717
17749TIP3    H174738   4.259   3.760  14.401  1.2090  1.7361  2.5790
17749TIP3    H274739   4.399   3.715  14.435  0.6644 -0.6832  1.8271
17750TIP3   OH274740   4.309   1.740  12.534 -0.1828 -0.2690  0.5089
17750TIP3    H174741   4.301   1.644  12.531 -1.1162 -0.1769 -0.9514
17750TIP3    H274742   4.396   1.755  12.571 -0.1866 -1.6748  1.1694
17751TIP3   OH274743   3.974   5.322  13.358 -0.0238  0.0537 -0.7738
17751TIP3    H174744   3.894   5.344  13.311  0.3098  3.5726  0.0909
17751TIP3    H274745   4.040   5.383  13.324  1.0671  0.4399  1.7973
17752TIP3   OH274746   1.864   1.805  13.746  0.7387 -0.0857 -0.1373
17752TIP3    H174747   1.830   1.750  13.816 -0.2339  0.2097 -0.3693
17752TIP3    H274748   1.932   1.858  13.789  0.9112 -0.6772  0.3281
17753TIP3   OH274749   1.341   4.062   4.248 -0.0198 -0.1528  0.4314
17753TIP3    H174750   1.427   4.104   4.237 -0.2743  0.3085  0.1600
17753TIP3    H274751   1.317   4.081   4.338 -0.1400  0.3060  0.3064
17754TIP3   OH274752   0.991   1.328   4.761  0.0016 -0.0197  0.1605
17754TIP3    H174753   1.024   1.395   4.701 -1.1703  0.6604  0.2367
17754TIP3    H274754   0.977   1.251   4.706  0.7112  0.0063 -0.0617
17755TIP3   OH274755   0.700   5.157   5.390 -0.0008 -0.4189  0.1575
17755TIP3    H174756   0.733   5.097   5.323 -1.0063 -1.8841  0.9132
17755TIP3    H274757   0.649   5.222   5.341  0.6939 -0.4646 -0.6356
17756TIP3   OH274758   4.244   4.929   3.182 -1.0393 -0.0740  0.7576
17756TIP3    H174759   4.325   4.930   3.234 -0.6941  1.2738  0.2262
17756TIP3    H274760   4.233   4.837   3.158 -0.5781 -0.5513  2.2212
17757TIP3   OH274761   4.967   6.009   0.684 -0.0976 -0.2154  0.1867
17757TIP3    H174762   4.873   5.994   0.696  0.0266 -0.5162  0.8086
17757TIP3    H274763   4.988   5.966   0.601 -1.0856  2.3773 -1.4955
17758TIP3   OH274764   0.258   6.607   2.402 -0.2663 -0.1520 -0.2425
17758TIP3    H174765   0.231   6.699   2.394 -0.0966 -0.1439 -0.7704
17758TIP3    H274766   0.177   6.559   2.415 -0.2767  0.1687  1.0070
17759TIP3   OH274767   1.632   4.558   0.079 -0.8060 -0.3092  0.3618
17759TIP3    H174768   1.622   4.557  -0.016 -1.2121 -1.6912  0.3871
17759TIP3    H274769   1.682   4.637   0.098  0.5070 -0.7295 -1.1375
17760TIP3   OH274770   0.445   0.933   1.656 -0.2690  0.0233 -0.1634
17760TIP3    H174771   0.396   0.996   1.602 -1.9187  0.4760  1.7360
17760TIP3    H274772   0.416   0.847   1.624 -1.3179  0.2832  0.0543
17761TIP3   OH274773   1.596   5.219   2.519  0.0608  0.0929 -0.7247
17761TIP3    H174774   1.524   5.240   2.459  1.5466  1.2418 -2.1898
17761TIP3    H274775   1.561   5.241   2.606 -2.0145 -1.2674 -1.1511
17762TIP3   OH274776   6.480   2.164  16.184  0.1472 -0.7121 -0.3458
17762TIP3    H174777   6.441   2.155  16.097  0.0077 -1.2204 -0.2387
17762TIP3    H274778   6.480   2.258  16.201  0.5727 -0.5676 -1.0724
17763TIP3   OH274779   3.886   5.089   1.807 -0.0634  0.2660 -0.0418
17763TIP3    H174780   3.794   5.114   1.811 -0.2726 -0.3676 -0.6232
17763TIP3    H274781   3.931   5.154   1.861 -0.6583  1.4972 -0.9707
17764TIP3   OH274782   2.099   3.064   3.114  0.5780  0.6385 -0.3338
17764TIP3    H174783   2.092   3.084   3.207 -1.5598 -0.2610 -0.2329
17764TIP3    H274784   2.046   3.132   3.071  1.2227  0.8120 -0.8615
17765TIP3   OH274785   6.567   6.592   2.563  0.1600  0.7455  0.6979
17765TIP3    H174786   6.579   6.640   2.645  1.7957 -1.9016  2.1648
17765TIP3    H274787   6.513   6.517   2.586  1.4895 -0.6055 -0.3555
17766TIP3   OH274788   5.923   0.499   3.407 -0.2097  0.5678 -0.0077
17766TIP3    H174789   5.930   0.495   3.503  1.5287 -2.7517 -0.1564
17766TIP3    H274790   6.001   0.546   3.379  1.8557 -2.5109  0.1305
17767TIP3   OH274791   1.338   2.664  10.944 -0.2380  0.6639  0.0130
17767TIP3    H174792   1.284   2.737  10.975 -0.6419  0.8044 -0.9804
17767TIP3    H274793   1.418   2.670  10.996 -0.6995  1.1760  0.6738
17768TIP3   OH274794   1.648   4.396  12.860 -0.4298 -0.3414  0.5666
17768TIP3    H174795   1.713   4.340  12.903 -0.9868 -1.4969 -0.0371
17768TIP3    H274796   1.699   4.449  12.799  0.0325 -0.7832  0.5549
17769TIP3   OH274797   3.515   5.892  11.754  0.4440  0.2481  0.7369
17769TIP3    H174798   3.452   5.823  11.736 -1.0264  1.7424 -0.0588
17769TIP3    H274799   3.600   5.847  11.754 -0.3867 -1.4216 -0.4922
17770TIP3   OH274800   6.383   5.476  13.520  0.3514  0.0651  0.1304
17770TIP3    H174801   6.375   5.406  13.456 -1.5841  0.1341  0.2326
17770TIP3    H274802   6.397   5.431  13.603 -1.2961 -0.2726  0.2594
17771TIP3   OH274803   2.845   4.605  15.280 -0.1932 -0.3033 -0.4013
17771TIP3    H174804   2.862   4.531  15.337  0.3089 -1.0206 -1.4644
17771TIP3    H274805   2.920   4.609  15.221 -0.0365  1.2702 -0.1433
17772TIP3   OH274806   3.110   0.214  17.194 -0.0425  0.0811  0.0286
17772TIP3    H174807   3.187   0.251  17.150  0.2019 -0.5393 -0.0739
17772TIP3    H274808   3.093   0.132  17.147  0.5526 -0.8777  1.4370
17773TIP3   OH274809   3.333   5.578  13.332  0.8323  0.2074  0.4388
17773TIP3    H174810   3.360   5.489  13.309 -0.2396 -0.1680  0.5933
17773TIP3    H274811   3.246   5.568  13.371 -0.6085  1.5843 -2.1340
17774TIP3   OH274812   6.030   1.027  11.820  0.5428  0.2163  0.3276
17774TIP3    H174813   6.077   1.103  11.855  0.0096  1.1151 -0.8351
17774TIP3    H274814   6.023   0.967  11.894  2.4325  0.5715  0.8423
17775TIP3   OH274815   2.362   4.932   5.483  0.0021  0.2078 -0.1649
17775TIP3    H174816   2.290   4.926   5.420  0.1243  0.5267 -0.3338
17775TIP3    H274817   2.333   4.996   5.548  0.5915  1.1883 -0.8421
17776TIP3   OH274818   0.896   6.528  11.197  0.0601  0.0902 -0.4912
17776TIP3    H174819   0.824   6.479  11.157 -0.0337  0.5623 -0.9106
17776TIP3    H274820   0.972   6.470  11.187 -0.3246 -0.5690  0.2888
17777TIP3   OH274821   5.806   6.245  14.898 -0.3011  0.2769  0.1870
17777TIP3    H174822   5.759   6.197  14.829  0.3022  2.0750 -1.5731
17777TIP3    H274823   5.776   6.335  14.889  0.4387  0.7089  1.7459
17778TIP3   OH274824   3.725   2.556   4.544 -0.3736 -0.4769  0.3814
17778TIP3    H174825   3.770   2.487   4.593 -1.7463 -2.1249 -0.5979
17778TIP3    H274826   3.796   2.608   4.506  0.7477  0.5577  3.5626
17779TIP3   OH274827   5.867   2.173  12.733 -0.2242 -0.7056 -0.2208
17779TIP3    H174828   5.810   2.250  12.732 -1.0200 -1.2690  0.2092
17779TIP3    H274829   5.908   2.175  12.819  1.7807  0.6414 -1.1344
17780TIP3   OH274830   2.438   1.174  14.895 -0.3520 -0.4923  0.5837
17780TIP3    H174831   2.403   1.102  14.843 -0.3516  0.5810 -0.9431
17780TIP3    H274832   2.362   1.226  14.919 -0.2838 -0.6605  1.2007
17781TIP3   OH274833   2.901   2.575   1.475 -0.2646  0.6047 -0.7434
17781TIP3    H174834   2.930   2.490   1.441 -0.9180 -0.1440  0.5010
17781TIP3    H274835   2.982   2.621   1.495  0.1147 -0.3748  0.0950
17782TIP3   OH274836   5.413   6.476  12.709 -0.4322 -0.0670  0.1728
17782TIP3    H174837   5.419   6.380  12.712  1.3421  0.0317  0.7180
17782TIP3    H274838   5.401   6.496  12.616 -0.1427 -0.7874 -0.0276
17783TIP3   OH274839   1.746   2.404   4.177  0.3476  0.3655 -0.0133
17783TIP3    H174840   1.732   2.497   4.194  0.5115  0.4113 -0.1160
17783TIP3    H274841   1.841   2.393   4.184  0.2320 -0.0305  1.1440
17784TIP3   OH274842   2.952   2.110   7.054 -0.1056  0.2048  0.5040
17784TIP3    H174843   2.927   2.103   6.962  1.9368  0.5187 -0.1310
17784TIP3    H274844   2.998   2.028   7.073  0.4197  0.5803  0.8974
17785TIP3   OH274845   4.766   5.797   3.597 -0.3509 -0.4453 -0.2779
17785TIP3    H174846   4.729   5.852   3.528  1.9683  1.2382 -0.3013
17785TIP3    H274847   4.848   5.765   3.560 -1.9577 -4.9142 -0.6344
17786TIP3   OH274848   0.856   1.516  12.972 -0.4203 -0.4325  0.3588
17786TIP3    H174849   0.856   1.463  12.892  0.4884  1.0495 -0.6553
17786TIP3    H274850   0.933   1.485  13.020 -3.1120 -4.2776  2.8292
17787TIP3   OH274851   1.298   1.978  10.703  0.1008 -0.2492 -0.4809
17787TIP3    H174852   1.336   1.917  10.639 -1.6022  0.2036 -2.0310
17787TIP3    H274853   1.216   2.007  10.662 -0.3997  1.1109  1.3538
17788TIP3   OH274854   1.569   0.475   3.266  0.6616  0.4583  0.3346
17788TIP3    H174855   1.601   0.397   3.220 -0.0345  1.4601 -1.9925
17788TIP3    H274856   1.512   0.441   3.335  0.5823 -1.0886 -0.4656
17789TIP3   OH274857   2.110   5.758  14.252  0.2172  0.0261 -0.1466
17789TIP3    H174858   2.045   5.697  14.218 -0.1892  0.5136 -0.2753
17789TIP3    H274859   2.185   5.750  14.194 -0.7035  1.3044 -1.5887
17790TIP3   OH274860   1.747   3.726   0.547 -0.0925 -0.1114  0.3640
17790TIP3    H174861   1.727   3.798   0.488 -0.4902  1.3758  2.2221
17790TIP3    H274862   1.842   3.716   0.540 -0.0164  0.6787  0.1701
17791TIP3   OH274863   0.644   5.901   3.482 -0.2532 -0.3564  0.3019
17791TIP3    H174864   0.552   5.909   3.508 -0.2201 -0.7006  0.5380
17791TIP3    H274865   0.648   5.943   3.396 -1.3767 -3.3314 -1.3446
17792TIP3   OH274866   4.389   6.702  11.334  0.9468 -0.1643 -0.0159
17792TIP3    H174867   4.347   6.633  11.384  0.8597 -1.4323 -1.7718
17792TIP3    H274868   4.330   6.778  11.344 -0.8030 -1.3465 -0.8759
17793TIP3   OH274869   2.735   0.904   6.968 -0.1391  0.4918 -0.6297
17793TIP3    H174870   2.817   0.855   6.965 -0.6255 -0.3482 -0.4966
17793TIP3    H274871   2.679   0.861   6.903 -1.3394 -0.5655  1.0218
17794TIP3   OH274872   3.530   3.868  15.847  0.4016 -0.4150 -0.5760
17794TIP3    H174873   3.552   3.907  15.763  0.3811 -0.0175 -0.4006
17794TIP3    H274874   3.597   3.802  15.861  1.4730  0.7311 -0.0763
17795TIP3   OH274875   3.345   5.409  15.504 -0.3712  0.0880 -0.2454
17795TIP3    H174876   3.312   5.358  15.430  0.2918  0.5201 -0.8607
17795TIP3    H274877   3.426   5.448  15.471 -0.1268  0.3789  0.6821
17796TIP3   OH274878   5.440   0.279   5.782 -0.1549 -0.8294 -0.7144
17796TIP3    H174879   5.458   0.323   5.865 -1.1292  0.0633 -0.9650
17796TIP3    H274880   5.403   0.346   5.726 -0.4679 -1.6709 -1.5434
17797TIP3   OH274881   2.456   0.863  13.335 -0.5722  0.7012  0.6313
17797TIP3    H174882   2.515   0.790  13.319 -0.4019  0.5449  1.8684
17797TIP3    H274883   2.377   0.841  13.285  0.1721  0.6143 -0.5349
17798TIP3   OH274884   3.762   5.546   6.384  0.2446  0.2102 -0.5038
17798TIP3    H174885   3.779   5.454   6.364  2.0852  0.3192  0.3141
17798TIP3    H274886   3.807   5.561   6.467  1.7825  2.3449 -1.6264
17799TIP3   OH274887   4.839   6.087   2.576  0.2620  0.4182  0.7251
17799TIP3    H174888   4.882   6.005   2.551 -1.2233 -0.4450  0.8848
17799TIP3    H274889   4.834   6.136   2.494 -0.0514 -0.2355  0.3426
17800TIP3   OH274890   0.012   2.502  12.453  0.2492  0.3834  0.6536
17800TIP3    H174891   0.101   2.533  12.467  0.4746 -0.4233  1.0736
17800TIP3    H274892  -0.042   2.557  12.509  0.6712 -0.1464  1.5928
17801TIP3   OH274893   3.608   2.088  17.155 -0.1515  0.1107 -0.1927
17801TIP3    H174894   3.623   1.996  17.177  3.4384 -0.0244 -2.5328
17801TIP3    H274895   3.656   2.137  17.222 -0.5784  0.2456  0.0219
17802TIP3   OH274896   3.074   0.990  13.448 -0.1801  0.1932 -0.6168
17802TIP3    H174897   3.144   0.925  13.452  0.1182  0.5246 -0.3652
17802TIP3    H274898   3.033   0.977  13.362  2.2586  2.1026 -2.2049
17803TIP3   OH274899   1.692   0.572  15.311  0.3828  0.2744 -0.0664
17803TIP3    H174900   1.642   0.648  15.283 -1.4062 -0.9423 -0.3632
17803TIP3    H274901   1.781   0.589  15.281 -0.1370  1.8838 -0.7979
17804TIP3   OH274902   5.046   1.304  11.799  0.6613 -0.1460 -0.8092
17804TIP3    H174903   4.998   1.252  11.735  0.9823  0.3697 -1.4866
17804TIP3    H274904   5.138   1.278  11.786  0.5759 -1.3004  0.6339
17805TIP3   OH274905   2.994   5.476  16.773 -0.5147  0.2666 -0.3685
17805TIP3    H174906   3.000   5.505  16.865 -0.9462 -0.6470 -0.0394
17805TIP3    H274907   3.042   5.543  16.724  1.5291 -0.2826  0.7448
17806TIP3   OH274908   1.339   6.820   1.286 -0.0763 -0.0256  0.0017
17806TIP3    H174909   1.361   6.762   1.359 -1.7344  0.7079  1.1525
17806TIP3    H274910   1.359   6.769   1.208  2.8518 -0.4284  0.8824
17807TIP3   OH274911   0.889   0.170   1.941 -0.1827  0.2634  0.4727
17807TIP3    H174912   0.850   0.091   1.902 -0.3601  0.7678 -0.3864
17807TIP3    H274913   0.820   0.236   1.936  0.7138  1.1477 -0.9859
17808TIP3   OH274914   5.423   2.267   2.342 -0.3225  0.1742 -0.2249
17808TIP3    H174915   5.492   2.210   2.306  0.3603  0.5306  0.4893
17808TIP3    H274916   5.385   2.309   2.265  1.5504  1.4274 -0.5308
17809TIP3   OH274917   3.350   1.817   0.891 -0.4792 -1.0146 -0.1134
17809TIP3    H174918   3.378   1.908   0.876 -0.6089 -1.2547 -1.9862
17809TIP3    H274919   3.271   1.826   0.945 -0.7651  0.0168 -0.6672
17810TIP3   OH274920   3.177   2.606   4.046 -0.0300 -0.2313 -0.3524
17810TIP3    H174921   3.180   2.545   3.973 -1.5179  1.6401 -2.0946
17810TIP3    H274922   3.097   2.582   4.094 -1.6999  1.4265 -2.1522
17811TIP3   OH274923   4.935   2.921   3.276 -0.5345  0.5270 -0.3618
17811TIP3    H174924   4.947   2.924   3.181 -1.1540  1.3530 -0.4250
17811TIP3    H274925   4.891   2.837   3.292 -0.3588  0.3487 -0.7900
17812TIP3   OH274926   2.529   2.755  12.622  0.0251 -0.5426  0.0827
17812TIP3    H174927   2.440   2.772  12.592 -0.4310 -3.0664 -0.2122
17812TIP3    H274928   2.563   2.689  12.561  1.1856 -1.4795  1.6538
17813TIP3   OH274929   6.649   1.475  11.306 -0.3251 -0.2423 -0.5145
17813TIP3    H174930   6.706   1.520  11.369 -1.4447 -1.5041  1.5296
17813TIP3    H274931   6.565   1.520  11.313 -0.5128 -0.5069 -1.0155
17814TIP3   OH274932   6.685   0.481  12.318  0.0864 -0.0576 -0.3380
17814TIP3    H174933   6.643   0.464  12.234 -2.1531 -1.8339  1.0277
17814TIP3    H274934   6.759   0.419  12.321 -0.1781 -0.3951 -0.7659
17815TIP3   OH274935   6.150   0.692   5.910  0.1170  0.0398 -0.6187
17815TIP3    H174936   6.059   0.712   5.887  0.2614 -1.1079 -2.3838
17815TIP3    H274937   6.164   0.603   5.877  1.8561  0.1535 -0.2929
17816TIP3   OH274938   0.526   0.020  15.164 -0.2891 -0.3829  0.1759
17816TIP3    H174939   0.538   0.086  15.233  1.8628  0.6962 -1.1067
17816TIP3    H274940   0.481   0.067  15.094  0.3910 -0.5326 -0.3689
17817TIP3   OH274941   0.937   5.911  13.120  0.1008 -0.2182 -0.3929
17817TIP3    H174942   0.985   5.987  13.153  1.0694 -0.3209 -1.4668
17817TIP3    H274943   0.950   5.915  13.025 -2.1042 -0.2319 -0.7292
17818TIP3   OH274944   6.657   2.184  17.175 -0.1786 -0.5426  0.2233
17818TIP3    H174945   6.656   2.277  17.153 -1.7924 -0.8165 -1.0388
17818TIP3    H274946   6.687   2.141  17.095 -3.0078 -1.3290 -0.5093
17819TIP3   OH274947   3.124   3.415   3.904  0.0875 -0.4452 -0.1742
17819TIP3    H174948   3.192   3.437   3.840  2.1180 -0.6857  1.7830
17819TIP3    H274949   3.057   3.483   3.892  1.9759  1.4741 -0.3317
17820TIP3   OH274950   0.397   6.242  11.108  0.3801 -0.2692  0.1886
17820TIP3    H174951   0.310   6.218  11.140 -0.5198  2.9942  0.5455
17820TIP3    H274952   0.399   6.209  11.018 -1.7145  0.5423 -0.2271
17821TIP3   OH274953   5.934   4.085   3.546 -0.7403 -0.1461  0.3608
17821TIP3    H174954   5.887   4.015   3.500  0.1721  0.3553 -1.4236
17821TIP3    H274955   5.865   4.138   3.585 -1.5865 -0.4280 -0.6917
17822TIP3   OH274956   4.841   0.722   0.362  0.0812  0.0320 -0.2231
17822TIP3    H174957   4.901   0.706   0.435  0.4657  1.5700 -0.1609
17822TIP3    H274958   4.860   0.652   0.299  1.2962 -0.0546  0.2136
17823TIP3   OH274959   4.234   0.409  14.465 -0.4979 -0.8789  0.1076
17823TIP3    H174960   4.296   0.344  14.432 -0.8408 -1.2104  0.1124
17823TIP3    H274961   4.241   0.403  14.560 -0.5358 -0.9091  0.1084
17824TIP3   OH274962   1.801   1.204  14.262  0.0311 -0.0931  1.0554
17824TIP3    H174963   1.785   1.160  14.178 -1.2063 -0.6819  1.5622
17824TIP3    H274964   1.749   1.154  14.325 -1.3875  2.0373  1.6795
17825TIP3   OH274965   1.840   2.541  14.746 -0.3484 -0.4718 -0.3266
17825TIP3    H174966   1.793   2.458  14.757 -0.3201 -0.2380  2.2096
17825TIP3    H274967   1.932   2.519  14.755 -0.1376 -0.4539 -2.0478
17826TIP3   OH274968   6.343   3.038  10.666 -0.7482  0.1381 -0.1270
17826TIP3    H174969   6.368   3.124  10.632 -1.0080 -0.0794 -0.8786
17826TIP3    H274970   6.323   3.054  10.759  1.5806  0.4417  0.3971
17827TIP3   OH274971   4.753   4.151  17.221 -0.3544 -0.4125  0.0746
17827TIP3    H174972   4.769   4.132  17.313 -1.3360 -2.6396 -0.1438
17827TIP3    H274973   4.670   4.198  17.219 -0.3320 -0.3649  0.3267
17828TIP3   OH274974   5.737   2.218  15.488 -0.6140 -0.5096 -0.1130
17828TIP3    H174975   5.827   2.239  15.464 -0.9825  2.3339  0.6019
17828TIP3    H274976   5.743   2.136  15.536  2.2686  1.6125  3.6529
17829TIP3   OH274977   1.544   2.685   2.106 -0.2973 -0.0690  0.1109
17829TIP3    H174978   1.501   2.608   2.068  0.2893 -0.5765  0.4661
17829TIP3    H274979   1.634   2.658   2.121 -0.3510  0.3338  1.2536
17830TIP3   OH274980   2.299   0.594   1.195  1.0005 -0.3205 -0.3777
17830TIP3    H174981   2.296   0.668   1.135 -0.6093  0.2670  0.3676
17830TIP3    H274982   2.326   0.631   1.279  1.0340 -0.7370 -0.2008
17831TIP3   OH274983   4.719   4.437   1.282  0.0909 -0.1862  0.1409
17831TIP3    H174984   4.741   4.344   1.286  0.0222 -0.2285 -0.4021
17831TIP3    H274985   4.803   4.482   1.282  0.2334 -0.3457 -1.9191
17832TIP3   OH274986   2.982   1.458   5.054 -0.1811 -0.1348 -0.0332
17832TIP3    H174987   2.960   1.373   5.016 -3.6558  0.1142  1.0466
17832TIP3    H274988   3.061   1.441   5.106 -0.1489 -2.4308 -0.7218
17833TIP3   OH274989   1.852   1.237  12.934 -0.0108  0.5892  0.0002
17833TIP3    H174990   1.874   1.327  12.956 -0.7888  0.3474  1.9398
17833TIP3    H274991   1.918   1.184  12.979 -0.1990  0.1585 -0.2212
17834TIP3   OH274992   1.636   5.822   0.525 -0.2700 -0.3468 -0.3070
17834TIP3    H174993   1.637   5.750   0.462  1.2038 -1.6943  1.1430
17834TIP3    H274994   1.703   5.798   0.589 -0.3506  1.9185  0.7131
17835TIP3   OH274995   2.896   0.700  13.276 -0.3563  0.0640  0.2035
17835TIP3    H174996   2.988   0.678  13.263 -0.4419 -0.0000 -0.3355
17835TIP3    H274997   2.894   0.795  13.279 -0.1022  0.0517  1.6106
17836TIP3   OH274998   1.624   2.159  12.197 -0.4486  0.0517  0.2397
17836TIP3    H174999   1.533   2.145  12.223 -0.2912 -2.2935 -0.3440
17836TIP3    H275000   1.623   2.245  12.154 -2.1005  0.6624  1.3652
17837TIP3   OH275001   1.658   2.938   3.410 -0.2766  0.6428  0.6615
17837TIP3    H175002   1.658   2.892   3.326  1.7135  0.0847  0.9162
17837TIP3    H275003   1.580   2.906   3.455 -1.1332  0.6181 -0.7743
17838TIP3   OH275004   6.116   5.914   2.939  0.8622  0.2957  0.2149
17838TIP3    H175005   6.200   5.875   2.962  1.0337  0.9524  0.7131
17838TIP3    H275006   6.136   5.973   2.866  1.1642  1.7870  1.4667
17839TIP3   OH275007   2.379   5.326   5.958 -0.7075  0.1275 -0.4659
17839TIP3    H175008   2.290   5.361   5.948 -0.7530  0.6126  1.3089
17839TIP3    H275009   2.436   5.402   5.951 -0.7468  0.5506  2.4565
17840TIP3   OH275010   6.480   2.626  16.444  0.1460  0.0951 -0.1143
17840TIP3    H175011   6.385   2.643  16.442 -0.0491 -0.8367  0.5681
17840TIP3    H275012   6.515   2.693  16.503  0.0228  0.8901 -0.9202
17841TIP3   OH275013   6.323   1.334  10.929  0.3050  0.6067  0.0426
17841TIP3    H175014   6.299   1.298  10.844 -1.8702  1.6230  0.1396
17841TIP3    H275015   6.291   1.269  10.992  0.4479  0.6015  0.1079
17842TIP3   OH275016   4.128   5.910   1.182 -0.4066  0.1175  0.5980
17842TIP3    H175017   4.130   5.815   1.185  1.0393 -0.0078 -1.9249
17842TIP3    H275018   4.070   5.931   1.109  3.1330  0.8717 -2.3114
17843TIP3   OH275019   0.923   0.842   6.609 -0.6843  0.0932 -0.0560
17843TIP3    H175020   1.000   0.801   6.648  1.8479 -1.0100 -5.3729
17843TIP3    H275021   0.943   0.936   6.609 -1.9956  0.5264  3.2210
17844TIP3   OH275022   3.325   6.410  11.167  0.3266  0.9823 -0.0099
17844TIP3    H175023   3.386   6.396  11.095  0.4753  1.0949  0.0950
17844TIP3    H275024   3.378   6.401  11.246  0.0642  0.3459  0.0999
17845TIP3   OH275025   4.846   0.303   3.333 -0.4841 -0.2703 -0.2115
17845TIP3    H175026   4.784   0.250   3.284 -1.1216 -0.0815  0.3732
17845TIP3    H275027   4.793   0.373   3.371  0.1233  0.0165  0.1203
17846TIP3   OH275028   2.665   1.760  16.669  0.1983  0.3748 -0.7587
17846TIP3    H175029   2.596   1.783  16.606 -0.5572  1.9188  0.5603
17846TIP3    H275030   2.719   1.839  16.675  0.4131  0.1554  0.3398
17847TIP3   OH275031   6.730   3.829   3.992  0.3565  0.2671 -0.1834
17847TIP3    H175032   6.730   3.851   4.085  1.4658 -2.1640  0.4895
17847TIP3    H275033   6.656   3.770   3.982 -0.3062  1.2198 -1.0784
17848TIP3   OH275034   3.424   5.816   5.385  0.3603 -0.3438 -0.1564
17848TIP3    H175035   3.466   5.899   5.362  0.8772 -0.0845  1.5533
17848TIP3    H275036   3.449   5.756   5.315  0.0305  0.9087 -1.3870
17849TIP3   OH275037   6.794   3.402  16.571 -0.2754 -0.5662 -0.1452
17849TIP3    H175038   6.700   3.398  16.593 -0.2042  2.6980  1.5172
17849TIP3    H275039   6.831   3.324  16.612 -2.2126 -1.8708 -0.7089
17850TIP3   OH275040   5.472   1.944   5.998 -0.3251 -0.1197  0.0099
17850TIP3    H175041   5.440   2.000   6.068  0.2123  0.3973 -0.1445
17850TIP3    H275042   5.431   1.860   6.013  1.8411 -0.8499  2.5626
17851TIP3   OH275043   4.396   4.981   4.160  0.2513 -0.6153  0.2188
17851TIP3    H175044   4.390   4.886   4.149 -0.3254 -0.8235  2.0706
17851TIP3    H275045   4.446   4.994   4.241  1.5112  0.7136 -0.7041
17852TIP3   OH275046   3.101   1.550  16.464 -0.8428 -0.2283 -0.0052
17852TIP3    H175047   3.014   1.579  16.492 -0.8984 -0.1376 -0.2715
17852TIP3    H275048   3.097   1.454  16.471 -0.9766 -0.2267 -0.0573
17853TIP3   OH275049   1.079   0.884   3.984 -0.7957 -0.7694 -0.0045
17853TIP3    H175050   1.084   0.808   3.926 -2.1883 -1.5393  0.8211
17853TIP3    H275051   1.108   0.957   3.930  2.5920 -2.1211 -0.2667
17854TIP3   OH275052   5.925   2.523  13.353 -0.6002  0.2844 -0.3920
17854TIP3    H175053   5.965   2.574  13.424 -0.8283  1.3445 -1.0071
17854TIP3    H275054   5.891   2.588  13.292  0.8491 -0.5822 -2.2351
17855TIP3   OH275055   3.397   0.737  15.475 -0.5018  0.0260  0.5652
17855TIP3    H175056   3.374   0.675  15.406  1.4343  3.0972 -3.3108
17855TIP3    H275057   3.478   0.703  15.513 -1.1212 -1.2726  0.7875
17856TIP3   OH275058   6.773   3.879   0.806  0.0352 -0.1482 -0.0620
17856TIP3    H175059   6.713   3.878   0.732  1.5409 -1.0293 -1.3108
17856TIP3    H275060   6.716   3.879   0.883 -1.6003 -2.6280 -1.1662
17857TIP3   OH275061   5.751   5.177  14.530 -0.1863  0.2424 -0.0241
17857TIP3    H175062   5.774   5.206  14.618 -1.5713 -0.2219  0.5121
17857TIP3    H275063   5.658   5.195  14.522 -0.6444 -2.0267 -0.4550
17858TIP3   OH275064   2.255   2.795  15.363 -0.0455  0.0283  0.0383
17858TIP3    H175065   2.271   2.861  15.294  1.1998 -0.4135 -0.1272
17858TIP3    H275066   2.249   2.713  15.315  0.0259 -0.1767  0.3841
17859TIP3   OH275067   5.899   4.951   0.124  0.0401  0.2473  0.3229
17859TIP3    H175068   5.881   4.929   0.215 -1.0668 -2.0127 -0.3642
17859TIP3    H275069   5.817   4.988   0.092  0.0028 -0.1622 -0.0680
17860TIP3   OH275070   5.061   4.423   3.021  0.0237  0.0822  0.3549
17860TIP3    H175071   5.068   4.328   3.030 -0.4311 -0.1038 -1.0252
17860TIP3    H275072   5.152   4.454   3.019  0.1931 -0.0688  2.7799
17861TIP3   OH275073   1.598   2.393   1.429 -0.0262 -0.0922 -0.3034
17861TIP3    H175074   1.575   2.335   1.501  0.1931 -0.7161 -0.7336
17861TIP3    H275075   1.525   2.386   1.368 -1.1275  1.8527  0.6691
17862TIP3   OH275076   1.742   1.047  15.945  0.2420  0.2558 -0.2641
17862TIP3    H175077   1.647   1.060  15.942  0.3449  1.0072 -2.8624
17862TIP3    H275078   1.756   0.966  15.896  0.9550  0.1400  0.1217
17863TIP3   OH275079   2.734   1.109   6.156  0.3104 -0.1551 -0.3100
17863TIP3    H175080   2.719   1.040   6.221  0.1120 -1.5264 -1.7369
17863TIP3    H275081   2.654   1.160   6.156 -0.8424 -1.8395 -1.3769
17864TIP3   OH275082   2.589   6.134   0.705  0.0804 -0.1873 -0.3499
17864TIP3    H175083   2.636   6.209   0.742  0.1379  0.5922 -1.9509
17864TIP3    H275084   2.515   6.173   0.658 -0.3325 -1.1931 -0.5616
17865TIP3   OH275085   4.205   5.425   4.308 -0.2061  0.0548 -0.4336
17865TIP3    H175086   4.271   5.374   4.260  0.5658  0.4541  0.1737
17865TIP3    H275087   4.159   5.360   4.361 -1.4046 -0.4692 -2.0480
17866TIP3   OH275088   2.037   3.889  13.620  0.5096 -0.1296  0.0156
17866TIP3    H175089   2.067   3.832  13.549 -0.5701  1.1524 -1.5389
17866TIP3    H275090   2.032   3.976  13.581 -1.7953  0.3352  1.1736
17867TIP3   OH275091   6.031   3.852   5.450 -0.3933  0.1291 -0.2898
17867TIP3    H175092   6.103   3.810   5.403 -0.2867 -1.0950  0.9125
17867TIP3    H275093   6.074   3.911   5.512 -0.4234 -0.4508  0.2878
17868TIP3   OH275094   5.057   5.601   5.623 -0.7466  0.2740 -0.1359
17868TIP3    H175095   5.131   5.603   5.562 -0.2297 -0.7033  0.4315
17868TIP3    H275096   5.095   5.570   5.705 -1.7361  0.0553  0.2523
17869TIP3   OH275097   5.139   3.071   4.279 -0.0054 -0.3802 -0.0249
17869TIP3    H175098   5.197   3.147   4.270 -0.1165 -0.2837  0.0717
17869TIP3    H275099   5.068   3.087   4.217 -0.2011 -0.2460  0.2338
17870TIP3   OH275100   3.283   2.414  15.385 -0.7241  0.2145  0.2824
17870TIP3    H175101   3.231   2.361  15.446 -2.1404 -0.0752 -1.1270
17870TIP3    H275102   3.284   2.501  15.424  2.0126 -0.8136  2.8753
17871TIP3   OH275103   3.390   3.935   4.536  0.1092 -0.0806  0.3296
17871TIP3    H175104   3.443   4.014   4.525  0.3389 -0.2939 -0.1745
17871TIP3    H275105   3.301   3.962   4.511  0.3619 -0.2006 -0.7759
17872TIP3   OH275106   1.367   3.607   3.132 -0.3833 -0.9099 -0.2518
17872TIP3    H175107   1.292   3.611   3.073  0.2932  0.5746 -1.0481
17872TIP3    H275108   1.331   3.633   3.217 -0.4399  2.0129 -1.0491
17873TIP3   OH275109   3.583   3.314   0.258  0.1661  0.0607 -0.6090
17873TIP3    H175110   3.544   3.303   0.171  0.5554  0.8984 -0.9052
17873TIP3    H275111   3.526   3.378   0.301 -1.1047 -1.6881  0.4631
17874TIP3   OH275112   3.110   1.351  13.393 -0.0857  0.4322 -0.1319
17874TIP3    H175113   3.063   1.303  13.461 -1.5852  1.2110 -0.5711
17874TIP3    H275114   3.202   1.350  13.422 -0.4279 -0.7398  0.9903
17875TIP3   OH275115   1.188   3.475   4.734 -1.1097 -0.5280 -0.0674
17875TIP3    H175116   1.237   3.518   4.664 -1.8529 -2.2968 -1.7798
17875TIP3    H275117   1.100   3.462   4.697 -1.7432 -0.8469  1.4748
17876TIP3   OH275118   3.001   0.827   5.284 -0.0025 -0.5205 -0.2466
17876TIP3    H175119   2.961   0.741   5.276  1.4171 -1.3330  0.9294
17876TIP3    H275120   2.992   0.850   5.376 -0.2198  0.5299 -0.5147
17877TIP3   OH275121   2.025   2.720   5.292  0.8352 -0.2471  0.1869
17877TIP3    H175122   1.945   2.677   5.324  1.6023  0.4469  3.4620
17877TIP3    H275123   1.995   2.778   5.222 -1.1364 -1.6835 -0.2395
17878TIP3   OH275124   5.132   5.255   2.260 -0.3161  0.3500 -0.0626
17878TIP3    H175125   5.169   5.337   2.292  2.1396 -0.4365 -0.7079
17878TIP3    H275126   5.153   5.254   2.167  0.1849 -1.2528  0.0461
17879TIP3   OH275127   3.771   5.940  15.798 -0.0013  0.4808  0.2367
17879TIP3    H175128   3.719   5.972  15.724  0.5898  0.4342 -0.1965
17879TIP3    H275129   3.770   6.012  15.861  1.4568  1.4523 -0.7998
17880TIP3   OH275130   0.159   5.326  13.878 -0.4549 -0.8267  0.3826
17880TIP3    H175131   0.230   5.284  13.829  0.4864  0.3425  0.6977
17880TIP3    H275132   0.181   5.311  13.970 -0.2216  0.1222  0.4961
17881TIP3   OH275133   2.155   1.779  11.959 -0.3377 -0.1488 -0.1412
17881TIP3    H175134   2.238   1.828  11.956  0.9463 -2.2374 -0.7346
17881TIP3    H275135   2.182   1.688  11.964 -2.6072 -0.9732 -1.6628
17882TIP3   OH275136   4.002   2.125  14.497 -0.5345  0.3865  0.2746
17882TIP3    H175137   3.919   2.076  14.497 -1.3833  1.7612  0.4462
17882TIP3    H275138   4.039   2.109  14.584  0.2759 -1.6092 -0.3737
17883TIP3   OH275139   4.153   2.772  14.990  0.1706  0.3388  0.9061
17883TIP3    H175140   4.218   2.819  14.937 -0.2444 -1.1505 -1.0554
17883TIP3    H275141   4.177   2.680  14.981 -0.5999 -0.0404  2.4547
17884TIP3   OH275142   5.068   6.027  11.812  0.0270 -0.3261 -0.0768
17884TIP3    H175143   5.005   6.087  11.772 -0.2268  0.2650  1.1710
17884TIP3    H275144   5.135   6.084  11.850  0.7712 -0.9139 -0.4740
17885TIP3   OH275145   0.627   0.317  13.161  0.0474  0.4100  0.3418
17885TIP3    H175146   0.699   0.264  13.125 -2.1336 -1.0400 -2.2092
17885TIP3    H275147   0.651   0.329  13.254  2.7081 -1.4303  0.0166
17886TIP3   OH275148   2.437   1.939  12.777 -0.3500 -0.2536 -0.4624
17886TIP3    H175149   2.403   1.954  12.689  1.1143 -0.7711 -1.1550
17886TIP3    H275150   2.382   1.870  12.814 -0.6880 -0.3556 -1.1470
17887TIP3   OH275151   2.421   5.845   1.155  0.5320  0.0712 -0.4272
17887TIP3    H175152   2.508   5.840   1.195  0.1518 -1.6542  0.2922
17887TIP3    H275153   2.390   5.933   1.176  1.6690  0.3364  0.2527
17888TIP3   OH275154   4.044   1.341  16.747 -0.3850  0.2255 -0.4100
17888TIP3    H175155   3.983   1.351  16.821 -0.2606 -1.7672  0.0114
17888TIP3    H275156   3.996   1.378  16.673 -1.1033  0.9378  0.3737
17889TIP3   OH275157   3.217   3.930  12.277 -0.1535  0.7039 -0.0051
17889TIP3    H175158   3.183   3.849  12.239 -0.8094  0.3601  1.2601
17889TIP3    H275159   3.146   3.993  12.267  0.0286  0.8815 -0.1955
17890TIP3   OH275160   6.039   3.978  10.459 -0.7395 -0.2336  0.1685
17890TIP3    H175161   6.061   3.887  10.438  2.8040  0.3411  0.6549
17890TIP3    H275162   6.085   3.995  10.541  1.2217  2.7548 -1.3788
17891TIP3   OH275163   2.073   4.073  12.881  0.6880 -0.0395  0.1987
17891TIP3    H175164   2.068   4.140  12.949 -1.0764  1.1199 -0.9894
17891TIP3    H275165   1.990   4.082  12.833  0.8441 -2.4196 -0.6230
17892TIP3   OH275166   2.423   4.050   5.240 -0.5482  0.1815  0.3798
17892TIP3    H175167   2.422   4.090   5.326 -1.0325  0.6310  0.1730
17892TIP3    H275168   2.336   4.068   5.204 -0.3420  0.0348 -0.2147
17893TIP3   OH275169   0.737   2.298  12.697  0.3829  0.8551 -0.5833
17893TIP3    H175170   0.831   2.288  12.684  0.4896  0.3535  0.4866
17893TIP3    H275171   0.715   2.237  12.766 -1.5239 -2.3955 -3.7124
17894TIP3   OH275172   5.337   0.308  16.738  0.2326 -0.3665  0.4480
17894TIP3    H175173   5.366   0.291  16.828  1.2951 -0.8231  0.0266
17894TIP3    H275174   5.341   0.403  16.729  3.2181 -0.4794 -0.1111
17895TIP3   OH275175   2.626   3.049  17.200  0.4037  0.3489 -0.9197
17895TIP3    H175176   2.630   3.034  17.294 -0.6229  0.9286 -0.7731
17895TIP3    H275177   2.647   3.142  17.189 -1.9684  0.9316 -1.0047
17896TIP3   OH275178   5.991   5.095   0.330  0.1814 -0.2763  0.2364
17896TIP3    H175179   6.062   5.031   0.324  0.0897 -0.3107 -0.5580
17896TIP3    H275180   5.965   5.112   0.239  2.2482  3.1799  0.1105
17897TIP3   OH275181   4.253   4.297  15.491  0.4472 -0.2603  0.5625
17897TIP3    H175182   4.159   4.293  15.509 -0.4328  2.1498 -2.5935
17897TIP3    H275183   4.281   4.380  15.530  0.1578  1.2666 -2.2663
17898TIP3   OH275184   3.981   0.455  14.319 -0.2989  0.4678 -0.5731
17898TIP3    H175185   3.934   0.523  14.367 -0.9699 -0.8136  0.6744
17898TIP3    H275186   4.070   0.459  14.354 -0.6827 -0.1826  0.5347
17899TIP3   OH275187   3.376   2.949   1.800  0.4284 -0.4290 -0.1746
17899TIP3    H175188   3.451   2.892   1.782 -0.1281 -0.8898 -1.0945
17899TIP3    H275189   3.415   3.033   1.821  1.2014 -0.1823 -2.3468
17900TIP3   OH275190   1.539   6.152  16.730  0.0892  0.4814  0.3930
17900TIP3    H175191   1.480   6.149  16.805 -0.1055 -0.6849  0.2167
17900TIP3    H275192   1.603   6.219  16.752 -0.4807  0.7704  1.2113
17901TIP3   OH275193   0.604   2.803  17.093  0.2628  0.1791  0.2981
17901TIP3    H175194   0.692   2.839  17.102  1.9024 -3.5442  1.1125
17901TIP3    H275195   0.548   2.865  17.138  2.3350  2.9381 -0.6220
17902TIP3   OH275196   0.976   3.213  14.781  1.1787  0.9374 -0.1364
17902TIP3    H175197   0.897   3.263  14.763  0.0423 -0.9528 -0.6822
17902TIP3    H275198   1.046   3.262  14.736  0.5938  3.2538  1.3208
17903TIP3   OH275199   5.788   5.170  11.739 -0.4977  0.2847  0.7158
17903TIP3    H175200   5.737   5.222  11.678  0.3075 -0.0985 -0.3235
17903TIP3    H275201   5.824   5.099  11.686 -0.1681 -0.3408  1.7375
17904TIP3   OH275202   2.113   0.136  10.606  0.3898  0.5277 -0.1993
17904TIP3    H175203   2.068   0.117  10.688  0.3858 -1.8119 -0.6967
17904TIP3    H275204   2.206   0.131  10.628  0.3888  0.0561 -0.2970
17905TIP3   OH275205   3.868   3.102  16.577  0.2217  0.1533  0.2891
17905TIP3    H175206   3.920   3.172  16.538 -0.3712  0.3830 -0.0901
17905TIP3    H275207   3.823   3.143  16.651 -0.0559  0.1495  0.1219
17906TIP3   OH275208   6.494   4.589   5.268 -0.0572 -0.1501 -0.0271
17906TIP3    H175209   6.507   4.555   5.356 -1.1667  1.5963  0.8709
17906TIP3    H275210   6.409   4.555   5.242 -0.2846  0.3284  0.0834
17907TIP3   OH275211   1.818   2.620   2.104  0.4417 -0.0314 -0.0036
17907TIP3    H175212   1.887   2.660   2.049 -0.1383 -0.7666 -1.3223
17907TIP3    H275213   1.843   2.528   2.109  0.5078  0.0368  1.0415
17908TIP3   OH275214   6.283   2.802  11.896 -0.3267 -0.2348  0.8189
17908TIP3    H175215   6.312   2.715  11.869  1.1710  0.7173 -0.8364
17908TIP3    H275216   6.222   2.830  11.828  0.1489  0.4795  0.6689
17909TIP3   OH275217   1.987   3.328   6.568  0.2950  0.7720  0.8249
17909TIP3    H175218   2.073   3.326   6.610  0.5040 -1.8955  0.4801
17909TIP3    H275219   1.945   3.407   6.601  0.8873 -0.4487  5.1306
17910TIP3   OH275220   4.484   4.637   6.786 -0.4159 -0.2126 -0.2773
17910TIP3    H175221   4.510   4.617   6.696  2.8297 -0.1442  0.4957
17910TIP3    H275222   4.521   4.724   6.803 -0.5315 -0.4225  1.2505
17911TIP3   OH275223   1.729   5.064   0.259  0.2220 -0.4389  0.6705
17911TIP3    H175224   1.676   5.143   0.275 -0.0534 -0.3731 -0.4675
17911TIP3    H275225   1.817   5.097   0.244  0.4133 -0.4757  1.6332
17912TIP3   OH275226   3.441   4.952   6.482 -0.4436  0.2673 -0.0044
17912TIP3    H175227   3.503   4.881   6.465  0.2197  1.1575 -1.4818
17912TIP3    H275228   3.356   4.915   6.457 -0.2691 -0.3470  0.2796
17913TIP3   OH275229   6.723   0.687  13.192  0.2094 -0.0511  0.3997
17913TIP3    H175230   6.736   0.685  13.097  1.5359  0.3015  0.5505
17913TIP3    H275231   6.671   0.766  13.208 -0.6966 -0.5391 -0.0952
17914TIP3   OH275232   5.209   3.070   5.482  0.2871  0.0823 -0.2560
17914TIP3    H175233   5.135   3.074   5.421  2.6825  1.7390 -3.3481
17914TIP3    H275234   5.169   3.080   5.568 -3.0840  0.8878 -1.7244
17915TIP3   OH275235   1.986   3.898   4.614  0.1353  0.2389  0.0386
17915TIP3    H175236   2.056   3.833   4.614 -1.2930 -1.3694 -0.2124
17915TIP3    H275237   1.909   3.851   4.583 -0.4213  2.7230 -2.8320
17916TIP3   OH275238   5.471   4.035   4.057 -0.4606 -0.5358 -0.5519
17916TIP3    H175239   5.452   3.942   4.070 -0.2240 -0.6730 -1.1508
17916TIP3    H275240   5.391   4.080   4.086  0.2405 -0.7506  1.8994
17917TIP3   OH275241   6.514   4.362  15.875  0.2183  0.0022  0.2911
17917TIP3    H175242   6.529   4.286  15.819 -1.4069  0.0497 -0.2512
17917TIP3    H275243   6.472   4.326  15.953  0.4741  0.2042  0.5221
17918TIP3   OH275244   6.253   4.504   5.237 -0.3886  0.2238  0.0803
17918TIP3    H175245   6.269   4.454   5.316  0.1870  2.0393  1.1723
17918TIP3    H275246   6.259   4.440   5.166  3.5698 -0.7854  1.0702
17919TIP3   OH275247   2.335   3.139   2.251 -0.0624 -0.2614 -0.1057
17919TIP3    H175248   2.277   3.199   2.204 -0.7807 -1.8119 -1.3008
17919TIP3    H275249   2.388   3.098   2.183  0.6713 -0.7193  0.7109
17920TIP3   OH275250   3.162   2.764  13.931  0.1040  0.2307 -0.5111
17920TIP3    H175251   3.250   2.728  13.938 -0.1600 -0.1605  1.6933
17920TIP3    H275252   3.174   2.859  13.930  0.5516  0.1930  0.3880
17921TIP3   OH275253   1.094   6.378  11.126 -0.6699  0.3009  0.3107
17921TIP3    H175254   1.125   6.288  11.133  2.2948  1.2365  0.6022
17921TIP3    H275255   1.134   6.411  11.046 -0.1917  1.8643  1.1533
17922TIP3   OH275256   5.599   3.592   3.134 -0.2659 -0.2717 -0.2876
17922TIP3    H175257   5.545   3.615   3.210  0.3737  1.2019 -0.2550
17922TIP3    H275258   5.548   3.525   3.089 -0.1987 -1.9472  1.9596
17923TIP3   OH275259   5.224   6.368  16.491 -0.0635 -0.6872 -0.4038
17923TIP3    H175260   5.207   6.418  16.571  0.7690 -1.4967  0.3008
17923TIP3    H275261   5.169   6.290  16.499  0.4769 -1.0660 -0.3204
17924TIP3   OH275262   5.274   2.108   3.865 -0.5807  0.0210  0.5651
17924TIP3    H175263   5.287   2.096   3.771 -0.0620 -0.9824  0.7570
17924TIP3    H275264   5.363   2.111   3.901 -0.7800  0.2270  1.0488
17925TIP3   OH275265   5.010   0.516   2.900 -0.6480 -0.0365  0.1125
17925TIP3    H175266   4.943   0.450   2.882 -0.1393 -0.4562 -0.2719
17925TIP3    H275267   4.973   0.598   2.867 -1.3503 -0.0937  0.7374
17926TIP3   OH275268   5.214   0.606  13.288  0.5918 -0.0612 -0.3054
17926TIP3    H175269   5.171   0.678  13.240 -1.4340 -1.8662 -1.3546
17926TIP3    H275270   5.173   0.527  13.254  1.4605 -1.6512  2.1160
17927TIP3   OH275271   2.213   5.203   0.945 -0.2303 -0.1726 -0.3865
17927TIP3    H175272   2.305   5.228   0.951 -0.3184  0.0967 -0.1269
17927TIP3    H275273   2.167   5.268   0.998 -0.9318  1.5667 -2.9396
17928TIP3   OH275274   6.502   1.256  16.913  0.2578 -0.4080 -0.0671
17928TIP3    H175275   6.554   1.272  16.834  0.6515 -1.1222  0.0392
17928TIP3    H275276   6.412   1.249  16.881  0.4598 -1.0893 -0.5174
17929TIP3   OH275277   4.650   0.674   4.581 -0.3080  1.1505 -0.5981
17929TIP3    H175278   4.726   0.625   4.612 -0.3011  1.3580 -0.2823
17929TIP3    H275279   4.687   0.751   4.538 -0.2708  0.2952 -2.1691
17930TIP3   OH275280   6.325   4.428   0.897 -0.0241 -0.3845  0.2622
17930TIP3    H175281   6.312   4.485   0.821 -1.4368 -0.9232  0.0710
17930TIP3    H275282   6.420   4.417   0.903  0.1334  0.0068 -1.1697
17931TIP3   OH275283   3.331   5.138  16.000 -0.1385  0.2780  0.5159
17931TIP3    H175284   3.311   5.229  16.021  0.5934  0.8539 -1.1088
17931TIP3    H275285   3.362   5.141  15.910 -0.4853 -1.6499  0.2961
17932TIP3   OH275286   1.264   5.541   4.174  0.0333 -0.2187  0.1740
17932TIP3    H175287   1.334   5.583   4.224 -1.0400  0.9603  0.7344
17932TIP3    H275288   1.194   5.526   4.237 -1.1491  0.8063 -0.8393
17933TIP3   OH275289   0.789   6.332  16.389 -0.0593 -0.3436  0.1497
17933TIP3    H175290   0.870   6.320  16.439  0.0561 -1.7245 -0.3228
17933TIP3    H275291   0.737   6.394  16.441  0.8961 -0.1859  0.9413
17934TIP3   OH275292   4.528   2.468  14.083 -0.5363 -0.5074  0.1194
17934TIP3    H175293   4.568   2.554  14.071  1.0049 -1.3606 -1.2346
17934TIP3    H275294   4.466   2.481  14.155  0.2342  1.5225  0.4995
17935TIP3   OH275295   6.017   5.959  11.625 -0.3416 -0.4458 -0.3193
17935TIP3    H175296   6.029   6.024  11.556 -0.2837 -0.4240 -0.2887
17935TIP3    H275297   6.021   6.010  11.706 -3.1469 -0.0267 -0.3446
17936TIP3   OH275298   2.134   4.360   4.146 -0.0094 -0.0190 -0.0504
17936TIP3    H175299   2.229   4.364   4.143  0.1866 -0.0210  3.0027
17936TIP3    H275300   2.114   4.267   4.145  0.0723 -0.0384  0.1057
17937TIP3   OH275301   6.317   1.992   0.062 -0.5553 -0.5925  0.1884
17937TIP3    H175302   6.384   2.043   0.107  0.7295 -1.8311 -0.2506
17937TIP3    H275303   6.292   2.046  -0.013 -1.8556  0.9493  1.6489
17938TIP3   OH275304   0.165   5.639   2.303  0.0426  0.5940 -0.2222
17938TIP3    H175305   0.077   5.674   2.291  0.0609  0.1682 -1.7540
17938TIP3    H275306   0.208   5.701   2.362 -1.3961  0.5756  0.8870
17939TIP3   OH275307   1.635   3.928  15.592 -0.3923  0.2648  0.3655
17939TIP3    H175308   1.657   4.020  15.607  1.0928 -0.0596  0.4017
17939TIP3    H275309   1.556   3.930  15.539  0.0702  1.5831 -0.3182
17940TIP3   OH275310   0.560   6.716   0.729 -0.2036 -0.3943  0.1299
17940TIP3    H175311   0.524   6.630   0.748 -1.8349  0.1011 -0.5330
17940TIP3    H275312   0.569   6.758   0.815 -2.4904 -0.0834  0.2691
17941TIP3   OH275313   1.895   2.177  13.130  0.2076 -0.0011  0.4083
17941TIP3    H175314   1.868   2.158  13.041  0.8795 -0.3565  0.2778
17941TIP3    H275315   1.990   2.165  13.130  0.2978  0.6136  1.0120
17942TIP3   OH275316   0.653   3.891   4.746  0.0745 -0.3615  0.3538
17942TIP3    H175317   0.726   3.904   4.686  0.9466 -1.5358  1.1265
17942TIP3    H275318   0.685   3.923   4.830 -1.3817  1.9474  0.1344
17943TIP3   OH275319   5.064   3.625   4.075 -0.2617 -0.1798 -0.1680
17943TIP3    H175320   4.997   3.561   4.051  0.4324 -1.4731  1.1446
17943TIP3    H275321   5.127   3.623   4.003 -0.5105 -0.5960 -0.3753
17944TIP3   OH275322   0.239   4.061  11.954  0.2359 -0.0023  0.1602
17944TIP3    H175323   0.239   4.146  11.997  0.1551  0.3035 -0.4287
17944TIP3    H275324   0.284   4.002  12.015 -0.0827  0.3661  0.7508
17945TIP3   OH275325   4.821   1.085   3.711 -0.1478  0.6915  0.0690
17945TIP3    H175326   4.816   1.181   3.704  1.2353  0.8690  1.1529
17945TIP3    H275327   4.732   1.056   3.693 -1.1099  2.3378  1.7418
17946TIP3   OH275328   0.459   0.491  16.571  0.3143 -0.3625  0.5244
17946TIP3    H175329   0.420   0.494  16.659  1.4962 -0.5183  1.0708
17946TIP3    H275330   0.553   0.492  16.587  0.5420 -0.1750 -0.7629
17947TIP3   OH275331   1.144   4.886   5.480  0.0250  0.6214  0.3125
17947TIP3    H175332   1.079   4.816   5.474 -0.3158  0.8133  1.5328
17947TIP3    H275333   1.093   4.965   5.495  0.3892  1.2170 -1.3468
17948TIP3   OH275334   6.269   3.514   0.619  1.0703 -0.1658  0.5409
17948TIP3    H175335   6.266   3.443   0.555  0.0168  0.8780 -0.6208
17948TIP3    H275336   6.322   3.479   0.691  1.1868 -1.8472 -0.3100
17949TIP3   OH275337   4.717   5.382  12.911  0.3958  0.1460  0.2590
17949TIP3    H175338   4.708   5.403  13.004  0.3111 -1.0015  0.5240
17949TIP3    H275339   4.629   5.394  12.876 -0.4083 -2.5925  1.0477
17950TIP3   OH275340   3.133   3.963  14.101  0.2428  0.2151 -0.9814
17950TIP3    H175341   3.214   3.935  14.143 -1.4312 -0.5641  2.0547
17950TIP3    H275342   3.077   3.992  14.173 -2.6423 -0.5114 -2.7294
17951TIP3   OH275343   2.999   2.198  11.557 -0.2938 -0.1674  0.0638
17951TIP3    H175344   3.094   2.195  11.548 -0.4978 -1.6450 -2.5689
17951TIP3    H275345   2.975   2.288  11.538  0.4746 -0.2423 -1.4090
17952TIP3   OH275346   0.769   2.503   4.743 -0.4046  0.0844  0.5087
17952TIP3    H175347   0.728   2.506   4.830 -0.2116 -0.3696  0.6208
17952TIP3    H275348   0.788   2.594   4.722 -1.2170  0.2717  0.5782
17953TIP3   OH275349   4.698   0.108  14.346  0.2709  0.1866  0.1399
17953TIP3    H175350   4.748   0.059  14.411 -0.3400  1.2612  1.4549
17953TIP3    H275351   4.759   0.176  14.316 -0.2287  1.2495  1.4531
17954TIP3   OH275352   0.852   1.303  15.764 -0.3677 -0.0365 -0.2838
17954TIP3    H175353   0.888   1.362  15.830  0.9755 -1.9132  0.7623
17954TIP3    H275354   0.794   1.358  15.712  0.3741  2.0542  0.9681
17955TIP3   OH275355   2.058   1.060   5.555 -0.3130  0.1985  0.8197
17955TIP3    H175356   2.126   1.098   5.610  1.1432  0.7072 -1.2491
17955TIP3    H275357   2.012   1.135   5.517 -1.4464 -0.1441  1.4510
17956TIP3   OH275358   1.843   2.522   5.940  0.7384 -0.1630  0.2645
17956TIP3    H175359   1.881   2.448   5.892  0.4383  0.9452 -1.7961
17956TIP3    H275360   1.906   2.541   6.009  0.5486 -2.6732  1.2059
17957TIP3   OH275361   0.190   6.114  12.654  0.2577 -0.1680  0.0904
17957TIP3    H175362   0.184   6.208  12.669 -1.2064 -0.1999 -0.0865
17957TIP3    H275363   0.221   6.078  12.737 -1.4628  0.2635  0.9678
17958TIP3   OH275364   1.206   3.850  14.690  0.5421  0.5506 -0.2333
17958TIP3    H175365   1.164   3.896  14.763 -0.1112  0.7269 -0.7114
17958TIP3    H275366   1.170   3.892  14.612  1.5428  0.6455 -0.6597
17959TIP3   OH275367   5.602   2.930   3.800  0.6099  0.2673 -0.7776
17959TIP3    H175368   5.645   2.990   3.739  0.5418 -0.4879 -1.5849
17959TIP3    H275369   5.527   2.896   3.752 -0.3507  0.8238  0.2828
17960TIP3   OH275370   0.142   3.353   1.719  0.2365 -0.2666  0.4443
17960TIP3    H175371   0.096   3.342   1.636  0.2995  3.9580 -0.3964
17960TIP3    H275372   0.234   3.361   1.695  0.0874  2.9912  0.4328
17961TIP3   OH275373   2.499   4.381  14.619 -0.0497 -0.3457  0.0838
17961TIP3    H175374   2.499   4.361  14.525 -3.5230  2.5904 -0.8073
17961TIP3    H275375   2.435   4.321  14.656  1.2672 -1.4541  0.6146
17962TIP3   OH275376   0.857   0.543  13.175  0.0984 -0.4550  0.0771
17962TIP3    H175377   0.931   0.489  13.203 -0.3927 -0.6599  1.0240
17962TIP3    H275378   0.782   0.506  13.221 -0.3030  0.8361  0.4943
17963TIP3   OH275379   5.040   3.304  12.745 -0.2498 -0.1026 -0.3314
17963TIP3    H175380   4.973   3.335  12.806 -1.4251 -0.9316 -1.1628
17963TIP3    H275381   5.062   3.380  12.692 -0.0792  0.3220  0.3274
17964TIP3   OH275382   6.818   4.431  15.092  0.0197  0.3744 -0.2276
17964TIP3    H175383   6.821   4.497  15.162 -1.8070  2.2322 -1.7998
17964TIP3    H275384   6.899   4.444  15.044  0.6071  0.0626  0.6389
17965TIP3   OH275385   5.907   0.631  14.623  0.0797  0.1322 -0.2592
17965TIP3    H175386   6.000   0.649  14.612  0.2908 -1.1716 -0.8056
17965TIP3    H275387   5.880   0.593  14.539 -1.3625  2.0767 -0.7398
17966TIP3   OH275388   6.308   2.194  15.960 -0.3240  0.0627 -0.7425
17966TIP3    H175389   6.269   2.116  15.999 -0.3200  0.2217 -0.4187
17966TIP3    H275390   6.239   2.261  15.966 -1.3998 -0.6305 -3.5587
17967TIP3   OH275391   0.116   2.806  10.652  0.3241  0.1525 -0.2709
17967TIP3    H175392   0.026   2.813  10.684  0.2783  1.3600 -0.6287
17967TIP3    H275393   0.109   2.750  10.574 -0.2074  0.7001 -0.6234
17968TIP3   OH275394   0.845   4.486  10.483  0.3880 -0.0094 -0.5442
17968TIP3    H175395   0.778   4.490  10.415 -1.1406 -0.2856  0.8692
17968TIP3    H275396   0.885   4.400  10.472 -0.8299 -0.6424 -0.2562
17969TIP3   OH275397   4.087   4.362  17.149 -0.3329  0.2832 -0.1658
17969TIP3    H175398   4.092   4.268  17.136  0.3047  0.2377  0.3614
17969TIP3    H275399   4.152   4.398  17.088 -0.2944  0.3562 -0.0805
17970TIP3   OH275400   4.164   5.297   1.546 -0.3067  0.3265 -0.0093
17970TIP3    H175401   4.238   5.354   1.567  0.6525 -0.6133 -0.7127
17970TIP3    H275402   4.183   5.216   1.593  0.5188 -0.8664 -2.2602
17971TIP3   OH275403   2.732   3.630  16.429 -0.2775 -0.5198 -0.2790
17971TIP3    H175404   2.732   3.562  16.361  0.1764 -0.4334 -0.3649
17971TIP3    H275405   2.715   3.711  16.382  0.6148 -0.3791 -0.3776
17972TIP3   OH275406   5.146   5.193   3.889 -0.2159 -0.1419  0.4085
17972TIP3    H175407   5.152   5.193   3.985  1.7179 -0.3964  0.3226
17972TIP3    H275408   5.213   5.132   3.860  0.0533  0.8192 -1.1439
17973TIP3   OH275409   4.018   5.562   4.911  0.0567  0.0081 -0.0682
17973TIP3    H175410   4.004   5.521   4.996 -1.3517  0.4929 -0.0485
17973TIP3    H275411   4.027   5.488   4.850  3.4746 -0.4338  0.7597
17974TIP3   OH275412   6.713   4.486   0.062  0.2867  0.3965 -0.2297
17974TIP3    H175413   6.754   4.535   0.134 -2.3552 -0.3885  1.9739
17974TIP3    H275414   6.671   4.553   0.009 -0.3450  0.7938  0.7465
17975TIP3   OH275415   5.564   2.963   6.006 -0.0784 -0.0897 -0.5343
17975TIP3    H175416   5.603   3.041   5.966  0.1494  0.6549  1.0656
17975TIP3    H275417   5.575   2.976   6.100 -1.4431 -1.3322 -0.1630
17976TIP3   OH275418   3.059   3.104  12.912  0.0947 -0.0864  1.0171
17976TIP3    H175419   3.132   3.147  12.867 -1.3076  0.1198 -1.2543
17976TIP3    H275420   3.002   3.175  12.939 -1.3929 -0.2916 -1.2473
17977TIP3   OH275421   5.275   0.986  16.907 -0.6625 -0.8479  0.0771
17977TIP3    H175422   5.253   0.898  16.876  2.0176 -1.5810 -0.0486
17977TIP3    H275423   5.262   0.982  17.002 -2.1546 -0.8179 -0.1049
17978TIP3   OH275424   1.231   0.029  10.982 -0.1963 -0.2016  0.2443
17978TIP3    H175425   1.225  -0.057  11.024 -1.2210 -0.4450 -0.3565
17978TIP3    H275426   1.317   0.029  10.939 -0.3695 -1.1147 -0.1303
17979TIP3   OH275427   4.672   6.779   2.745 -0.1855  0.7087 -0.3909
17979TIP3    H175428   4.580   6.760   2.762  0.3047 -0.6319  1.0807
17979TIP3    H275429   4.699   6.834   2.819  0.6659 -0.6650  0.3762
17980TIP3   OH275430   6.784   0.092   0.162  0.0109 -0.3671 -0.0334
17980TIP3    H175431   6.753   0.152   0.094 -1.0933 -1.4717 -0.5302
17980TIP3    H275432   6.763   0.136   0.245 -2.3702 -0.7781 -0.3607
17981TIP3   OH275433   0.087   3.097   4.754 -0.2826 -0.3299  0.3318
17981TIP3    H175434   0.051   3.148   4.682  1.5792  0.7284  0.0761
17981TIP3    H275435   0.064   3.145   4.833 -0.5908 -0.4019  0.2870
17982TIP3   OH275436   2.756   1.012  12.240 -1.0055 -0.1057 -0.2143
17982TIP3    H175437   2.707   0.933  12.264  0.1240 -1.1360 -1.1517
17982TIP3    H275438   2.754   1.013  12.144 -2.2270  1.8268 -0.2149
17983TIP3   OH275439   1.550   4.826  14.712  0.9693 -0.2934  0.1061
17983TIP3    H175440   1.523   4.873  14.633 -0.5759 -0.0404  0.7439
17983TIP3    H275441   1.499   4.745  14.710  1.0509 -0.3645  0.7491
17984TIP3   OH275442   4.701   4.442   3.835  0.0194  0.0302 -0.2733
17984TIP3    H175443   4.673   4.362   3.791 -0.1809  1.4106 -2.8216
17984TIP3    H275444   4.794   4.427   3.854 -0.2340 -1.1372  0.1788
17985TIP3   OH275445   2.804   4.407   1.814  0.2869  0.1420  0.3412
17985TIP3    H175446   2.899   4.403   1.827  0.2504  1.3275  1.1302
17985TIP3    H275447   2.781   4.498   1.834 -0.8123  0.2816 -1.2889
17986TIP3   OH275448   5.031   6.528  16.373 -0.4448 -0.0707  0.3460
17986TIP3    H175449   5.067   6.608  16.412  1.1213 -0.0093 -1.1150
17986TIP3    H275450   5.107   6.472  16.359 -0.9754 -0.3166 -1.9871
17987TIP3   OH275451   4.624   5.644   1.885 -0.1336 -0.0135  0.6997
17987TIP3    H175452   4.569   5.716   1.854 -2.3604 -1.1858  1.6355
17987TIP3    H275453   4.682   5.684   1.949 -1.6528  0.9479  1.5558
17988TIP3   OH275454   3.770   5.180  12.372  0.2110  0.2729  0.2876
17988TIP3    H175455   3.765   5.257  12.315  0.5189  0.4150  0.4479
17988TIP3    H275456   3.859   5.146  12.358  0.8990  1.2793  1.9188
17989TIP3   OH275457   6.715   2.196   0.588  0.0441  0.4651  0.4799
17989TIP3    H175458   6.620   2.193   0.582  0.1037 -0.5915 -0.0297
17989TIP3    H275459   6.734   2.284   0.621 -1.0811  0.8600  0.1130
17990TIP3   OH275460   1.983   5.749   3.360  0.0126 -0.3033  0.2683
17990TIP3    H175461   1.970   5.830   3.409 -1.3906 -0.8793  0.9209
17990TIP3    H275462   1.960   5.680   3.423  0.3411 -1.1622 -0.5373
17991TIP3   OH275463   5.050   2.119  13.476  0.4503 -0.1748 -0.5434
17991TIP3    H175464   5.013   2.179  13.411  0.9478 -0.6507 -1.2793
17991TIP3    H275465   5.086   2.176  13.544  0.3625  0.3413 -0.9271
17992TIP3   OH275466   1.690   0.344   4.354  0.0740  0.2553 -0.1017
17992TIP3    H175467   1.707   0.322   4.445 -1.2403 -0.8106 -0.0841
17992TIP3    H275468   1.698   0.260   4.307  1.1166  0.8441 -1.0466
17993TIP3   OH275469   6.121   1.142  14.839 -0.1813 -0.4034 -0.0006
17993TIP3    H175470   6.044   1.091  14.864 -0.6799  0.0741 -0.5481
17993TIP3    H275471   6.143   1.112  14.751 -0.2533  0.0640 -0.1788
17994TIP3   OH275472   2.379   6.106  14.092 -0.4621  0.5849  0.0735
17994TIP3    H175473   2.341   6.192  14.113  0.2963  1.1964 -0.9509
17994TIP3    H275474   2.333   6.077  14.014 -1.0779 -0.2023  0.7136
17995TIP3   OH275475   3.061   6.322  11.040  0.1477  0.0747 -0.3717
17995TIP3    H175476   3.138   6.326  11.097  0.8858 -2.5583 -1.0639
17995TIP3    H275477   2.986   6.320  11.100  0.7528  0.2644  0.3978
17996TIP3   OH275478   1.754   0.673  16.011  0.3966 -0.7947  0.1498
17996TIP3    H175479   1.798   0.614  16.072 -0.9907 -1.9349  0.1182
17996TIP3    H275480   1.813   0.679  15.936  1.0753 -1.2315  0.6456
17997TIP3   OH275481   3.257   3.924   3.663  0.0328  0.0244 -0.0480
17997TIP3    H175482   3.312   3.986   3.710  0.0991 -1.8744  2.5985
17997TIP3    H275483   3.167   3.948   3.686 -0.0003 -0.0996 -0.0434
17998TIP3   OH275484   6.598   2.745   5.168  0.3388 -0.3116  0.0921
17998TIP3    H175485   6.559   2.792   5.095  1.3096 -0.0443 -0.2627
17998TIP3    H275486   6.676   2.795   5.191  0.2971 -0.6461  1.0124
17999TIP3   OH275487   5.224   4.579   1.850  0.7624  0.0002 -0.3217
17999TIP3    H175488   5.161   4.514   1.881  0.9760 -0.2077 -0.3142
17999TIP3    H275489   5.244   4.632   1.926 -0.7257  1.1850 -0.7278
18000TIP3   OH275490   1.337   3.217  15.228  0.0226 -0.0796  0.4383
18000TIP3    H175491   1.259   3.171  15.260  0.1293  0.6809  1.8574
18000TIP3    H275492   1.315   3.240  15.138 -0.9268 -0.8998  0.4349
18001TIP3   OH275493   6.176   4.471  15.542 -0.5511  0.2140  0.3164
18001TIP3    H175494   6.124   4.513  15.611 -1.1566  0.5987 -0.3611
18001TIP3    H275495   6.266   4.475  15.574 -1.0423 -1.8841  2.2731
18002TIP3   OH275496   1.106   0.325  11.309  0.4180  0.0211 -0.6720
18002TIP3    H175497   1.021   0.359  11.336  0.9457 -0.0664  1.2337
18002TIP3    H275498   1.098   0.313  11.214 -1.2679  1.1616 -0.7157
18003TIP3   OH275499   0.112   2.993   6.015 -0.4988 -0.1365  0.3362
18003TIP3    H175500   0.149   2.957   5.934  2.0753  0.4843  1.1465
18003TIP3    H275501   0.090   2.916   6.067 -0.5158 -0.5271 -0.2334
18004TIP3   OH275502   1.523   1.660  14.856 -0.0379 -0.6484 -0.4180
18004TIP3    H175503   1.601   1.676  14.910 -1.3533  1.0231  1.1046
18004TIP3    H275504   1.534   1.717  14.780  1.3011 -2.2055 -1.4766
18005TIP3   OH275505   1.491   6.076  11.705  0.0742 -0.2116  0.3949
18005TIP3    H175506   1.483   6.030  11.622 -2.0564  0.8706 -0.0525
18005TIP3    H275507   1.542   6.154  11.684 -1.8914  0.9321 -0.3276
18006TIP3   OH275508   1.146   4.091   5.005 -0.8871  0.1164 -0.2566
18006TIP3    H175509   1.200   4.135   5.070  2.5936 -2.2171 -1.2684
18006TIP3    H275510   1.077   4.049   5.057 -0.2544  1.0937  1.4849
18007TIP3   OH275511   6.500   1.289  16.612  0.7470  0.3836 -0.1324
18007TIP3    H175512   6.588   1.280  16.575  0.4723  0.4656 -0.8160
18007TIP3    H275513   6.482   1.383  16.607  0.2062  0.2428 -0.9762
18008TIP3   OH275514   3.079   6.399  15.922 -0.3756 -1.0713  0.4573
18008TIP3    H175515   2.995   6.354  15.922 -0.1295 -1.5621 -0.8425
18008TIP3    H275516   3.101   6.409  15.829  0.6884 -0.3583  0.7706
18009TIP3   OH275517   4.304   1.824   2.213 -0.6328 -0.3941 -0.7848
18009TIP3    H175518   4.273   1.736   2.237 -0.5457 -0.3577 -0.5342
18009TIP3    H275519   4.225   1.874   2.196 -0.6703 -1.0027 -2.7109
18010TIP3   OH275520   3.422   0.839   3.226  0.1009  0.2130  0.0364
18010TIP3    H175521   3.397   0.829   3.134 -1.2970  0.2027  0.3891
18010TIP3    H275522   3.372   0.915   3.257 -0.7423 -0.7683  1.2006
18011TIP3   OH275523   5.459   5.958   0.193  0.4754  0.1095  0.0661
18011TIP3    H175524   5.511   5.896   0.143  1.3485  0.7818  0.1298
18011TIP3    H275525   5.504   6.042   0.184 -0.4859  0.6685  0.2810
18012TIP3   OH275526   0.683   6.002   0.715 -0.5463  0.6922  0.5136
18012TIP3    H175527   0.725   6.088   0.713  1.2587 -0.1338 -1.9868
18012TIP3    H275528   0.663   5.982   0.624  1.9869 -2.8092  0.5045
18013TIP3   OH275529   4.320   6.295   2.055  0.2022 -0.1907  0.1461
18013TIP3    H175530   4.244   6.253   2.097 -2.1414  4.2585  0.9313
18013TIP3    H275531   4.301   6.288   1.961 -0.1051 -0.8483  0.2446
18014TIP3   OH275532   2.155   1.418  12.949 -0.5443 -0.0676 -0.5947
18014TIP3    H175533   2.081   1.452  12.999 -0.3948 -0.3460 -0.1747
18014TIP3    H275534   2.142   1.323  12.949 -0.7860 -0.0435 -1.4813
18015TIP3   OH275535   4.500   4.302   4.501 -0.3290  0.1102  0.2222
18015TIP3    H175536   4.542   4.253   4.430  1.7066  0.0337  1.4092
18015TIP3    H275537   4.457   4.235   4.554  1.1414 -0.2817  0.9781
18016TIP3   OH275538   0.479   3.994  11.265  0.7575 -0.3072 -0.0220
18016TIP3    H175539   0.438   3.999  11.179  0.7392  0.6757  0.0334
18016TIP3    H275540   0.406   3.979  11.326  0.6806 -0.2081 -0.0912
18017TIP3   OH275541   2.218   2.745   0.294 -0.0503 -0.6310 -0.0909
18017TIP3    H175542   2.276   2.725   0.367 -0.3296 -0.2467  0.2343
18017TIP3    H275543   2.223   2.667   0.238  0.2756 -0.8639  0.2583
18018TIP3   OH275544   4.575   0.998   2.684  0.2799 -0.2767 -0.1426
18018TIP3    H175545   4.555   0.972   2.594  1.8535  2.1182 -1.2755
18018TIP3    H275546   4.512   1.067   2.704  0.1585 -0.5590  0.4618
18019TIP3   OH275547   0.604   5.520  15.432 -0.4073  0.3607  0.3344
18019TIP3    H175548   0.538   5.460  15.396  0.7202 -0.1587 -0.9374
18019TIP3    H275549   0.604   5.595  15.373 -0.1840  0.5676  0.5927
18020TIP3   OH275550   2.315   1.335  11.845 -0.0163  0.2939 -0.8137
18020TIP3    H175551   2.379   1.309  11.911 -2.0103  2.7005  2.2907
18020TIP3    H275552   2.244   1.272  11.854  0.5564 -0.6119 -2.2238
18021TIP3   OH275553   1.615   4.383  13.372  0.4630  0.1097  0.1264
18021TIP3    H175554   1.631   4.371  13.466  1.4826  0.3641 -0.0033
18021TIP3    H275555   1.574   4.470  13.366  0.4391  0.1136  0.3253
18022TIP3   OH275556   2.524   3.797   2.662 -0.5030  0.3978 -0.2358
18022TIP3    H175557   2.468   3.744   2.606 -0.9642  0.4125  0.2019
18022TIP3    H275558   2.464   3.833   2.728  0.0047  0.4954  0.1764
18023TIP3   OH275559   0.489   2.148   4.221  0.5045  0.4763  0.4173
18023TIP3    H175560   0.487   2.052   4.227  0.5698  0.2856 -1.6723
18023TIP3    H275561   0.557   2.175   4.283  1.0112 -0.9027  0.4916
18024TIP3   OH275562   2.056   4.584   0.309 -0.4561  0.0606  0.3789
18024TIP3    H175563   1.972   4.627   0.323 -0.7894 -0.2818 -0.5140
18024TIP3    H275564   2.060   4.570   0.214  0.0158 -1.1083  0.5631
18025TIP3   OH275565   5.405   6.754   2.362  0.4390  0.1417 -0.4099
18025TIP3    H175566   5.476   6.689   2.366 -0.3438 -0.8057 -1.2483
18025TIP3    H275567   5.376   6.764   2.453 -1.6750 -3.3005 -0.5289
18026TIP3   OH275568   1.894   4.734  13.044  0.5937  0.2530 -0.2857
18026TIP3    H175569   1.983   4.715  13.075 -0.0434 -1.1587  0.7934
18026TIP3    H275570   1.898   4.719  12.949  1.4829  0.1568 -0.2446
18027TIP3   OH275571   4.347   4.260   6.802  0.3388 -0.3762 -0.0048
18027TIP3    H175572   4.281   4.273   6.734 -0.3339  2.3376  1.0247
18027TIP3    H275573   4.322   4.321   6.872  1.4883 -2.3708  2.3333
18028TIP3   OH275574   2.411   6.263   0.549  0.0869 -0.5134 -0.1731
18028TIP3    H175575   2.394   6.323   0.476 -0.7098  0.2843  0.6374
18028TIP3    H275576   2.337   6.202   0.547  0.0201 -0.4399  0.0095
18029TIP3   OH275577   0.249   2.935   5.794  0.1435  0.4589  0.2398
18029TIP3    H175578   0.305   2.886   5.854  0.1564 -1.1091 -0.9757
18029TIP3    H275579   0.310   2.974   5.732  0.1074  1.7835  1.0135
18030TIP3   OH275580   2.512   2.401  11.743  0.0712  0.6136  0.1850
18030TIP3    H175581   2.524   2.486  11.701  1.6832  0.3695  0.0942
18030TIP3    H275582   2.544   2.338  11.679 -0.5106 -0.0272  0.5125
18031TIP3   OH275583   1.719   5.559  11.582  0.3838 -0.1298  0.1241
18031TIP3    H175584   1.752   5.495  11.645 -1.9599 -0.1517  1.4173
18031TIP3    H275585   1.641   5.596  11.624 -0.6874  0.5817 -2.3525
18032TIP3   OH275586   4.749   3.303  17.273  0.1295  0.0513 -0.5179
18032TIP3    H175587   4.668   3.354  17.267 -0.1160 -0.3359 -0.4927
18032TIP3    H275588   4.801   3.332  17.199  0.8115  1.7778  0.5746
18033TIP3   OH275589   3.402   5.337  11.350  0.3519  0.3990 -0.0571
18033TIP3    H175590   3.371   5.253  11.315  1.1828  0.5336 -1.1515
18033TIP3    H275591   3.328   5.397  11.337  0.1669  0.1192 -0.3237
18034TIP3   OH275592   0.117   6.121   1.373 -0.5257  0.8649 -0.1963
18034TIP3    H175593   0.026   6.093   1.379 -0.6502  1.5937  2.2781
18034TIP3    H275594   0.114   6.216   1.375  0.2787  0.9217 -0.8063
18035TIP3   OH275595   2.289   5.642  13.218 -0.2803  0.2524 -0.0428
18035TIP3    H175596   2.374   5.598  13.210 -0.4195 -0.0534  0.1643
18035TIP3    H275597   2.225   5.572  13.209 -0.5104  0.4712 -0.1075
18036TIP3   OH275598   2.338   0.927  16.292 -0.4308  0.8159  0.1954
18036TIP3    H175599   2.427   0.946  16.262 -0.2194 -1.8919 -1.1355
18036TIP3    H275600   2.351   0.875  16.372 -0.8425  0.8969  0.3150
18037TIP3   OH275601   0.826   3.374  12.664  0.3378 -0.1614 -0.0339
18037TIP3    H175602   0.881   3.437  12.711  0.5134 -1.5685  1.7514
18037TIP3    H275603   0.740   3.383  12.705  0.0863 -0.3163 -0.5207
18038TIP3   OH275604   4.980   6.327  14.831  0.2134  0.5568  0.4173
18038TIP3    H175605   4.971   6.400  14.892  0.6952  1.4827 -0.5772
18038TIP3    H275606   5.067   6.290  14.849  1.1819  2.0330 -0.9147
18039TIP3   OH275607   1.421   2.407   1.218  0.1911 -0.3036 -0.1183
18039TIP3    H175608   1.366   2.479   1.188  0.3680  0.4036  1.1683
18039TIP3    H275609   1.365   2.330   1.213  0.4071 -0.3680 -2.7877
18040TIP3   OH275610   6.368   2.072  14.795  0.4997 -0.0689 -0.3522
18040TIP3    H175611   6.459   2.096  14.813  0.4349  0.8794 -1.1530
18040TIP3    H275612   6.317   2.124  14.857  0.4801 -0.2838 -0.1866
18041TIP3   OH275613   6.308   2.488   4.033  0.0201  0.4594  0.5196
18041TIP3    H175614   6.314   2.579   4.006  0.6951  0.8319  1.8377
18041TIP3    H275615   6.371   2.442   3.978  0.7075  1.0386  0.8108
18042TIP3   OH275616   2.207   0.378   0.833  0.5083  0.5413  0.1825
18042TIP3    H175617   2.255   0.381   0.750 -2.3617 -0.6045 -1.7159
18042TIP3    H275618   2.188   0.285   0.847 -0.3986  0.8664  1.2771
18043TIP3   OH275619   3.078   6.655  15.196 -0.3331  0.1457  0.3219
18043TIP3    H175620   3.090   6.663  15.101  1.9889 -1.4858  0.4024
18043TIP3    H275621   2.990   6.690  15.212  0.2023  2.9555 -2.0529
18044TIP3   OH275622   2.503   1.906   3.716 -0.1234 -0.8982  0.0106
18044TIP3    H175623   2.464   1.983   3.759  0.8299  0.0201 -0.7195
18044TIP3    H275624   2.429   1.847   3.702 -1.1523  0.4933 -0.6927
18045TIP3   OH275625   1.844   3.279   0.583  0.2323 -0.2226  0.3583
18045TIP3    H175626   1.930   3.261   0.546 -0.0135  2.1882 -1.6197
18045TIP3    H275627   1.783   3.235   0.523 -0.0406  1.7139 -0.9026
18046TIP3   OH275628   6.403   2.081   1.805 -0.0442  0.5346 -0.7984
18046TIP3    H175629   6.417   2.034   1.723  2.5890 -0.8350  0.3207
18046TIP3    H275630   6.473   2.050   1.863 -1.6980  1.5667  1.9365
18047TIP3   OH275631   3.151   2.800   4.941 -0.6418 -0.2645  0.5101
18047TIP3    H175632   3.092   2.816   4.867  0.1012 -2.8996 -0.7746
18047TIP3    H275633   3.097   2.814   5.018 -1.7621  1.4634 -0.5226
18048TIP3   OH275634   6.699   5.840   3.285  0.2093 -0.1643 -0.2199
18048TIP3    H175635   6.744   5.920   3.257 -0.7794  0.3573 -0.3997
18048TIP3    H275636   6.711   5.838   3.380  1.6907 -0.7387 -0.4014
18049TIP3   OH275637   2.568   0.028  13.748  0.2998 -0.2441 -0.6045
18049TIP3    H175638   2.555   0.015  13.842  0.1368 -1.6583 -0.8097
18049TIP3    H275639   2.626   0.104  13.743 -0.2755  0.3220  0.6053
18050TIP3   OH275640   0.882   6.180  16.798 -0.5310 -0.1206 -0.0751
18050TIP3    H175641   0.805   6.141  16.838  0.5908 -0.8798  1.4670
18050TIP3    H275642   0.882   6.149  16.708 -2.0063 -0.0874 -0.1015
18051TIP3   OH275643   0.519   5.162  15.769 -0.2618 -0.1215 -0.1372
18051TIP3    H175644   0.446   5.104  15.791 -0.3791  0.8105  2.3258
18051TIP3    H275645   0.488   5.249  15.793  1.8501  0.1989  1.8188
18052TIP3   OH275646   3.228   5.623  15.000 -0.2315 -0.4183 -0.3501
18052TIP3    H175647   3.209   5.544  14.950 -0.6891 -2.7503  3.0927
18052TIP3    H275648   3.310   5.656  14.963 -0.1747 -2.3459 -2.1140
18053TIP3   OH275649   1.285   3.726  15.220 -0.9067  0.0959 -0.4118
18053TIP3    H175650   1.232   3.648  15.235 -0.5521 -0.2028 -0.6923
18053TIP3    H275651   1.366   3.693  15.181 -1.1082  0.6768 -1.3756
18054TIP3   OH275652   4.847   5.161   1.656 -0.0619 -0.1926 -0.6796
18054TIP3    H175653   4.874   5.246   1.621 -1.2874 -0.1368 -1.5657
18054TIP3    H275654   4.909   5.142   1.726 -0.7220  2.2111  0.6692
18055TIP3   OH275655   0.269   3.260  12.617 -0.0350  0.5942 -0.1172
18055TIP3    H175656   0.332   3.196  12.585  0.3547  1.1871 -0.5771
18055TIP3    H275657   0.297   3.343  12.577 -2.3434  0.5248 -2.1145
18056TIP3   OH275658   4.369   1.540   2.191 -0.3030 -0.1899  0.2634
18056TIP3    H175659   4.296   1.513   2.247  0.3979  0.3802  1.5052
18056TIP3    H275660   4.424   1.461   2.185  0.2234  0.0653  1.4077
18057TIP3   OH275661   4.619   4.781  12.934  0.0679  0.3175  0.5555
18057TIP3    H175662   4.567   4.779  12.853  1.2386  0.1489 -0.2228
18057TIP3    H275663   4.668   4.699  12.932  0.8264  0.7531  0.9523
18058TIP3   OH275664   6.615   4.634   5.786 -0.5260  0.5685 -0.2635
18058TIP3    H175665   6.613   4.677   5.872 -2.3380  0.1597 -0.0727
18058TIP3    H275666   6.679   4.563   5.797  0.1354  1.2343  0.3645
18059TIP3   OH275667   2.593   1.874   2.256 -0.2852 -0.3521  0.0275
18059TIP3    H175668   2.550   1.886   2.171 -0.3576  0.8166  0.2169
18059TIP3    H275669   2.550   1.938   2.314 -0.5762 -1.4593  1.0762
18060TIP3   OH275670   5.564   5.900   4.178 -0.2786  0.0901 -0.1257
18060TIP3    H175671   5.610   5.953   4.114 -0.8470 -0.1281 -0.7234
18060TIP3    H275672   5.471   5.907   4.154 -0.8619  2.1880  2.2780
18061TIP3   OH275673   5.501   0.458   3.347 -0.5714  0.0450 -0.4454
18061TIP3    H175674   5.558   0.524   3.309 -0.3560  0.6338  0.8478
18061TIP3    H275675   5.496   0.389   3.281 -0.8975  1.3887 -1.8864
18062TIP3   OH275676   4.736   6.297  13.201  0.5863  0.5084 -0.5616
18062TIP3    H175677   4.775   6.354  13.268  1.1235  1.1832 -1.4254
18062TIP3    H275678   4.771   6.210  13.219 -1.4682  0.0289  1.7743
18063TIP3   OH275679   5.354   5.839  14.073 -0.0896  0.3000  0.5970
18063TIP3    H175680   5.286   5.772  14.067  0.3876 -0.1006 -0.7600
18063TIP3    H275681   5.316   5.916  14.031  0.8829 -0.4851 -1.9447
18064TIP3   OH275682   2.323   6.745  11.165  0.0871 -0.1705 -0.3665
18064TIP3    H175683   2.382   6.697  11.223  0.8720 -0.2393 -1.2009
18064TIP3    H275684   2.362   6.833  11.159 -0.8593  0.3259  0.4561
18065TIP3   OH275685   5.442   6.107   0.600 -0.3692  0.0551 -0.1259
18065TIP3    H175686   5.395   6.027   0.576 -0.5825  0.3357 -0.6667
18065TIP3    H275687   5.433   6.112   0.695 -1.3013  0.0202 -0.2035
18066TIP3   OH275688   4.735   1.662   5.630  0.0204  0.2417  0.3542
18066TIP3    H175689   4.805   1.667   5.695  0.5155  1.5479 -0.2364
18066TIP3    H275690   4.697   1.749   5.628 -2.6252 -0.7761  1.6683
18067TIP3   OH275691   0.470   4.438  12.049 -0.1628 -0.3594 -0.1502
18067TIP3    H175692   0.508   4.525  12.040  0.8335 -0.5434  1.6765
18067TIP3    H275693   0.512   4.386  11.981 -0.1939  0.3881 -0.7564
18068TIP3   OH275694   1.014   4.781   0.465 -0.1080  0.0785  0.9423
18068TIP3    H175695   1.091   4.804   0.518 -0.3261  1.1576  0.8065
18068TIP3    H275696   0.967   4.864   0.453 -0.1042 -0.1411 -0.8690
18069TIP3   OH275697   0.725   4.900   4.376  0.1778  0.5306  0.2255
18069TIP3    H175698   0.802   4.956   4.365  2.1468 -1.9774  0.2171
18069TIP3    H275699   0.762   4.813   4.392 -2.7035 -0.7895  0.1842
18070TIP3   OH275700   3.258   0.643  12.279 -0.7684 -0.1093 -0.2365
18070TIP3    H175701   3.268   0.735  12.304 -0.8483 -0.3645  0.7867
18070TIP3    H275702   3.335   0.600  12.317 -2.3736 -1.0188  2.2132
18071TIP3   OH275703   6.320   3.293   2.115 -0.1260  0.3023 -0.5022
18071TIP3    H175704   6.370   3.366   2.078  1.2345 -0.0680  0.5395
18071TIP3    H275705   6.369   3.215   2.090  0.4766  0.0006  1.4341
18072TIP3   OH275706   0.474   1.555   3.890  0.0918  0.3334  0.2798
18072TIP3    H175707   0.539   1.558   3.960 -0.0118  1.1669  0.3408
18072TIP3    H275708   0.455   1.646   3.869  0.8163  0.1228 -1.5016
18073TIP3   OH275709   3.110   0.307  16.136 -0.3082 -0.2678  0.3870
18073TIP3    H175710   3.161   0.387  16.145 -0.6808 -0.0892  0.9898
18073TIP3    H275711   3.149   0.261  16.062  0.4193  0.0926  0.5450
18074TIP3   OH275712   5.770   1.273   5.718  0.0950 -0.2600  0.4931
18074TIP3    H175713   5.774   1.369   5.722  0.0142 -0.2568  0.5085
18074TIP3    H275714   5.754   1.247   5.809 -0.7221 -0.2450  0.3598
18075TIP3   OH275715   3.819   4.867  15.023  0.1540 -0.2861  0.2899
18075TIP3    H175716   3.845   4.949  14.982 -0.7816 -0.4826 -0.7443
18075TIP3    H275717   3.724   4.862  15.009  0.1025 -1.2507  0.8754
18076TIP3   OH275718   2.051   2.167   4.040  0.4731 -0.2873  0.4065
18076TIP3    H175719   2.056   2.073   4.057 -0.5535 -0.7978 -1.7712
18076TIP3    H275720   2.013   2.204   4.120  0.6435 -1.7530  1.1862
18077TIP3   OH275721   3.987   0.599   0.250 -0.6453 -0.1046 -0.1686
18077TIP3    H175722   4.076   0.593   0.285 -0.2809  0.6469 -0.9192
18077TIP3    H275723   3.991   0.673   0.188 -1.7697 -0.1107 -0.2658
18078TIP3   OH275724   4.226   6.118  13.159  0.0880  0.1665  0.3409
18078TIP3    H175725   4.174   6.193  13.130  0.3605  0.0629 -0.4376
18078TIP3    H275726   4.302   6.118  13.101 -0.5152 -1.4263 -0.5055
18079TIP3   OH275727   0.613   3.866  15.654  0.1865 -0.4798  0.9614
18079TIP3    H175728   0.622   3.893  15.563  0.8094  0.6652  1.3505
18079TIP3    H275729   0.540   3.804  15.654  0.3278 -0.6673 -0.3432
18080TIP3   OH275730   3.123   1.516   2.075  0.6208  0.2530  0.5057
18080TIP3    H175731   3.041   1.473   2.099  0.4960 -0.8546 -1.6063
18080TIP3    H275732   3.101   1.609   2.071 -0.0657  0.1521  1.6761
18081TIP3   OH275733   1.953   4.223   3.651  0.2080 -0.0445  0.0241
18081TIP3    H175734   1.944   4.167   3.728  1.8462  0.3891  0.5795
18081TIP3    H275735   1.905   4.303   3.675  2.2971  0.8657  1.4532
18082TIP3   OH275736   4.156   6.390   2.842  0.0505 -0.2411  0.2524
18082TIP3    H175737   4.070   6.362   2.814 -0.7473  1.8832  0.3935
18082TIP3    H275738   4.201   6.418   2.762  0.0037  0.1605  0.3630
18083TIP3   OH275739   1.138   6.474  16.067 -0.6776 -0.2463 -0.5039
18083TIP3    H175740   1.162   6.536  16.136 -0.5753  0.2906 -1.0185
18083TIP3    H275741   1.149   6.388  16.108 -0.6249  0.0645  0.1520
18084TIP3   OH275742   1.239   2.876  10.650  0.1332 -0.1756 -0.0234
18084TIP3    H175743   1.152   2.899  10.617  0.2797 -0.8027 -0.8987
18084TIP3    H275744   1.234   2.782  10.669  0.7788 -0.3487 -0.6512
18085TIP3   OH275745   5.933   2.692   5.308 -0.2478  0.2935  0.3752
18085TIP3    H175746   6.026   2.699   5.326 -0.6748  1.3524  2.5197
18085TIP3    H275747   5.923   2.722   5.218  1.2544  2.4574  0.8551
18086TIP3   OH275748   2.299   1.207  16.949  0.0320  0.5657  0.0486
18086TIP3    H175749   2.295   1.144  16.877 -0.3632  0.1276  0.4515
18086TIP3    H275750   2.309   1.153  17.028 -0.7534  0.9821  0.4378
18087TIP3   OH275751   2.214   3.394  11.241  0.2668  0.0817  0.3877
18087TIP3    H175752   2.235   3.422  11.152 -0.1964  2.1541  0.8804
18087TIP3    H275753   2.119   3.392  11.244  0.2638  0.4984  0.9455
18088TIP3   OH275754   3.275   1.771  14.735  0.3464  0.4397  0.1186
18088TIP3    H175755   3.321   1.731  14.661  2.7771 -1.0685  2.2333
18088TIP3    H275756   3.290   1.710  14.808 -2.3786  1.5474  1.7738
18089TIP3   OH275757   3.673   2.583  16.761  0.1764  0.0532  0.0733
18089TIP3    H175758   3.594   2.598  16.814 -0.8498 -0.6690 -1.1910
18089TIP3    H275759   3.714   2.506  16.799 -0.1043  0.0298  0.3311
18090TIP3   OH275760   2.252   0.202  13.819  0.3314 -0.0720  0.6892
18090TIP3    H175761   2.285   0.160  13.740  0.4880  0.3650  0.5200
18090TIP3    H275762   2.197   0.136  13.861 -0.0896 -0.1590  0.0003
18091TIP3   OH275763   0.060   2.817  16.328 -0.1928  0.4138 -0.1575
18091TIP3    H175764   0.109   2.856  16.400 -1.1742  2.0196 -0.3107
18091TIP3    H275765   0.122   2.818  16.254  0.5538 -0.5244  0.4317
18092TIP3   OH275766   4.433   6.121  14.289 -0.0500 -0.1267  0.5229
18092TIP3    H175767   4.499   6.146  14.224 -0.9313 -1.8821 -1.1403
18092TIP3    H275768   4.449   6.179  14.363  2.8199  0.0787 -0.1478
18093TIP3   OH275769   5.339   2.710   1.394  0.2156 -0.1157  0.6100
18093TIP3    H175770   5.415   2.764   1.373  1.0719 -1.1362  0.9766
18093TIP3    H275771   5.268   2.773   1.407  0.1347  0.7221 -3.0061
18094TIP3   OH275772   5.377   2.213   3.615  0.3122  0.4827  0.2096
18094TIP3    H175773   5.411   2.215   3.526 -2.2104  1.7404 -0.8406
18094TIP3    H275774   5.428   2.279   3.662  0.8322  0.7034 -0.6437
18095TIP3   OH275775   2.903   6.147   4.203 -0.0279 -0.1002  0.9733
18095TIP3    H175776   2.984   6.117   4.243  0.9686  1.0236 -0.1285
18095TIP3    H275777   2.852   6.184   4.275  0.5999 -0.4625  1.6064
18096TIP3   OH275778   0.590   0.980   3.529  0.0774 -0.1796 -0.0718
18096TIP3    H175779   0.624   0.994   3.617 -2.3202  1.5535  0.6777
18096TIP3    H275780   0.619   0.891   3.506  0.5023 -0.8033  2.5690
18097TIP3   OH275781   6.304   3.226   3.387 -0.2176  0.2411  0.3647
18097TIP3    H175782   6.313   3.135   3.358 -1.1855  0.0596  0.5867
18097TIP3    H275783   6.393   3.253   3.409  0.0096 -0.8660  0.8906
18098TIP3   OH275784   0.523   0.687  12.276  0.0241  0.0353  0.8305
18098TIP3    H175785   0.589   0.727  12.219  1.1788 -1.8026  0.7901
18098TIP3    H275786   0.570   0.616  12.321 -1.8986 -1.3356  0.8164
18099TIP3   OH275787   6.089   5.248  12.226 -0.3937 -0.8750 -0.0529
18099TIP3    H175788   6.028   5.176  12.211 -0.8484 -0.6050  0.4375
18099TIP3    H275789   6.151   5.214  12.290 -1.1244 -0.5664  0.8527
18100TIP3   OH275790   6.188   0.525  12.655 -0.2498  0.3018  0.2183
18100TIP3    H175791   6.251   0.570  12.599  0.0291 -1.1625 -0.7055
18100TIP3    H275792   6.240   0.458  12.700 -0.3881  1.6650  2.5903
18101TIP3   OH275793   1.978   2.535   0.056 -0.2732  0.0846  0.1895
18101TIP3    H175794   1.914   2.511   0.123  0.2929 -2.2553 -0.0412
18101TIP3    H275795   1.938   2.509  -0.027  0.3472  0.0482 -0.1045
18102TIP3   OH275796   1.178   0.015  12.541  0.1554  0.3574 -0.0090
18102TIP3    H175797   1.188  -0.079  12.524 -0.2231 -0.0706  1.9654
18102TIP3    H275798   1.263   0.041  12.578  0.1926  0.7597 -0.3752
18103TIP3   OH275799   0.465   1.832  15.055  0.1720  0.2407 -0.0117
18103TIP3    H175800   0.398   1.838  14.987  1.4364  2.6490 -1.1867
18103TIP3    H275801   0.534   1.778  15.017  1.2439  2.2483 -1.1116
18104TIP3   OH275802   5.070   4.986  14.159  0.4635 -0.1380 -0.1592
18104TIP3    H175803   5.141   5.047  14.139  1.7499 -1.0533  1.3281
18104TIP3    H275804   5.111   4.900  14.159 -0.9696 -0.8595 -0.6196
18105TIP3   OH275805   6.728   6.807  13.233  0.2878  0.6423 -0.3842
18105TIP3    H175806   6.710   6.867  13.306  0.2630 -0.7155  0.7916
18105TIP3    H275807   6.643   6.797  13.189  0.2433  1.2799 -0.4444
18106TIP3   OH275808   6.395   3.193   2.998 -0.3494 -0.0124  0.0373
18106TIP3    H175809   6.412   3.123   2.935 -1.9372 -1.9666  1.6303
18106TIP3    H275810   6.320   3.161   3.048  0.2564  1.8740  2.2901
18107TIP3   OH275811   1.282   4.524   1.530 -0.6856  0.3257 -0.8143
18107TIP3    H175812   1.250   4.559   1.446 -3.5174 -1.5443 -0.6616
18107TIP3    H275813   1.242   4.580   1.596 -0.2380  0.4814 -0.6740
18108TIP3   OH275814   0.853   6.246  10.740 -0.3683 -0.2072  0.0111
18108TIP3    H175815   0.823   6.316  10.682  1.4754  1.4767  0.9527
18108TIP3    H275816   0.944   6.231  10.714  0.1231 -0.2550  1.6317
18109TIP3   OH275817   1.736   1.003  16.668 -0.0597 -0.6550  0.1014
18109TIP3    H175818   1.826   1.020  16.694  0.2875 -1.4407 -0.5518
18109TIP3    H275819   1.727   0.908  16.673 -0.9988 -0.5570  0.6252
18110TIP3   OH275820   1.390   0.747   1.683  0.0204 -0.9115  0.4625
18110TIP3    H175821   1.453   0.819   1.689 -0.1727 -0.7592  0.6357
18110TIP3    H275822   1.342   0.749   1.766  0.8374 -1.9942  0.9928
18111TIP3   OH275823   4.133   0.236  15.195  0.2032 -0.1866  0.0796
18111TIP3    H175824   4.148   0.160  15.140  1.2053  0.6949 -0.8971
18111TIP3    H275825   4.180   0.217  15.276 -0.8305 -1.2477  0.4678
18112TIP3   OH275826   0.526   6.282   5.622 -0.5682 -0.1827  0.3738
18112TIP3    H175827   0.612   6.311   5.655 -0.3448 -0.6370  0.1986
18112TIP3    H275828   0.524   6.188   5.640 -0.3508 -0.4948 -1.1056
18113TIP3   OH275829   1.386   2.602   3.996 -0.1768  0.2085 -0.0780
18113TIP3    H175830   1.359   2.569   4.082  1.2466  1.1874  0.7880
18113TIP3    H275831   1.407   2.694   4.011  1.5318  0.0377 -1.1258
18114TIP3   OH275832   0.796   6.425   1.478 -0.1175  0.6211 -0.4742
18114TIP3    H175833   0.787   6.480   1.556 -0.2709  1.1449 -0.8612
18114TIP3    H275834   0.754   6.342   1.503 -1.1098  1.1431 -0.3529
18115TIP3   OH275835   0.828   2.088   3.076 -0.0768  0.1023  0.1211
18115TIP3    H175836   0.801   2.021   3.139 -0.8967  0.3234  0.0237
18115TIP3    H275837   0.921   2.072   3.061 -0.5326 -1.8213 -0.8743
18116TIP3   OH275838   3.621   2.528   2.648  0.3151 -0.5855  0.0814
18116TIP3    H175839   3.547   2.584   2.671  0.3092 -0.3632 -0.4542
18116TIP3    H275840   3.697   2.569   2.690  0.4557  0.3399 -1.0167
18117TIP3   OH275841   1.578   4.059   2.635 -0.2137 -0.1899  0.3744
18117TIP3    H175842   1.623   4.084   2.554  1.8821 -2.1918  0.8177
18117TIP3    H275843   1.606   3.969   2.651 -0.7000  0.0884  3.2594
18118TIP3   OH275844   3.525   5.806  16.339  0.1676 -0.4498 -0.0123
18118TIP3    H175845   3.488   5.816  16.251 -1.3728 -2.2032  0.3837
18118TIP3    H275846   3.589   5.877  16.346  1.3312 -1.0432 -3.0382
18119TIP3   OH275847   6.776   3.342  12.863  0.2040 -0.4499 -0.3982
18119TIP3    H175848   6.871   3.337  12.859  0.3339  0.4768  0.7934
18119TIP3    H275849   6.752   3.403  12.794  0.7481  1.3717  0.9341
18120TIP3   OH275850   2.232   1.377  14.307 -0.3857 -0.2139 -0.5019
18120TIP3    H175851   2.182   1.298  14.288 -0.2561 -0.8117  1.4008
18120TIP3    H275852   2.308   1.373  14.249 -0.6904 -1.1791 -0.8412
18121TIP3   OH275853   6.438   4.262   2.406 -0.1451  0.0696 -0.8555
18121TIP3    H175854   6.370   4.258   2.473  0.7907 -0.7545  0.0792
18121TIP3    H275855   6.440   4.174   2.369 -2.4746  1.1110 -3.9301
18122TIP3   OH275856   2.305   0.911   2.714  0.8887  0.8562 -0.2468
18122TIP3    H175857   2.231   0.897   2.774  2.0015  1.7734  1.4271
18122TIP3    H275858   2.291   0.999   2.679  0.7201  0.6810 -0.6168
18123TIP3   OH275859   1.570   4.654   4.133 -0.3256  0.5698  0.3636
18123TIP3    H175860   1.606   4.735   4.094  0.1003  0.2563  0.0908
18123TIP3    H275861   1.503   4.685   4.194  0.5788  1.1897  1.0697
18124TIP3   OH275862   1.092   1.134  12.978  0.4738  0.1987  0.3049
18124TIP3    H175863   1.051   1.061  12.932  0.7755  1.7500 -2.7031
18124TIP3    H275864   1.108   1.101  13.066 -3.1848 -1.9211  0.3762
18125TIP3   OH275865   3.901   1.522  15.956  0.3233  0.2517  0.0326
18125TIP3    H175866   3.939   1.551  15.873  1.3203 -0.1600  0.3368
18125TIP3    H275867   3.927   1.590  16.018  0.0848  0.2512  0.1322
18126TIP3   OH275868   4.108   2.768   0.840  0.0257  0.3724 -0.2961
18126TIP3    H175869   4.013   2.771   0.849 -0.0280  0.5421 -0.8388
18126TIP3    H275870   4.137   2.705   0.905 -0.6171 -0.9485 -1.2423
18127TIP3   OH275871   2.620   6.007  16.777  0.4363  0.8251  0.0199
18127TIP3    H175872   2.591   5.998  16.686  0.3721  2.0857 -0.0977
18127TIP3    H275873   2.715   5.997  16.773  0.4562  1.1246 -0.2116
18128TIP3   OH275874   5.290   0.987  17.168 -0.1076  0.1016  0.2400
18128TIP3    H175875   5.281   1.082  17.158 -0.0086  0.2652  1.4911
18128TIP3    H275876   5.310   0.975  17.261 -0.0191 -1.1436  0.0752
18129TIP3   OH275877   6.184   2.428  10.883  0.2132 -0.8568  0.6059
18129TIP3    H175878   6.092   2.406  10.897 -0.4576  1.4376  0.1658
18129TIP3    H275879   6.187   2.463  10.794  1.5336 -0.9379  0.6008
18130TIP3   OH275880   4.139   4.094   1.498  0.0521  0.0578  0.4484
18130TIP3    H175881   4.046   4.070   1.503  0.5048 -1.4543  2.4781
18130TIP3    H275882   4.160   4.085   1.405 -1.3935 -1.3736  0.2041
18131TIP3   OH275883   6.385   1.197  14.340 -0.8273  0.2143  0.2412
18131TIP3    H175884   6.335   1.228  14.416  0.5401 -0.6265  1.5465
18131TIP3    H275885   6.432   1.274  14.310  0.0153  0.1973  1.4161
18132TIP3   OH275886   0.096   1.918  13.603 -0.9712  0.3314  0.4510
18132TIP3    H175887   0.109   1.870  13.685 -1.0602  0.0856  0.3216
18132TIP3    H275888   0.138   2.003  13.619  0.5395 -0.3292  0.1600
18133TIP3   OH275889   3.853   6.589   3.249  0.3743 -0.3629  0.2114
18133TIP3    H175890   3.810   6.596   3.335  0.4499  0.2055  0.2107
18133TIP3    H275891   3.943   6.616   3.265  0.3405 -0.0664 -0.0800
18134TIP3   OH275892   3.450   2.311   0.769  0.3571  0.3611 -0.6201
18134TIP3    H175893   3.363   2.336   0.737  0.0725 -0.6075 -0.6313
18134TIP3    H275894   3.467   2.371   0.842 -1.3139 -0.8927  0.8868
18135TIP3   OH275895   5.332   4.580  14.626 -0.1876 -0.1215  0.3605
18135TIP3    H175896   5.265   4.543  14.684  0.5304 -0.7020  0.8306
18135TIP3    H275897   5.397   4.511  14.616  1.6810  1.2771  2.0106
18136TIP3   OH275898   1.500   3.692  16.335  0.9933 -0.3603 -0.0946
18136TIP3    H175899   1.526   3.691  16.243 -0.3365  0.2857 -0.5085
18136TIP3    H275900   1.536   3.612  16.371  0.1350 -1.4855 -1.5971
18137TIP3   OH275901   0.970   3.247   5.447  0.0722  0.1265  0.0802
18137TIP3    H175902   0.936   3.261   5.535 -1.7457 -1.2082 -0.3668
18137TIP3    H275903   1.028   3.171   5.456  0.2493  0.2755  0.2043
18138TIP3   OH275904   2.988   3.215  13.260 -0.7202 -0.0423  0.6934
18138TIP3    H175905   2.957   3.259  13.339 -1.3171 -1.2147  1.1545
18138TIP3    H275906   3.030   3.135  13.292 -1.1534 -0.6367 -0.1749
18139TIP3   OH275907   5.764   3.720  11.548  0.0179  1.0040  0.4504
18139TIP3    H175908   5.841   3.759  11.590 -0.2127  1.9964 -0.0245
18139TIP3    H275909   5.691   3.777  11.573 -0.5004  0.2989  0.5671
18140TIP3   OH275910   2.233   1.978  13.486 -0.6787 -0.4532 -0.4674
18140TIP3    H175911   2.319   2.020  13.480 -1.8388  2.3769  0.8991
18140TIP3    H275912   2.251   1.893  13.527  1.3108  0.9114  1.7619
18141TIP3   OH275913   3.028   2.312   5.519 -0.0939 -0.1205  0.1994
18141TIP3    H175914   3.120   2.334   5.524 -0.1619 -0.1643  2.2024
18141TIP3    H275915   2.982   2.396   5.523 -0.1722 -0.1903  0.8608
18142TIP3   OH275916   3.602   4.200   3.170  0.1812  0.0245 -1.0043
18142TIP3    H175917   3.604   4.216   3.265  0.1296 -0.0044 -0.9986
18142TIP3    H275918   3.555   4.118   3.160  1.0774 -0.5039 -0.9863
18143TIP3   OH275919   2.841   2.200   4.414  0.3401  0.6015 -0.2698
18143TIP3    H175920   2.899   2.171   4.344  0.0517 -0.3448 -0.1368
18143TIP3    H275921   2.892   2.264   4.463  1.1024  0.1374 -0.4474
18144TIP3   OH275922   3.883   5.711   0.839  0.2584  0.2951  0.2041
18144TIP3    H175923   3.951   5.650   0.814  1.7391  2.1682 -0.5808
18144TIP3    H275924   3.845   5.741   0.756  0.1855  1.0918  0.5108
18145TIP3   OH275925   4.840   6.221  16.296  0.1520 -0.2802 -0.7703
18145TIP3    H175926   4.909   6.245  16.233  2.7601 -1.8435  1.2517
18145TIP3    H275927   4.834   6.296  16.355  1.7699 -0.9268  0.2878
18146TIP3   OH275928   1.049   2.423  11.220 -0.1841 -0.3422  0.3563
18146TIP3    H175929   0.966   2.376  11.218 -0.5699  0.3352 -0.7828
18146TIP3    H275930   1.111   2.363  11.179 -0.8867  0.4342 -2.0366
18147TIP3   OH275931   1.514   3.173   2.373 -0.1176  0.6773  0.1479
18147TIP3    H175932   1.528   3.129   2.457 -1.3305  0.4212  0.2291
18147TIP3    H275933   1.595   3.158   2.324 -0.0762 -0.7055  0.5983
18148TIP3   OH275934   5.986   5.382   5.726 -0.1307 -0.0901 -0.4236
18148TIP3    H175935   5.892   5.398   5.714 -0.3192  0.2293  1.2432
18148TIP3    H275936   6.013   5.339   5.645 -1.7727 -0.4423 -0.8309
18149TIP3   OH275937   6.717   6.358   1.882  0.4568 -0.5026 -0.1841
18149TIP3    H175938   6.809   6.332   1.884  0.9464  0.8148 -2.1718
18149TIP3    H275939   6.685   6.327   1.797 -0.7004 -0.2547  0.1450
18150TIP3   OH275940   3.274   1.570   3.505 -0.8851  0.4703 -0.4872
18150TIP3    H175941   3.200   1.585   3.446 -2.0730 -3.4061 -0.2716
18150TIP3    H275942   3.350   1.602   3.457 -2.4794  4.1077 -0.9579
18151TIP3   OH275943   4.193   4.320   6.549 -0.1617  0.1684 -0.1190
18151TIP3    H175944   4.239   4.336   6.467  2.1072 -1.1977  0.7981
18151TIP3    H275945   4.154   4.233   6.538 -1.5481  0.8138 -0.4448
18152TIP3   OH275946   3.126   1.459  13.757 -0.1302  0.0470 -0.6691
18152TIP3    H175947   3.120   1.371  13.721 -0.2737 -0.7055  1.0727
18152TIP3    H275948   3.048   1.504  13.725  0.4980 -0.0543 -2.4764
18153TIP3   OH275949   3.730   6.358  12.513 -0.1502  0.7089 -0.2648
18153TIP3    H175950   3.669   6.286  12.495  0.6160  0.0176 -0.1531
18153TIP3    H275951   3.675   6.427  12.551 -0.7327 -0.2513  0.7007
18154TIP3   OH275952   5.690   3.249   2.561  0.5765 -0.0372 -0.3630
18154TIP3    H175953   5.743   3.196   2.500 -1.3101  0.3885 -2.5189
18154TIP3    H275954   5.612   3.196   2.577  1.3116 -0.4347  2.3568
18155TIP3   OH275955   4.180   2.436   6.162  0.0950  0.2727  0.3520
18155TIP3    H175956   4.195   2.501   6.231  1.0455  1.0014 -0.5119
18155TIP3    H275957   4.101   2.390   6.190  0.6721  0.2825  2.1143
18156TIP3   OH275958   1.156   1.792  14.030  0.1062  0.1030 -0.3834
18156TIP3    H175959   1.082   1.754  14.076  0.3978 -0.1894 -0.1488
18156TIP3    H275960   1.144   1.887  14.039 -0.3814  0.0631 -0.5859
18157TIP3   OH275961   0.775   1.568   5.202 -0.6257 -0.6418  0.5070
18157TIP3    H175962   0.695   1.619   5.198 -0.1758  0.2163  1.7529
18157TIP3    H275963   0.796   1.548   5.110 -1.7949 -0.1548  0.1216
18158TIP3   OH275964   4.510   5.165  15.468  0.0414 -0.1833 -0.0687
18158TIP3    H175965   4.457   5.226  15.416  0.8823  1.6512  1.1229
18158TIP3    H275966   4.571   5.126  15.406 -0.2459  0.5080 -0.7928
18159TIP3   OH275967   0.315   5.167   4.720  0.5649 -0.2718  0.0671
18159TIP3    H175968   0.305   5.234   4.653  0.4817 -0.5561 -0.2131
18159TIP3    H275969   0.403   5.179   4.755  0.3097  0.4122  0.4987
18160TIP3   OH275970   1.038   6.545   6.237  0.0177 -0.1989 -0.5766
18160TIP3    H175971   1.068   6.454   6.246  0.0335 -0.3388 -1.9260
18160TIP3    H275972   1.087   6.592   6.304  0.7240 -1.0184 -0.4913
18161TIP3   OH275973   4.388   0.968  16.538 -0.4475  0.8379  0.0764
18161TIP3    H175974   4.328   1.025  16.587 -0.1582  0.3484  1.0128
18161TIP3    H275975   4.431   0.916  16.605  0.1653  0.3511 -0.6919
18162TIP3   OH275976   6.257   0.103  14.767  0.3228 -0.5913 -0.2682
18162TIP3    H175977   6.183   0.157  14.739  0.2324  0.9910  2.5836
18162TIP3    H275978   6.334   0.157  14.750  0.8394 -1.8558 -2.3548
18163TIP3   OH275979   3.635   5.710  13.735 -0.2239 -0.7923  0.2503
18163TIP3    H175980   3.666   5.657  13.809 -2.5336  0.6667  2.4491
18163TIP3    H275981   3.563   5.659  13.697  1.3503 -1.8221 -1.4951
18164TIP3   OH275982   4.596   0.040   2.434  0.4965  0.0197 -0.1057
18164TIP3    H175983   4.550   0.005   2.511  1.6636 -0.3245  0.4491
18164TIP3    H275984   4.536   0.107   2.399 -0.6328 -0.7448  0.3105
18165TIP3   OH275985   1.160   5.511  14.419  0.1661 -0.3832 -0.4965
18165TIP3    H175986   1.173   5.478  14.330  0.7787  3.2880 -1.9224
18165TIP3    H275987   1.181   5.604  14.414 -0.8695  0.2271  3.2855
18166TIP3   OH275988   6.797   1.796  14.300  0.1045  0.5052 -0.2374
18166TIP3    H175989   6.754   1.862  14.246 -0.1119 -0.2413 -1.0066
18166TIP3    H275990   6.847   1.846  14.365 -0.5632  1.4065 -0.3962
18167TIP3   OH275991   3.626   2.395  15.646  0.3168  0.3273  0.0463
18167TIP3    H175992   3.663   2.482  15.659 -0.4087  0.6791 -0.1482
18167TIP3    H275993   3.596   2.368  15.733 -0.8362  0.9390 -0.1319
18168TIP3   OH275994   5.493   2.519  14.923 -0.0351  0.0774  0.4954
18168TIP3    H175995   5.524   2.453  14.861 -1.2753  0.4871 -0.6013
18168TIP3    H275996   5.547   2.506  15.001 -0.6921 -2.6683  0.5636
18169TIP3   OH275997   5.952   4.600  11.044  0.1753  0.4670  0.1710
18169TIP3    H175998   5.915   4.662  10.982  1.1318  0.4744 -0.4159
18169TIP3    H275999   5.877   4.547  11.073 -0.4417  1.1090 -0.2236
18170TIP3   OH276000   5.805   0.512   1.868  0.1159  0.1368  0.3304
18170TIP3    H176001   5.759   0.555   1.796 -0.3891 -1.0642 -0.1028
18170TIP3    H276002   5.742   0.510   1.940 -0.1401 -0.5192  0.1006
18171TIP3   OH276003   1.100   2.795  16.800 -0.2747  0.5579  0.4127
18171TIP3    H176004   1.192   2.817  16.789 -0.1102  0.5635  1.5834
18171TIP3    H276005   1.077   2.745  16.722  0.7633  0.4111  0.1829
18172TIP3   OH276006   2.729   1.750  13.135 -0.3713 -0.2604  0.1931
18172TIP3    H176007   2.715   1.682  13.069 -0.1511 -0.0189 -0.1057
18172TIP3    H276008   2.757   1.703  13.213 -2.1230 -0.7048  0.5981
18173TIP3   OH276009   4.149   6.588  13.912 -0.3178  0.2112  0.0769
18173TIP3    H176010   4.145   6.679  13.939  0.5069 -0.0727  1.2084
18173TIP3    H276011   4.225   6.584  13.853  0.3933  0.0415  0.9770
18174TIP3   OH276012   0.283   1.438  15.438  0.2583 -0.4658  0.4001
18174TIP3    H176013   0.307   1.504  15.504  0.9122 -0.5950  0.3006
18174TIP3    H276014   0.250   1.364  15.490  0.6652 -0.5241  0.5839
18175TIP3   OH276015   5.996   5.117  12.494  0.2431  0.3656  0.2044
18175TIP3    H176016   5.916   5.167  12.509  0.8821  1.3501  0.4345
18175TIP3    H276017   6.032   5.104  12.582  0.0117 -0.6470  0.1613
18176TIP3   OH276018   5.400   4.775   4.112  0.4695 -0.2735 -0.3845
18176TIP3    H176019   5.486   4.744   4.143 -0.2941 -0.5752  1.5781
18176TIP3    H276020   5.338   4.741   4.177 -0.9610  1.2776 -0.8830
18177TIP3   OH276021   2.365   1.488   4.845  0.0028 -0.0354 -0.1113
18177TIP3    H176022   2.419   1.547   4.898  0.9288 -1.2030  0.2684
18177TIP3    H276023   2.276   1.504   4.875  0.2567  1.0176  0.1275
18178TIP3   OH276024   5.258   5.518   5.434  0.6242  0.3912  0.2546
18178TIP3    H176025   5.339   5.533   5.482  0.5630 -1.1212  0.8961
18178TIP3    H276026   5.245   5.423   5.438  1.0690 -0.0035 -3.5064
18179TIP3   OH276027   5.238   5.554   4.632 -0.5035  0.2567 -0.0685
18179TIP3    H176028   5.288   5.508   4.700  1.2067 -0.9361 -2.0251
18179TIP3    H276029   5.290   5.633   4.616 -1.9364  1.5451  1.2870
18180TIP3   OH276030   5.224   4.414   4.853 -0.2506  0.2012  0.9023
18180TIP3    H176031   5.243   4.386   4.942  1.4314 -0.5732  0.3641
18180TIP3    H276032   5.228   4.333   4.801 -0.0527  0.7868 -0.0252
18181TIP3   OH276033   2.710   6.779  16.540 -0.2303  0.2200 -0.3137
18181TIP3    H176034   2.655   6.704  16.559  0.8075 -0.4803  0.0147
18181TIP3    H276035   2.790   6.742  16.503 -0.1168  1.2304 -1.1349
18182TIP3   OH276036   5.026   1.104  12.387  0.1830  0.1884 -0.2707
18182TIP3    H176037   4.977   1.111  12.305  0.2638 -0.4161 -0.3744
18182TIP3    H276038   5.004   1.018  12.422  0.1125  0.4613  0.3742
18183TIP3   OH276039   4.426   4.594   2.007  0.0034  0.4515 -0.6263
18183TIP3    H176040   4.381   4.656   2.064 -1.1609 -0.1463 -0.8728
18183TIP3    H276041   4.361   4.569   1.942  2.0278  3.2479 -4.0542
18184TIP3   OH276042   6.788   3.565   2.841  0.0939  0.5665  0.1630
18184TIP3    H176043   6.868   3.516   2.824  0.3297  0.6459  1.0165
18184TIP3    H276044   6.803   3.608   2.925 -1.9146 -1.7449  1.8525
18185TIP3   OH276045   2.357   4.732   4.403  0.5641 -0.1516  0.0828
18185TIP3    H176046   2.420   4.662   4.385  0.5850  0.1620 -1.1181
18185TIP3    H276047   2.281   4.711   4.350  0.8167  1.0555 -0.8110
18186TIP3   OH276048   0.458   5.520  15.851 -0.5149 -0.6235  0.3428
18186TIP3    H176049   0.553   5.522  15.841 -0.4593 -1.9238  0.3417
18186TIP3    H276050   0.442   5.451  15.916 -1.4594 -0.4904  0.2717
18187TIP3   OH276051   4.887   0.002  14.608 -0.2358 -0.5637  0.4480
18187TIP3    H176052   4.893   0.016  14.702 -0.3398  2.2702  0.1195
18187TIP3    H276053   4.969   0.037  14.573 -0.6903 -0.4958 -0.5950
18188TIP3   OH276054   3.267   4.314   4.363 -0.5079 -0.7037  0.2573
18188TIP3    H176055   3.347   4.340   4.409 -0.0054 -0.9475 -0.4668
18188TIP3    H276056   3.294   4.240   4.308 -1.2943 -0.9623  0.2094
18189TIP3   OH276057   3.423   3.300  14.414  0.0351  0.5963 -0.2239
18189TIP3    H176058   3.463   3.384  14.435  1.9901 -0.8840  2.7019
18189TIP3    H276059   3.482   3.261  14.350  0.4960  0.4820  0.2640
18190TIP3   OH276060   2.751   3.990  14.849 -0.2947 -0.3114  0.4224
18190TIP3    H176061   2.740   4.009  14.756 -0.9988  0.1753  0.5962
18190TIP3    H276062   2.669   4.019  14.890 -0.9603 -2.5886  0.8966
18191TIP3   OH276063   1.539   5.951  12.608 -0.4035  0.4592 -0.1804
18191TIP3    H176064   1.538   5.855  12.610 -2.7599  0.4567  0.2678
18191TIP3    H276065   1.632   5.973  12.600  0.2659 -1.8337  0.5381
18192TIP3   OH276066   4.743   1.277   4.733 -1.0193  0.3989  0.1144
18192TIP3    H176067   4.654   1.300   4.761 -1.3151 -0.2494 -0.2641
18192TIP3    H276068   4.741   1.290   4.638 -0.7539  0.2487  0.0886
18193TIP3   OH276069   4.703   4.913   1.783  0.7572  0.2221 -0.0044
18193TIP3    H176070   4.726   4.983   1.722 -2.9033  0.3068 -1.5634
18193TIP3    H276071   4.632   4.949   1.835  0.6364 -1.4547  1.0689
18194TIP3   OH276072   3.029   5.247  14.884 -0.0791  0.0679 -0.0164
18194TIP3    H176073   3.039   5.161  14.925  0.8420  0.8096  1.4135
18194TIP3    H276074   3.028   5.229  14.790  0.4790 -1.4821  0.2461
18195TIP3   OH276075   5.960   4.642  11.549  0.3238  0.1786 -0.1491
18195TIP3    H176076   5.891   4.576  11.557  2.3942 -2.2915 -1.1527
18195TIP3    H276077   5.931   4.698  11.477 -1.4936  0.3987  0.7057
18196TIP3   OH276078   2.018   2.542   2.477 -0.4827 -0.3046 -0.2560
18196TIP3    H176079   1.933   2.557   2.519 -1.3052 -2.9115 -0.8462
18196TIP3    H276080   2.066   2.488   2.540  1.3283  2.1322  0.6268
18197TIP3   OH276081   5.220   3.201  11.517  0.3106  0.2775  0.4962
18197TIP3    H176082   5.224   3.255  11.596  1.6993 -1.5071  1.7079
18197TIP3    H276083   5.303   3.154  11.515  0.4736  0.4962 -2.2484
18198TIP3   OH276084   0.539   6.565  11.728  0.1046 -0.6549 -0.3062
18198TIP3    H176085   0.536   6.660  11.719  3.0166 -0.2825  1.3892
18198TIP3    H276086   0.447   6.539  11.737 -0.7880  1.9515 -1.0008
18199TIP3   OH276087   3.638   1.862   4.486  0.5771  0.8382  0.6207
18199TIP3    H176088   3.610   1.892   4.400  2.8381  0.0176 -0.4672
18199TIP3    H276089   3.557   1.859   4.538 -1.1685 -0.4230 -1.9793
18200TIP3   OH276090   0.204   1.678   4.645  0.1184  0.5253 -0.1645
18200TIP3    H176091   0.138   1.734   4.605 -0.8215 -0.1947  0.3215
18200TIP3    H276092   0.179   1.674   4.737  1.0944  0.5806  0.1063
18201TIP3   OH276093   4.363   0.583   3.846  0.7567 -0.5583  0.1813
18201TIP3    H176094   4.363   0.644   3.920  1.0366  0.1560 -0.3941
18201TIP3    H276095   4.272   0.555   3.839  0.7160 -0.5809  0.7579
18202TIP3   OH276096   3.278   3.445   0.662 -0.0372 -0.6038  0.0199
18202TIP3    H176097   3.335   3.389   0.715 -1.7512 -0.6333  1.9223
18202TIP3    H276098   3.191   3.432   0.698 -0.7233  2.1786 -0.4433
18203TIP3   OH276099   4.425   1.257  17.323 -0.5147  0.1887  0.7178
18203TIP3    H176100   4.376   1.243  17.242 -1.1050  0.0608  1.0911
18203TIP3    H276101   4.409   1.348  17.346 -0.9117  0.0352  1.0558
18204TIP3   OH276102   4.221   2.935   2.288 -0.2575 -0.1527 -0.0388
18204TIP3    H176103   4.152   2.887   2.242 -1.1931  1.0873  0.0044
18204TIP3    H276104   4.271   2.978   2.219 -0.6491  0.3859  0.0039
18205TIP3   OH276105   3.023   0.574   1.949 -0.7678 -0.4300 -0.1014
18205TIP3    H176106   3.041   0.543   1.860 -1.7698 -0.3399 -0.3523
18205TIP3    H276107   3.029   0.496   2.003 -0.8104 -0.6091 -0.3524
18206TIP3   OH276108   0.755   2.035   5.612 -0.6210 -0.0374  0.0548
18206TIP3    H176109   0.820   2.019   5.542  0.3014 -1.2642  1.1466
18206TIP3    H276110   0.672   2.004   5.575 -0.0896 -0.9716 -0.3974
18207TIP3   OH276111   4.767   1.975   2.799 -0.1890  0.3564 -0.0826
18207TIP3    H176112   4.680   2.005   2.772 -1.2598 -1.9297  0.5921
18207TIP3    H276113   4.827   2.019   2.739 -1.7339  2.4326 -0.1980
18208TIP3   OH276114   5.975   6.650  17.266  0.5740 -0.4122  0.7072
18208TIP3    H176115   5.917   6.723  17.291  1.0950  0.4629 -0.5194
18208TIP3    H276116   5.975   6.652  17.171 -0.0312 -2.5663  0.6094
18209TIP3   OH276117   1.162   4.513  13.252 -0.0597 -0.3102 -0.1548
18209TIP3    H176118   1.202   4.570  13.186  2.2532 -1.7926 -0.1280
18209TIP3    H276119   1.103   4.457  13.202 -1.1818  1.0113 -0.3851
18210TIP3   OH276120   5.438   5.644   5.203 -0.2986 -0.2526  0.5577
18210TIP3    H176121   5.363   5.659   5.261 -0.3517 -0.3069  0.5037
18210TIP3    H276122   5.515   5.656   5.259 -0.2709  2.2739  0.0775
18211TIP3   OH276123   1.814   3.184   3.867  0.1248 -0.1368  0.0484
18211TIP3    H176124   1.768   3.205   3.785 -1.4351  1.5880  1.2959
18211TIP3    H276125   1.823   3.089   3.865 -1.3871 -0.2952 -1.3513
18212TIP3   OH276126   4.631   0.885   1.819  0.2698  1.2643 -0.0286
18212TIP3    H176127   4.550   0.928   1.848  0.7345  1.6304  0.7405
18212TIP3    H276128   4.633   0.901   1.724 -0.1313  1.9775  0.0733
18213TIP3   OH276129   0.265   1.371   4.031  0.1330  0.3302  0.5414
18213TIP3    H176130   0.308   1.453   4.008  1.2779 -0.7962 -1.7314
18213TIP3    H276131   0.171   1.391   4.024  0.3900  1.0254 -1.9934
18214TIP3   OH276132   4.279   5.333   1.959 -0.2254 -0.1860 -0.5018
18214TIP3    H176133   4.336   5.377   2.022 -0.7032 -0.0241 -0.1794
18214TIP3    H276134   4.340   5.295   1.895  0.4210 -1.9979  1.0632
18215TIP3   OH276135   2.649   3.449  14.659 -0.1772 -0.0081 -0.6105
18215TIP3    H176136   2.689   3.424  14.742 -0.6965  0.8436 -0.0872
18215TIP3    H276137   2.663   3.373  14.602  1.3847 -0.0826 -0.1833
18216TIP3   OH276138   0.793   1.067   2.181  0.2853  0.6549  0.2932
18216TIP3    H176139   0.863   1.131   2.190  0.6581  0.1633  0.9736
18216TIP3    H276140   0.723   1.099   2.237  0.7111  0.1573  1.1294
18217TIP3   OH276141   1.295   2.620  16.219  0.1419 -0.3684 -0.7012
18217TIP3    H176142   1.325   2.707  16.192 -0.4183 -0.8627 -3.1300
18217TIP3    H276143   1.200   2.626  16.219  0.1072 -0.6461  0.4479
18218TIP3   OH276144   4.310   6.604   1.119 -0.0241  0.5225 -0.1233
18218TIP3    H176145   4.255   6.656   1.178  1.5978  1.2441  0.8454
18218TIP3    H276146   4.359   6.670   1.069  1.3814 -0.0284  0.4561
18219TIP3   OH276147   5.937   3.922   1.034 -0.7386 -0.2308 -0.4813
18219TIP3    H176148   6.020   3.935   1.080  0.0821 -0.1420 -1.9061
18219TIP3    H276149   5.870   3.949   1.096  0.1679 -1.8809  1.3394
18220TIP3   OH276150   1.414   0.005  16.948  0.3566 -0.4875  0.3663
18220TIP3    H176151   1.380  -0.004  17.037 -1.4665  0.0365 -0.2202
18220TIP3    H276152   1.495   0.055  16.958 -0.2515  0.3014  1.6833
18221TIP3   OH276153   5.657   4.784   4.684 -0.1510  0.3040  0.5044
18221TIP3    H176154   5.727   4.721   4.662 -0.1242  0.4765  0.0854
18221TIP3    H276155   5.701   4.849   4.739 -0.2715 -0.2559  1.2898
18222TIP3   OH276156   5.946   1.315   2.299 -0.2134 -0.0114 -0.0389
18222TIP3    H176157   6.028   1.311   2.251 -0.6785  0.6149 -0.9083
18222TIP3    H276158   5.878   1.324   2.232 -0.8356  1.4444  0.7255
18223TIP3   OH276159   1.980   0.486   5.947  0.1142 -0.2805  0.2734
18223TIP3    H176160   1.937   0.531   6.020  1.4974  1.2903  0.2049
18223TIP3    H276161   1.935   0.402   5.940 -1.1770  0.2252  1.8276
18224TIP3   OH276162   2.030   2.150   0.048  0.0617  0.0808  0.0394
18224TIP3    H176163   1.997   2.218   0.107  0.7172  0.6272 -0.2076
18224TIP3    H276164   2.115   2.126   0.085 -0.4030 -1.0260  0.4438
18225TIP3   OH276165   3.117   5.550  13.507 -0.1927  0.7781 -0.7425
18225TIP3    H176166   3.135   5.515  13.594 -1.1980  1.0214 -0.4228
18225TIP3    H276167   3.025   5.531  13.492  0.1975 -0.2108 -2.2097
18226TIP3   OH276168   1.867   4.565   6.097  0.1394  0.6480 -0.2592
18226TIP3    H176169   1.918   4.517   6.031  1.0911  0.3030  0.6995
18226TIP3    H276170   1.847   4.499   6.163  0.8161  1.3827  0.7062
18227TIP3   OH276171   3.551   6.067   2.601 -0.7319  0.2636 -0.3886
18227TIP3    H176172   3.591   6.043   2.684  0.1078  0.1838 -0.8073
18227TIP3    H276173   3.553   6.162   2.600 -0.2387  0.2558 -0.5488
18228TIP3   OH276174   2.365   5.916  15.912 -0.0707 -0.0145 -0.4358
18228TIP3    H176175   2.285   5.951  15.952  1.0136 -0.1380  1.9404
18228TIP3    H276176   2.335   5.839  15.863 -1.3697 -0.2932  0.7442
18229TIP3   OH276177   4.576   6.006  12.903  0.3776  1.1764 -0.1175
18229TIP3    H176178   4.515   6.016  12.830  0.1896  1.1424  0.0330
18229TIP3    H276179   4.563   6.085  12.955  0.0097  0.8773  0.2483
18230TIP3   OH276180   0.831   1.951  12.068  0.1320 -0.3009  0.6087
18230TIP3    H176181   0.904   1.996  12.112 -1.3860  1.9239  1.0370
18230TIP3    H276182   0.788   2.020  12.018 -0.9312 -1.8491 -0.6880
18231TIP3   OH276183   2.653   0.241  12.501  0.5275  0.3161  0.4249
18231TIP3    H176184   2.635   0.251  12.594 -3.1752  1.2834 -0.2439
18231TIP3    H276185   2.621   0.154  12.479 -0.0545  0.6717 -0.1764
18232TIP3   OH276186   3.159   4.209  17.196 -0.2375  0.1114  0.0310
18232TIP3    H176187   3.162   4.275  17.265 -1.1896  0.4795 -0.2583
18232TIP3    H276188   3.251   4.192  17.174  0.0327  0.9461  0.4775
18233TIP3   OH276189   6.045   5.316   4.746  0.6753  0.3532 -0.2557
18233TIP3    H176190   6.104   5.261   4.797  1.1612 -1.0758 -2.2403
18233TIP3    H276191   6.098   5.391   4.719  1.1897 -0.1948 -0.7985
18234TIP3   OH276192   2.764   0.261   0.003 -0.1317  0.3320  0.0839
18234TIP3    H176193   2.696   0.325  -0.016 -0.7672 -0.0266  1.0516
18234TIP3    H276194   2.748   0.235   0.094  1.4935  0.4699  0.4466
18235TIP3   OH276195   0.364   4.682  12.796  0.5969  0.3975  0.3722
18235TIP3    H176196   0.377   4.773  12.770  1.3998  0.1986  0.0445
18235TIP3    H276197   0.432   4.666  12.862 -0.1465  0.3099  1.1364
18236TIP3   OH276198   5.597   6.313  14.294  0.2728  0.1901  0.7037
18236TIP3    H176199   5.577   6.219  14.295 -0.5632  0.2492 -1.9823
18236TIP3    H276200   5.681   6.320  14.338  0.5968 -1.9050  0.5201
18237TIP3   OH276201   6.286   4.035   0.697 -0.1133  0.3629 -0.9630
18237TIP3    H176202   6.199   3.998   0.713 -0.0668  0.6502  0.0256
18237TIP3    H276203   6.274   4.095   0.624 -1.1337  1.7093  0.2517
18238TIP3   OH276204   4.631   4.619  14.210 -0.1988 -0.0427 -0.7208
18238TIP3    H176205   4.638   4.628  14.115  1.0693 -0.3547 -0.6781
18238TIP3    H276206   4.720   4.596  14.238 -0.2943  1.1687  0.6749
18239TIP3   OH276207   0.078   0.358   0.303 -0.1206  0.0308 -0.5173
18239TIP3    H176208   0.123   0.401   0.231  0.7193  3.3066  1.7429
18239TIP3    H276209   0.147   0.336   0.365 -1.0963  0.2440  0.6921
18240TIP3   OH276210   2.519   1.604  12.667  0.2878  0.4731 -0.4735
18240TIP3    H176211   2.428   1.616  12.694  0.5360  1.6641 -0.1212
18240TIP3    H276212   2.527   1.510  12.650 -0.3102 -0.1105  2.0361
18241TIP3   OH276213   1.022   1.954   1.335  0.3392  0.4729  0.2536
18241TIP3    H176214   1.072   1.874   1.351 -1.5567 -0.0681  5.0537
18241TIP3    H276215   1.033   2.006   1.414 -2.9081  2.3751 -0.3549
18242TIP3   OH276216   3.615   3.896  12.829  0.4716  0.2908  0.2474
18242TIP3    H176217   3.526   3.859  12.832  1.3458 -1.9514  2.9756
18242TIP3    H276218   3.602   3.986  12.799 -3.0262  0.7497  2.5079
18243TIP3   OH276219   0.854   2.885   2.148  0.0792  0.0734 -0.3638
18243TIP3    H176220   0.820   2.967   2.110 -0.9215 -0.9781 -1.8330
18243TIP3    H276221   0.778   2.826   2.148  0.9294 -1.0442  0.1480
18244TIP3   OH276222   0.347   0.861  11.044 -0.0111 -0.2767 -0.2483
18244TIP3    H176223   0.284   0.916  11.090 -0.5060 -1.0693  0.0623
18244TIP3    H276224   0.298   0.825  10.971  0.3472 -0.1905 -0.5319
18245TIP3   OH276225   3.060   3.380  14.927  0.3325  0.4997  0.5004
18245TIP3    H176226   3.111   3.403  14.849 -1.0749 -0.4952 -0.7721
18245TIP3    H276227   3.117   3.321  14.976  1.5290  1.7191  0.6440
18246TIP3   OH276228   1.932   5.714   2.765  0.1456  0.0000  0.0541
18246TIP3    H176229   1.854   5.761   2.736 -0.3173 -1.1991 -0.7053
18246TIP3    H276230   1.948   5.747   2.853 -0.5518  1.0864 -0.2073
18247TIP3   OH276231   6.345   0.562   0.756  0.1445  0.1303  0.5973
18247TIP3    H176232   6.297   0.630   0.708  0.6242  0.2948  0.3503
18247TIP3    H276233   6.280   0.494   0.772 -0.8717  1.4329  2.4861
18248TIP3   OH276234   1.736   2.873  15.940 -0.0451 -0.2142 -0.4636
18248TIP3    H176235   1.781   2.836  15.864 -2.4780 -1.6788 -1.3161
18248TIP3    H276236   1.659   2.816  15.952 -2.2684  2.6992  0.2189
18249TIP3   OH276237   6.284   2.390  14.177  0.8141 -0.7694  0.0941
18249TIP3    H176238   6.243   2.304  14.169  0.4099 -0.7950  1.9198
18249TIP3    H276239   6.350   2.379  14.246  3.6973 -0.6086 -2.4176
18250TIP3   OH276240   1.674   4.604  13.151  0.2230 -0.7498 -0.1712
18250TIP3    H176241   1.736   4.660  13.104  0.6365 -2.4549 -1.7687
18250TIP3    H276242   1.595   4.607  13.099 -0.0746 -0.8925  0.2697
18251TIP3   OH276243   3.172   4.663   1.616 -0.4325  0.0007  0.2743
18251TIP3    H176244   3.195   4.697   1.529  0.0537  0.4776  0.5855
18251TIP3    H276245   3.110   4.727   1.650  0.7718  0.7953  1.0170
18252TIP3   OH276246   4.839   1.587   1.629  0.1014 -0.1513 -0.4302
18252TIP3    H176247   4.840   1.677   1.662  1.2224 -0.4465  0.4118
18252TIP3    H276248   4.758   1.581   1.578 -1.7948  0.2939  2.3563
18253TIP3   OH276249   6.546   3.834   2.865 -0.6840  0.7194  0.7753
18253TIP3    H176250   6.605   3.796   2.800 -0.9137  2.4994 -0.5632
18253TIP3    H276251   6.596   3.834   2.946  1.1134  1.8942 -0.2517
18254TIP3   OH276252   2.453   3.253   5.009 -0.1787 -0.3848  0.3360
18254TIP3    H176253   2.474   3.171   5.054  2.1067 -0.5296 -0.8131
18254TIP3    H276254   2.506   3.319   5.052  0.7907 -0.2317 -1.0078
18255TIP3   OH276255   1.079   5.071   3.310  0.6939  0.2816  0.0512
18255TIP3    H176256   1.096   4.992   3.260  0.2342  0.1156  0.1501
18255TIP3    H276257   1.164   5.096   3.346  0.8800 -0.0420 -0.1616
18256TIP3   OH276258   6.563   3.228   2.289 -0.2248 -0.1926  0.4820
18256TIP3    H176259   6.548   3.320   2.311  1.7395  0.0278  1.0126
18256TIP3    H276260   6.488   3.182   2.328 -0.0754  0.9172  2.1705
18257TIP3   OH276261   1.835   6.327  15.072  0.2726  0.1776 -0.3865
18257TIP3    H176262   1.782   6.253  15.041 -0.0418 -0.3944  1.4285
18257TIP3    H276263   1.869   6.367  14.992 -1.4670 -0.5056 -1.5163
18258TIP3   OH276264   2.257   2.005   6.456 -0.3043 -0.5273 -0.5508
18258TIP3    H176265   2.190   1.994   6.389 -0.1501  0.0717 -0.8102
18258TIP3    H276266   2.265   1.919   6.497 -3.0037 -0.0721  1.1594
18259TIP3   OH276267   6.537   5.343   4.187  0.5119  0.0769  0.2211
18259TIP3    H176268   6.450   5.383   4.179  0.4632 -0.3428 -2.0861
18259TIP3    H276269   6.527   5.277   4.255 -0.6840  0.7725  0.7437
18260TIP3   OH276270   5.310   5.783   1.129 -0.0771  0.5631 -0.1717
18260TIP3    H176271   5.275   5.705   1.172  0.3123  1.3028  1.5955
18260TIP3    H276272   5.275   5.779   1.040  0.4170 -1.9281 -0.3496
18261TIP3   OH276273   4.397   0.875   5.694 -0.4797 -0.8889  0.2139
18261TIP3    H176274   4.319   0.919   5.661 -0.6376 -0.1064  1.5660
18261TIP3    H276275   4.363   0.805   5.750 -0.2413  0.1025  1.6357
18262TIP3   OH276276   5.932   3.964  12.502 -0.1295 -0.0399  0.2983
18262TIP3    H176277   5.963   3.900  12.567  2.7909  1.3761  0.4318
18262TIP3    H276278   5.986   3.948  12.425 -1.7363  0.0795 -0.8982
18263TIP3   OH276279   5.537   0.654  15.501  0.1313 -0.0819 -0.5521
18263TIP3    H176280   5.479   0.590  15.461 -1.5530  0.2362  1.2077
18263TIP3    H276281   5.492   0.738  15.489  0.4463  0.2441  0.3879
18264TIP3   OH276282   5.985   1.463   6.318 -0.3248 -0.0870 -0.1692
18264TIP3    H176283   6.051   1.473   6.386 -1.3798 -2.0080  1.2117
18264TIP3    H276284   5.931   1.390   6.347 -1.4810 -0.2638 -2.5563
18265TIP3   OH276285   5.997   1.249  16.602  0.4105  0.3318 -0.3997
18265TIP3    H176286   5.923   1.287  16.648 -0.2411  0.4347 -1.5104
18265TIP3    H276287   6.032   1.183  16.663 -0.9884 -0.1722 -0.1115
18266TIP3   OH276288   6.148   3.239  13.559  0.4817  0.4519 -0.8002
18266TIP3    H176289   6.081   3.210  13.621  0.7144  0.3029 -0.6184
18266TIP3    H276290   6.135   3.184  13.482  0.0647  0.7699 -0.9632
18267TIP3   OH276291   6.491   4.528   0.658  0.3631  0.6537 -1.0257
18267TIP3    H176292   6.582   4.548   0.636  1.0883 -0.5310  0.6188
18267TIP3    H276293   6.480   4.437   0.631  0.0942  0.3920 -0.0962
18268TIP3   OH276294   4.248   3.136   0.882  0.1950  0.2786  0.2727
18268TIP3    H176295   4.165   3.088   0.878 -0.1026  0.8561 -1.3824
18268TIP3    H276296   4.226   3.224   0.852  1.1519  0.8572  1.1943
18269TIP3   OH276297   4.059   3.817   5.848  0.3070  0.8958 -0.2123
18269TIP3    H176298   3.970   3.782   5.852 -0.3015  2.3689 -0.3939
18269TIP3    H276299   4.066   3.875   5.924  1.1316  0.7920 -0.1891
18270TIP3   OH276300   4.614   1.335  16.435  0.1261 -0.2215 -0.2045
18270TIP3    H176301   4.532   1.290  16.413  0.2125  0.4023 -1.9834
18270TIP3    H276302   4.586   1.416  16.477 -0.0673 -1.1608  1.5681
18271TIP3   OH276303   4.654   5.848  16.206 -0.0717 -0.5009 -0.1403
18271TIP3    H176304   4.722   5.877  16.266 -0.6945 -1.0433  0.8675
18271TIP3    H276305   4.656   5.753  16.211 -1.0875 -0.5240  0.1329
18272TIP3   OH276306   5.467   3.900   5.557 -0.1045  0.3821 -0.9717
18272TIP3    H176307   5.560   3.896   5.533  0.1593  1.1872 -0.1749
18272TIP3    H276308   5.421   3.901   5.474  0.4190 -2.6082 -1.4169
18273TIP3   OH276309   1.035   4.214   2.157 -0.0147  0.2045 -0.1992
18273TIP3    H176310   0.955   4.164   2.173 -1.2261  1.6644 -1.3751
18273TIP3    H276311   1.069   4.181   2.074 -0.8636  1.3153 -1.0219
18274TIP3   OH276312   2.949   5.115  12.119 -0.0655 -0.1565  0.0599
18274TIP3    H176313   3.032   5.092  12.077 -0.4741 -0.5701 -0.5351
18274TIP3    H276314   2.975   5.165  12.196  0.7877 -1.4014  0.6096
18275TIP3   OH276315   2.163   4.693  10.951  1.1821 -0.0870  0.0566
18275TIP3    H176316   2.146   4.787  10.960  3.1124  0.1366  2.7100
18275TIP3    H276317   2.193   4.682  10.861  0.1450  1.6748 -0.5531
18276TIP3   OH276318   1.590   5.844  16.888 -0.3598  0.6118 -0.6302
18276TIP3    H176319   1.664   5.810  16.837 -0.6554 -0.6011 -0.2911
18276TIP3    H276320   1.631   5.887  16.963  0.0443  1.6351 -1.4151
18277TIP3   OH276321   5.413   4.038  13.431  0.3724 -0.0275  0.1547
18277TIP3    H176322   5.407   4.044  13.335  0.2144 -0.4730  0.1348
18277TIP3    H276323   5.478   3.970  13.447 -0.4941 -0.8380  0.3512
18278TIP3   OH276324   6.335   6.521   4.946  0.5171  0.3990 -0.2272
18278TIP3    H176325   6.328   6.614   4.925 -0.9407  0.3671  0.0364
18278TIP3    H276326   6.423   6.496   4.916  0.4700  1.5695 -1.4241
18279TIP3   OH276327   6.240   4.020  16.540 -0.4252 -0.3436 -0.3847
18279TIP3    H176328   6.183   3.991  16.611  0.5399 -0.6774  0.2761
18279TIP3    H276329   6.260   3.941  16.490  0.2152 -0.3991 -0.0510
18280TIP3   OH276330   5.075   3.295  16.182 -0.2225 -0.6833  0.4154
18280TIP3    H176331   5.110   3.278  16.270  0.1049  0.2210  0.4797
18280TIP3    H276332   5.029   3.379  16.191 -0.8850 -0.9854 -0.0896
18281TIP3   OH276333   5.265   5.844   4.698  0.9019 -0.0707  0.0109
18281TIP3    H176334   5.208   5.883   4.631  0.1004 -0.8505  0.2264
18281TIP3    H276335   5.327   5.914   4.720  1.7486 -0.0663 -2.1703
18282TIP3   OH276336   4.656   1.470   1.257  0.1054  0.4584  0.1959
18282TIP3    H176337   4.586   1.424   1.210 -0.5689  1.6321 -0.0133
18282TIP3    H276338   4.719   1.494   1.188 -0.3946  1.3176  0.0209
18283TIP3   OH276339   1.121   5.066  14.738 -0.0450  0.9364 -0.5578
18283TIP3    H176340   1.088   5.135  14.680  1.0615  1.5900 -0.4475
18283TIP3    H276341   1.167   5.006  14.680 -1.1672  0.1528 -0.6799
18284TIP3   OH276342   3.902   5.375   5.113 -0.0690  0.1439  0.0637
18284TIP3    H176343   3.818   5.329   5.109 -0.3041  0.3284  2.0245
18284TIP3    H276344   3.894   5.432   5.189  2.4628 -1.1362  1.4139
18285TIP3   OH276345   3.015   5.808   5.305  0.4434  0.1242  0.1395
18285TIP3    H176346   3.043   5.872   5.240  1.1782 -0.6271 -0.3058
18285TIP3    H276347   3.059   5.836   5.386  2.8902 -1.2189 -0.6194
18286TIP3   OH276348   4.485   6.588   3.597  0.1128 -0.9450  0.1140
18286TIP3    H176349   4.517   6.659   3.652 -0.9540 -1.0087  0.8503
18286TIP3    H276350   4.561   6.530   3.586  1.2448  0.7029 -1.2409
18287TIP3   OH276351   5.999   6.723  15.115 -0.5864 -0.3160  0.3733
18287TIP3    H176352   6.006   6.628  15.120  1.1100 -0.3703 -1.5365
18287TIP3    H276353   6.054   6.755  15.186  0.2939 -0.7981 -0.0714
18288TIP3   OH276354   3.109   4.831   4.492  0.1426 -0.3035 -0.1232
18288TIP3    H176355   3.183   4.779   4.523  0.4626 -1.2154 -2.1917
18288TIP3    H276356   3.038   4.811   4.552  1.7638  1.3667  2.5280
18289TIP3   OH276357   5.615   0.346   6.216 -0.8593 -0.3581  0.3231
18289TIP3    H176358   5.695   0.361   6.267  0.0254 -1.5817 -0.6208
18289TIP3    H276359   5.570   0.274   6.261 -0.3922 -1.0185 -0.2379
18290TIP3   OH276360   2.776   0.580   0.411  0.2709  0.0426 -0.5368
18290TIP3    H176361   2.720   0.607   0.339  1.0346 -0.4714 -1.3542
18290TIP3    H276362   2.823   0.660   0.436  1.3083 -0.1287 -1.8282
18291TIP3   OH276363   4.195   0.527  15.521 -0.3158  0.1272 -0.3259
18291TIP3    H176364   4.104   0.508  15.543  0.1038 -0.2015  1.3203
18291TIP3    H276365   4.223   0.590  15.589  1.2573 -1.3746  0.4972
18292TIP3   OH276366   3.530   5.009   1.993 -0.0182 -0.0645  0.2966
18292TIP3    H176367   3.525   4.913   1.988 -2.5948 -0.0324  0.7723
18292TIP3    H276368   3.523   5.029   2.086 -1.1944  0.5986  0.0858
18293TIP3   OH276369   4.557   5.191  15.754 -0.3746 -0.5991  0.0161
18293TIP3    H176370   4.519   5.205  15.667 -1.1981  1.2522  0.6210
18293TIP3    H276371   4.648   5.220  15.746 -0.3889 -0.6365 -0.2842
18294TIP3   OH276372   3.492   3.700  10.811  0.5135  0.0516  0.0613
18294TIP3    H176373   3.557   3.728  10.875  2.3018 -1.4199 -0.9777
18294TIP3    H276374   3.451   3.623  10.851 -0.9763  1.2380  0.9045
18295TIP3   OH276375   0.916   5.689  15.099 -0.1553  0.0738 -0.1188
18295TIP3    H176376   0.884   5.770  15.059 -0.7664 -0.0351  0.1465
18295TIP3    H276377   0.992   5.665  15.045 -0.5686  0.2890 -0.8123
18296TIP3   OH276378   6.032   6.270  12.783 -0.0020 -0.4107  0.2794
18296TIP3    H176379   6.041   6.208  12.855 -0.2270 -0.8364 -0.0562
18296TIP3    H276380   5.938   6.268  12.761 -0.5510  1.9460  1.9517
18297TIP3   OH276381   2.697   0.924   4.163  0.0181 -0.3104 -0.0191
18297TIP3    H176382   2.660   0.964   4.084 -0.3441  0.9534  0.7742
18297TIP3    H276383   2.623   0.911   4.221  0.0319 -2.6366 -0.3956
18298TIP3   OH276384   4.601   5.747  12.592 -0.2850  0.2114  0.5488
18298TIP3    H176385   4.510   5.745  12.562 -0.1801  1.2914  0.0990
18298TIP3    H276386   4.625   5.840  12.589  0.4282  0.1009  1.9054
18299TIP3   OH276387   5.299   4.408  12.780 -0.4199  0.4524 -0.1372
18299TIP3    H176388   5.382   4.404  12.828 -1.0692  2.7837  1.3614
18299TIP3    H276389   5.323   4.445  12.695  0.2755 -0.2826 -0.2673
18300TIP3   OH276390   4.681   4.649  11.708 -0.0271  0.4344  0.5786
18300TIP3    H176391   4.630   4.664  11.788  3.5020  2.4428  2.7176
18300TIP3    H276392   4.689   4.736  11.668 -0.5056 -0.3076 -1.2464
18301TIP3   OH276393   1.169   3.107   5.771 -0.8355  0.0048  0.4985
18301TIP3    H176394   1.224   3.053   5.828  0.9275 -1.2870 -2.2094
18301TIP3    H276395   1.095   3.132   5.826  2.3013  1.8630  4.4701
18302TIP3   OH276396   5.944   2.597   4.230 -0.1538 -0.4665 -0.4095
18302TIP3    H176397   5.897   2.674   4.264 -1.1759 -0.5749 -1.5137
18302TIP3    H276398   6.028   2.599   4.275 -0.1244  1.3397 -0.4704
18303TIP3   OH276399   5.980   2.033   0.896 -0.9319  0.1430  0.5307
18303TIP3    H176400   5.976   1.937   0.890  2.5032 -0.0374 -1.1880
18303TIP3    H276401   5.942   2.063   0.813 -0.1609  0.1351  0.1659
18304TIP3   OH276402   3.043   3.256   1.891  0.2516 -0.4400  0.1676
18304TIP3    H176403   2.982   3.294   1.954 -0.2276  1.9694 -1.6089
18304TIP3    H276404   3.130   3.271   1.928 -0.0857 -0.6496  1.0537
18305TIP3   OH276405   6.235   0.902   6.063 -0.7386 -0.2079  0.3943
18305TIP3    H176406   6.184   0.848   6.003 -0.1008  1.4211 -1.7463
18305TIP3    H276407   6.183   0.981   6.075 -0.1111  0.1776  0.6389
18306TIP3   OH276408   3.011   4.842   5.353  0.2485  0.7468 -0.4091
18306TIP3    H176409   2.974   4.797   5.429  1.0990  0.7541  0.0169
18306TIP3    H276410   3.014   4.934   5.379 -0.0492  0.8406 -0.6959
18307TIP3   OH276411   0.634   1.823   0.443  0.1429  0.3005 -0.1317
18307TIP3    H176412   0.544   1.845   0.416  0.2267  0.5378 -0.2226
18307TIP3    H276413   0.689   1.882   0.392  0.3546  0.1279 -0.1032
18308TIP3   OH276414   6.752   2.191  16.481 -0.2843  0.5244  0.0315
18308TIP3    H176415   6.773   2.216  16.391  0.4221  2.0896  0.5912
18308TIP3    H276416   6.736   2.274  16.526  0.1277 -0.1663  1.5244
18309TIP3   OH276417   0.965   5.798   1.197  0.5301 -0.8207  0.1855
18309TIP3    H176418   0.965   5.883   1.153  1.8666 -1.0052 -0.2252
18309TIP3    H276419   1.017   5.811   1.276  0.2102 -1.1050  0.4496
18310TIP3   OH276420   1.393   6.101  15.133 -0.1386 -0.5759  0.5469
18310TIP3    H176421   1.350   6.015  15.134  2.2547 -1.8757  0.1731
18310TIP3    H276422   1.410   6.119  15.225 -0.0039 -0.8557  0.5788
18311TIP3   OH276423   3.333   6.153   6.093 -0.2424  0.2642 -0.0338
18311TIP3    H176424   3.368   6.157   6.182 -1.4261  0.1036  0.4559
18311TIP3    H276425   3.250   6.200   6.098 -0.3181  0.2633 -1.0659
18312TIP3   OH276426   6.692   2.267  13.625 -0.6531  0.0883 -0.4673
18312TIP3    H176427   6.630   2.311  13.567 -2.2132 -0.2526  0.8751
18312TIP3    H276428   6.662   2.175  13.626 -0.6365  0.0870  0.8166
18313TIP3   OH276429   2.711   6.152  16.272 -0.1643 -0.3676  1.0749
18313TIP3    H176430   2.781   6.194  16.322  0.8892  0.0219 -0.6606
18313TIP3    H276431   2.663   6.224  16.232 -0.7398 -0.6928  1.1617
18314TIP3   OH276432   4.885   0.729  11.217  0.2635  0.8020  0.1654
18314TIP3    H176433   4.839   0.700  11.138  0.6234 -0.8313  0.5227
18314TIP3    H276434   4.856   0.819  11.230  0.9689  1.4896 -2.4206
18315TIP3   OH276435   6.642   6.085   0.440 -0.4873  0.5970  0.3900
18315TIP3    H176436   6.628   6.074   0.346  1.4635  0.2525  0.1070
18315TIP3    H276437   6.685   6.170   0.449  0.7885 -0.0711  0.7954
18316TIP3   OH276438   3.513   4.081  14.120 -0.5250  0.3255  0.0431
18316TIP3    H176439   3.463   4.007  14.156  2.1144 -0.0612  3.3655
18316TIP3    H276440   3.508   4.148  14.188  1.9993  0.8741 -0.2455
18317TIP3   OH276441   3.362   3.876   1.121 -0.6800 -0.0363 -0.3502
18317TIP3    H176442   3.404   3.947   1.072  1.9318 -1.2325 -0.0261
18317TIP3    H276443   3.280   3.914   1.153  0.2818  2.6098 -0.7634
18318TIP3   OH276444   3.751   5.277   6.340 -0.7931 -0.3558 -0.5370
18318TIP3    H176445   3.785   5.192   6.311 -2.2238 -0.2755 -2.6676
18318TIP3    H276446   3.676   5.255   6.395  1.5863 -0.4876  3.0602
18319TIP3   OH276447   4.951   4.837   4.959  0.0157 -0.4935  0.1007
18319TIP3    H176448   5.000   4.857   5.038 -1.4390  1.7902  0.5165
18319TIP3    H276449   4.995   4.886   4.889 -1.4128  1.4132  0.4425
18320TIP3   OH276450   6.811   1.559   5.016 -0.3431  0.0909  0.3065
18320TIP3    H176451   6.754   1.634   4.999  2.1655  2.5810  1.9399
18320TIP3    H276452   6.783   1.525   5.101 -1.7929 -1.2321 -0.6516
18321TIP3   OH276453   6.425   3.041  12.353 -0.0673 -0.1043 -0.1817
18321TIP3    H176454   6.369   3.013  12.280 -0.0568 -0.9662  0.1310
18321TIP3    H276455   6.464   3.124  12.323 -1.0198  0.1880 -0.6482
18322TIP3   OH276456   2.775   5.653   0.044 -0.4589 -0.4757 -0.0615
18322TIP3    H176457   2.781   5.726  -0.017  0.2379 -1.7192 -1.5593
18322TIP3    H276458   2.756   5.693   0.129  1.1934  1.5594 -0.5696
18323TIP3   OH276459   1.727   3.825  14.200 -0.3606 -0.3288  0.6783
18323TIP3    H176460   1.804   3.875  14.172 -0.2346 -0.1731  1.2957
18323TIP3    H276461   1.724   3.837  14.295 -1.0259 -0.5076  0.6832
18324TIP3   OH276462   5.805   4.932   2.592 -0.5287  0.3381 -0.1238
18324TIP3    H176463   5.793   4.984   2.513  1.0101  0.1827 -0.5077
18324TIP3    H276464   5.718   4.922   2.629 -1.3538  0.0684 -2.0278
18325TIP3   OH276465   3.374   3.875   1.513  0.0837 -0.2967 -0.1806
18325TIP3    H176466   3.408   3.857   1.601  1.6794  2.7139 -0.0364
18325TIP3    H276467   3.436   3.832   1.454 -0.1287 -1.0527  0.1409
18326TIP3   OH276468   0.346   0.459  12.162  0.2218 -0.5891  0.3476
18326TIP3    H176469   0.376   0.512  12.236  3.1512  0.3357 -1.3289
18326TIP3    H276470   0.290   0.517  12.111 -0.0275 -0.5166  0.7038
18327TIP3   OH276471   3.752   5.463   2.489  0.1112  0.1663  0.2152
18327TIP3    H176472   3.682   5.499   2.435 -2.1609  0.9016  3.3721
18327TIP3    H276473   3.768   5.530   2.555  1.5290 -1.3499  1.4981
18328TIP3   OH276474   1.007   3.200   5.963 -0.3874 -0.5130  0.4526
18328TIP3    H176475   0.941   3.134   5.986 -1.3068  0.0770 -0.4454
18328TIP3    H276476   1.008   3.259   6.039 -0.2173 -1.0353  0.8669
18329TIP3   OH276477   0.094   4.780  16.897 -0.7225 -0.1910 -0.0704
18329TIP3    H176478   0.053   4.772  16.811 -1.1220  0.8498  0.0066
18329TIP3    H276479   0.181   4.816  16.880  0.3367 -2.6598 -0.2564
18330TIP3   OH276480   4.932   2.777  12.956 -0.0949 -0.1786  0.6910
18330TIP3    H176481   4.931   2.689  12.920  1.8598  0.2916 -0.6659
18330TIP3    H276482   4.869   2.825  12.901 -1.7662 -0.8302  1.9323
18331TIP3   OH276483   1.909   6.280   5.150  0.3050  0.8071 -0.0432
18331TIP3    H176484   1.846   6.257   5.219  2.5074 -1.9148  1.2345
18331TIP3    H276485   1.953   6.359   5.183 -1.0039  1.5612 -0.0268
18332TIP3   OH276486   1.150   4.357  12.032  0.0092 -0.1324 -0.0174
18332TIP3    H176487   1.155   4.290  11.964  0.2225  1.2451 -1.4077
18332TIP3    H276488   1.153   4.308  12.114 -0.4240 -1.8534 -0.9833
18333TIP3   OH276489   0.857   6.186   0.504  0.4960  0.1070  0.5149
18333TIP3    H176490   0.921   6.157   0.569  1.5316  0.7064 -0.2154
18333TIP3    H276491   0.847   6.111   0.446 -0.9759 -0.6938  1.7316
18334TIP3   OH276492   3.116   5.899   4.835  0.0708 -0.0890 -0.2097
18334TIP3    H176493   3.169   5.857   4.767 -0.4471  0.3561 -0.9094
18334TIP3    H276494   3.090   5.828   4.893  1.0845 -0.3753 -0.0813
18335TIP3   OH276495   1.502   2.655  12.725 -0.4958 -0.0781  0.2118
18335TIP3    H176496   1.456   2.579  12.688 -1.4544  0.0948  0.9877
18335TIP3    H276497   1.590   2.650  12.688 -0.6050 -1.4379  0.0616
18336TIP3   OH276498   5.771   3.208   5.670 -0.2512 -0.0312 -0.1245
18336TIP3    H176499   5.728   3.198   5.755  0.4687  1.0970  0.3929
18336TIP3    H276500   5.740   3.133   5.619  0.1485 -1.3606  1.4838
18337TIP3   OH276501   3.669   1.770  12.545 -0.3939  0.1277 -0.2506
18337TIP3    H176502   3.705   1.804  12.626  0.5220  0.1616 -0.6588
18337TIP3    H276503   3.745   1.753  12.490 -0.9548 -0.6178 -0.8228
18338TIP3   OH276504   3.361   5.882   5.769 -0.0123  0.7313  0.4749
18338TIP3    H176505   3.428   5.834   5.818 -0.4246 -0.4416 -0.0621
18338TIP3    H276506   3.367   5.972   5.801  0.5935  0.2679  1.7239
18339TIP3   OH276507   1.483   4.158   0.491  0.1701 -0.2740  0.2578
18339TIP3    H176508   1.548   4.184   0.556 -0.1205 -0.4454  0.6218
18339TIP3    H276509   1.399   4.176   0.533 -0.0347  1.0276 -0.6399
18340TIP3   OH276510   0.867   2.952  15.284 -0.1605  0.2391  0.0819
18340TIP3    H176511   0.810   2.999  15.223 -0.1316 -1.1509 -1.0994
18340TIP3    H276512   0.818   2.951  15.366  0.2201  2.9928  0.4286
18341TIP3   OH276513   1.513   0.656   5.851  0.7951  0.0510  0.5658
18341TIP3    H176514   1.487   0.643   5.943 -0.1570 -0.9450  0.1792
18341TIP3    H276515   1.539   0.569   5.821  0.4060  0.2245 -0.3090
18342TIP3   OH276516   5.995   2.727   0.770 -0.3663  0.0513 -0.0841
18342TIP3    H176517   6.069   2.688   0.816 -1.3421 -1.4140  0.3241
18342TIP3    H276518   5.935   2.654   0.755 -2.5055  1.4500  1.1189
18343TIP3   OH276519   0.971   6.316   4.030 -0.0240  0.6157  1.2118
18343TIP3    H176520   1.041   6.328   3.966 -1.5420 -0.3427 -0.7255
18343TIP3    H276521   0.940   6.404   4.048 -0.1386  0.8660 -0.0916
18344TIP3   OH276522   6.323   3.029   1.813 -0.0233  0.3606  0.1150
18344TIP3    H176523   6.411   3.025   1.776 -0.3170  0.5235 -0.6133
18344TIP3    H276524   6.337   3.041   1.907  0.7366 -0.8578  0.1767
18345TIP3   OH276525   0.132   1.014  15.732 -0.2162  0.5430 -0.4664
18345TIP3    H176526   0.140   0.960  15.654  0.4867 -0.6583  0.4041
18345TIP3    H276527   0.083   0.960  15.793  0.6519  0.7982  0.4869
18346TIP3   OH276528   0.437   2.348  11.970 -0.3155 -0.3442 -0.5209
18346TIP3    H176529   0.426   2.434  11.929  0.3493 -0.0474 -0.1004
18346TIP3    H276530   0.493   2.365  12.046  0.8998 -1.3638 -1.1602
18347TIP3   OH276531   1.796   0.449  16.183  0.9638 -0.3046 -0.1568
18347TIP3    H176532   1.813   0.414  16.270 -0.2031  2.8259  1.4935
18347TIP3    H276533   1.720   0.399  16.151 -0.7400  0.6681  2.1295
18348TIP3   OH276534   2.673   5.438   2.219  0.3478 -0.6496 -0.3251
18348TIP3    H176535   2.725   5.360   2.236  1.4075  0.0301 -0.4047
18348TIP3    H276536   2.668   5.444   2.123 -1.5198 -1.7606 -0.3604
18349TIP3   OH276537   3.551   1.975   5.124 -0.0382  0.2098  0.0047
18349TIP3    H176538   3.509   1.948   5.206 -0.9659  0.7507 -0.2794
18349TIP3    H276539   3.578   2.065   5.140  1.1808 -0.1824  0.2373
18350TIP3   OH276540   2.674   6.268   1.608 -0.4132 -0.3691 -0.6639
18350TIP3    H176541   2.755   6.249   1.561 -2.0761 -1.7341 -3.1423
18350TIP3    H276542   2.661   6.362   1.596  0.7093 -0.1433 -0.2866
18351TIP3   OH276543   6.507   2.505   0.039 -0.0071 -0.5149  0.0673
18351TIP3    H176544   6.467   2.422   0.014 -0.0542 -0.5931  0.3958
18351TIP3    H276545   6.560   2.530  -0.037 -1.4883  0.1230 -0.7901
18352TIP3   OH276546   6.680   0.540  16.645  0.2568 -0.4193 -0.1717
18352TIP3    H176547   6.626   0.526  16.723  1.8148  0.1217  1.0555
18352TIP3    H276548   6.770   0.523  16.675  1.5916  4.5816 -0.4215
18353TIP3   OH276549   3.938   2.261  12.028 -0.4104 -0.1085  0.0243
18353TIP3    H176550   3.930   2.192  12.094 -1.8494 -0.9293 -0.9351
18353TIP3    H276551   3.851   2.301  12.024 -0.3223  0.0180 -1.2534
18354TIP3   OH276552   0.765   0.210   2.369 -0.0818  0.2326 -0.0718
18354TIP3    H176553   0.789   0.288   2.418 -0.6688  0.4461 -0.1150
18354TIP3    H276554   0.847   0.179   2.330 -0.3642  3.0332 -3.3177
18355TIP3   OH276555   3.350   2.391   2.724 -0.4692  0.0097 -0.3374
18355TIP3    H176556   3.347   2.486   2.732 -1.9440 -0.0273 -0.1603
18355TIP3    H276557   3.268   2.361   2.762  0.3827 -1.4148  0.4951
18356TIP3   OH276558   2.179   3.025   2.669  0.4809  0.2209 -0.5242
18356TIP3    H176559   2.229   3.107   2.673  2.3974 -0.9221  1.4582
18356TIP3    H276560   2.186   2.989   2.758 -2.1894 -1.0502 -0.7443
18357TIP3   OH276561   6.771   0.612   3.470 -0.2947 -0.0987  0.1014
18357TIP3    H176562   6.721   0.540   3.432 -0.1913  0.4120 -1.0467
18357TIP3    H276563   6.832   0.638   3.401 -0.3200  1.0691  0.5000
18358TIP3   OH276564   2.569   0.825   1.000 -0.4005  0.2331  0.4740
18358TIP3    H176565   2.655   0.862   0.981 -0.7508  1.4002  1.0791
18358TIP3    H276566   2.584   0.767   1.075  0.3154 -1.6277 -1.0149
18359TIP3   OH276567   5.747   5.358   1.684 -0.4769  0.2229  1.0128
18359TIP3    H176568   5.694   5.292   1.640  0.2052  0.8428 -0.8367
18359TIP3    H276569   5.683   5.418   1.722 -1.1611  0.8160 -0.9516
18360TIP3   OH276570   0.444   2.194  10.624  0.6022 -0.7075  0.0616
18360TIP3    H176571   0.421   2.120  10.569  0.5719  1.2614 -2.8201
18360TIP3    H276572   0.529   2.223  10.591 -0.5391  2.0460 -0.7491
18361TIP3   OH276573   3.754   6.367  14.338  0.1990 -0.3681  0.4379
18361TIP3    H176574   3.681   6.356  14.278 -0.7433  0.4985  1.3795
18361TIP3    H276575   3.802   6.443  14.305 -2.2398  2.3179  2.5105
18362TIP3   OH276576   5.879   5.713  13.478 -0.0984 -0.3790 -0.5555
18362TIP3    H176577   5.936   5.741  13.549  0.1124 -0.5329 -0.6638
18362TIP3    H276578   5.823   5.789  13.460 -1.6992 -1.0342  1.2767
18363TIP3   OH276579   4.649   4.700  11.981 -0.1028  0.0653  0.8275
18363TIP3    H176580   4.741   4.674  11.993  0.2279  0.2775 -0.9990
18363TIP3    H276581   4.603   4.659  12.055  0.8501 -3.2390 -0.2327
18364TIP3   OH276582   1.117   1.883   5.316  0.0036  0.0155  0.2494
18364TIP3    H176583   1.044   1.944   5.325  0.5396  0.8342 -0.6703
18364TIP3    H276584   1.161   1.911   5.235 -0.2589 -2.1494 -0.7191
18365TIP3   OH276585   6.810   6.459   5.577  0.5887 -0.5715 -0.2168
18365TIP3    H176586   6.730   6.413   5.602  0.8483  0.0561  1.8989
18365TIP3    H276587   6.875   6.389   5.565  0.7082 -0.8884  1.9344
18366TIP3   OH276588   4.528   0.742  13.108  0.7859  0.3310 -0.3442
18366TIP3    H176589   4.590   0.795  13.158  1.7107  0.2464 -1.3697
18366TIP3    H276590   4.580   0.670  13.073  0.2056  0.4385 -1.4969
18367TIP3   OH276591   6.321   6.185  15.777 -0.1069  0.4491 -0.3881
18367TIP3    H176592   6.310   6.228  15.862  0.3820  2.9113 -1.4652
18367TIP3    H276593   6.415   6.188  15.760 -0.0407 -1.2762 -0.4395
18368TIP3   OH276594   5.175   6.678  14.846 -0.3094 -0.3905  0.3888
18368TIP3    H176595   5.125   6.627  14.910  0.1686 -1.1648  0.1548
18368TIP3    H276596   5.165   6.630  14.764  0.7509 -0.5163  0.3228
18369TIP3   OH276597   1.319   1.741   1.973  0.0526 -0.4275 -0.0320
18369TIP3    H176598   1.224   1.727   1.975 -0.1287  0.7460  0.4213
18369TIP3    H276599   1.335   1.808   2.039  0.8352  1.4297 -1.9825
18370TIP3   OH276600   6.188   0.524   6.819  0.7705  0.3594 -0.2193
18370TIP3    H176601   6.187   0.557   6.909  2.2039 -1.7390  0.6665
18370TIP3    H276602   6.279   0.533   6.791  0.2486  1.4069 -1.6774
18371TIP3   OH276603   6.586   3.053  14.073  0.5882  0.1486  0.3975
18371TIP3    H176604   6.635   3.106  14.135  0.4575  0.3070  0.3649
18371TIP3    H276605   6.603   3.092  13.988  0.1014  0.4405  0.4285
18372TIP3   OH276606   2.710   4.670  14.220  0.5853 -0.1643  0.3764
18372TIP3    H176607   2.717   4.614  14.142 -0.3906 -0.2339  0.3270
18372TIP3    H276608   2.632   4.723  14.204  1.6771  1.4695  0.2719
18373TIP3   OH276609   1.858   0.289  14.817  0.1034  0.0905  0.1653
18373TIP3    H176610   1.894   0.232  14.886  0.6437 -0.1784 -0.3332
18373TIP3    H276611   1.887   0.377  14.841  0.0306  0.0410  0.4441
18374TIP3   OH276612   6.503   2.853   4.944  0.1206  0.0813  0.2424
18374TIP3    H176613   6.563   2.879   4.874  1.5174  0.4636  1.5395
18374TIP3    H276614   6.417   2.884   4.914  0.7159  0.4317 -1.1854
18375TIP3   OH276615   4.886   1.482   1.112  0.1066  0.0863  0.5882
18375TIP3    H176616   4.874   1.448   1.024  0.7074 -2.2155  1.3437
18375TIP3    H276617   4.960   1.543   1.104 -0.3408  0.4951 -0.6164
18376TIP3   OH276618   6.379   6.797   5.657  0.1283  0.4292 -0.3800
18376TIP3    H176619   6.303   6.755   5.616 -1.2411  0.9133  1.5501
18376TIP3    H276620   6.422   6.726   5.705 -0.3641  0.5677  0.2824
18377TIP3   OH276621   0.203   4.205   3.200  0.2447  0.0107 -0.5129
18377TIP3    H176622   0.154   4.192   3.282  0.6217 -0.0319 -0.2929
18377TIP3    H276623   0.267   4.134   3.199 -1.4041 -1.5599 -2.0934
18378TIP3   OH276624   4.538   0.136   4.612 -0.1916  0.1193 -0.2290
18378TIP3    H176625   4.621   0.140   4.658 -0.4882 -0.5343  0.3874
18378TIP3    H276626   4.473   0.116   4.680 -0.6716 -0.6146 -0.8746
18379TIP3   OH276627   3.008   1.678  15.886  0.1079 -0.2925 -0.6899
18379TIP3    H176628   2.997   1.612  15.818 -0.1910  0.3208 -1.2538
18379TIP3    H276629   3.046   1.754  15.841 -1.8052  0.7952 -0.6078
18380TIP3   OH276630   5.317   1.039   0.719  0.4671  0.0689  0.0811
18380TIP3    H176631   5.387   0.974   0.730  0.2648 -0.3427 -0.9695
18380TIP3    H276632   5.248   1.010   0.778  1.2638  0.6302  1.3423
18381TIP3   OH276633   3.614   2.022   4.242 -0.2318 -0.0929  0.0842
18381TIP3    H176634   3.676   2.083   4.283  0.5335 -0.7309 -0.1049
18381TIP3    H276635   3.625   2.036   4.148  0.3610 -0.8999  0.0190
18382TIP3   OH276636   0.771   1.665   1.182  0.6127 -0.2901 -0.0814
18382TIP3    H176637   0.785   1.623   1.267  0.8287 -1.0213 -0.4717
18382TIP3    H276638   0.858   1.668   1.142  0.5843  0.4366 -0.1065
18383TIP3   OH276639   0.231   1.090  16.817  0.1022 -0.1640 -0.3278
18383TIP3    H176640   0.319   1.087  16.781 -0.2244 -0.3689 -1.1540
18383TIP3    H276641   0.234   1.036  16.895  1.1288  1.2646  0.6676
18384TIP3   OH276642   6.465   0.702   3.779  0.4822 -0.2585 -0.4535
18384TIP3    H176643   6.378   0.670   3.807 -0.4434 -0.6627 -3.4384
18384TIP3    H276644   6.516   0.622   3.766 -0.0411 -0.3199 -2.5098
18385TIP3   OH276645   4.374   3.323   4.780  0.3083  0.1140  0.1811
18385TIP3    H176646   4.427   3.368   4.714 -0.7098  1.2071  0.0880
18385TIP3    H276647   4.421   3.335   4.862  0.4609  0.6579  0.0179
18386TIP3   OH276648   3.435   4.476   2.804  0.1578 -0.0358 -0.3444
18386TIP3    H176649   3.360   4.535   2.794  1.1015  1.3424  0.4019
18386TIP3    H276650   3.416   4.427   2.885 -0.4651 -0.5301 -0.7800
18387TIP3   OH276651   4.862   6.521   1.230  0.1615  0.1633  0.1474
18387TIP3    H176652   4.905   6.537   1.145  0.7220  3.2769  0.8739
18387TIP3    H276653   4.933   6.526   1.294 -0.7977  2.9468  1.1583
18388TIP3   OH276654   1.165   3.768   0.080  0.0661  0.3592 -0.5300
18388TIP3    H176655   1.073   3.742   0.073 -0.5232  2.4322 -1.1883
18388TIP3    H276656   1.190   3.744   0.169 -1.5788  1.0654  0.1653
18389TIP3   OH276657   5.643   3.508  13.492 -0.0733  0.7527 -0.1515
18389TIP3    H176658   5.689   3.503  13.576  1.1524 -1.6882 -0.8861
18389TIP3    H276659   5.579   3.437  13.495  1.2878 -0.6516 -1.9435
18390TIP3   OH276660   0.470   3.828  11.831 -0.1894  0.4544  0.1756
18390TIP3    H176661   0.534   3.757  11.841 -1.0138 -0.2982  0.2061
18390TIP3    H276662   0.397   3.802  11.887 -1.2722  0.4013 -1.2198
18391TIP3   OH276663   6.604   6.224  16.782  0.2985  0.7423  0.4447
18391TIP3    H176664   6.654   6.228  16.700  0.7428 -0.6455  0.6163
18391TIP3    H276665   6.607   6.313  16.816  0.2773  1.2947 -0.9480
18392TIP3   OH276666   1.004   1.249   2.102 -0.4676  0.9034 -0.3564
18392TIP3    H176667   1.042   1.303   2.171 -0.2624 -1.7403  1.7297
18392TIP3    H276668   1.070   1.249   2.033  0.4587  1.5551  0.4988
18393TIP3   OH276669   1.594   0.722  16.644  0.7708  0.3459  0.5028
18393TIP3    H176670   1.529   0.694  16.580  1.4359  1.0043 -0.5064
18393TIP3    H276671   1.592   0.655  16.713 -0.7160  0.1969  0.3289
18394TIP3   OH276672   0.922   3.833  13.260 -0.2610  0.1393 -0.1218
18394TIP3    H176673   0.963   3.912  13.297 -0.5846  0.4135 -0.3444
18394TIP3    H276674   0.929   3.845  13.165 -0.6362  0.0690 -0.1572
18395TIP3   OH276675   3.526   0.584  11.306 -0.9192 -0.3305 -0.2748
18395TIP3    H176676   3.459   0.595  11.238 -1.1441 -1.5918 -0.2784
18395TIP3    H276677   3.588   0.522  11.268  0.1290  0.5934 -0.1560
18396TIP3   OH276678   2.655   0.246  12.791 -0.4742 -0.2392  0.1371
18396TIP3    H176679   2.680   0.154  12.803 -1.2101 -0.4492  0.0878
18396TIP3    H276680   2.569   0.252  12.832 -0.5160  0.3859 -0.0451
18397TIP3   OH276681   5.877   4.262  13.821  0.5713  0.4365  0.2488
18397TIP3    H176682   5.928   4.342  13.804  1.3060  0.3479  1.8543
18397TIP3    H276683   5.874   4.256  13.916 -2.1217  0.1962  0.2323
18398TIP3   OH276684   0.433   2.877  14.309 -0.3295  0.4166 -0.0215
18398TIP3    H176685   0.476   2.823  14.376 -0.0545  2.8075  1.8455
18398TIP3    H276686   0.342   2.882  14.337 -0.5701  0.1858 -0.7285
18399TIP3   OH276687   6.594   6.424   0.187  0.7539  0.6410  0.5923
18399TIP3    H176688   6.620   6.511   0.219  0.8951  0.6932  0.3407
18399TIP3    H276689   6.647   6.411   0.108  0.0422  0.7368  0.0873
18400TIP3   OH276690   3.925   4.811  12.112  0.4446  0.7492  0.0026
18400TIP3    H176691   3.986   4.745  12.079 -0.5993 -0.0711 -0.3467
18400TIP3    H276692   3.933   4.885  12.052  1.2590  0.7559  0.1072
18401TIP3   OH276693   2.891   2.887  11.424  0.2693 -0.0107 -0.5378
18401TIP3    H176694   2.920   2.931  11.344 -1.6952  1.3193 -0.6140
18401TIP3    H276695   2.927   2.940  11.495  1.1663 -0.5916 -0.5574
18402TIP3   OH276696   2.124   5.362   2.668  0.2249  0.1900  0.0508
18402TIP3    H176697   2.061   5.414   2.618 -0.8291 -0.8191  0.2657
18402TIP3    H276698   2.180   5.426   2.711  0.2205  1.0988 -1.2467
18403TIP3   OH276699   6.125   0.744  13.860  0.6864  0.4855 -0.2429
18403TIP3    H176700   6.188   0.745  13.933  1.9714 -0.2142 -1.2939
18403TIP3    H276701   6.125   0.654  13.830 -3.2345 -0.3717  1.6415
18404TIP3   OH276702   2.385   5.836  12.281 -0.3748  0.3084 -0.8281
18404TIP3    H176703   2.354   5.753  12.247 -0.5183 -0.7606  1.6762
18404TIP3    H276704   2.352   5.839  12.371  3.6920  0.7047  0.8861
18405TIP3   OH276705   1.562   2.007   4.850  0.6228 -0.2965 -0.5295
18405TIP3    H176706   1.533   2.034   4.763 -0.8151  0.1374  0.0444
18405TIP3    H276707   1.539   1.914   4.855  0.4711 -0.2602 -0.5341
18406TIP3   OH276708   2.061   2.459  15.703  0.3931  0.3304  0.0329
18406TIP3    H176709   2.153   2.444  15.683  0.1414  0.4937 -1.3907
18406TIP3    H276710   2.017   2.377  15.679  0.2855 -0.1763  1.8109
18407TIP3   OH276711   3.458   5.076   2.275 -0.3865  0.2592 -0.0931
18407TIP3    H176712   3.486   5.020   2.348  4.4107 -0.3342 -2.0202
18407TIP3    H276713   3.484   5.164   2.301 -1.7037  0.5783  0.1887
18408TIP3   OH276714   0.639   2.755   0.782 -0.5363  0.0252  0.1534
18408TIP3    H176715   0.651   2.729   0.691  1.1399  1.0581  0.0265
18408TIP3    H276716   0.591   2.683   0.822  0.3009 -1.2938 -1.1201
18409TIP3   OH276717   2.505   2.351   2.666 -0.2931  0.5073 -0.1233
18409TIP3    H176718   2.542   2.349   2.754  1.0243  1.2899 -0.6290
18409TIP3    H276719   2.474   2.262   2.652  4.1601 -1.2171 -0.7308
18410TIP3   OH276720   0.488   3.347  15.421  1.2154  0.9174  0.1667
18410TIP3    H176721   0.462   3.271  15.369  0.8171  0.0422  1.6046
18410TIP3    H276722   0.561   3.316  15.474  0.0431  1.0373  1.9265
18411TIP3   OH276723   5.743   3.992   4.194  0.3241  0.2732  0.1924
18411TIP3    H176724   5.803   4.041   4.138  1.2058 -1.8443 -0.8247
18411TIP3    H276725   5.657   4.007   4.156  0.5041  1.3329  0.1688
18412TIP3   OH276726   4.687   0.490   2.202  0.1366 -0.2010  0.1017
18412TIP3    H176727   4.661   0.575   2.166  0.5578 -0.2054 -0.2228
18412TIP3    H276728   4.778   0.479   2.174 -0.1772 -1.1426 -0.5826
18413TIP3   OH276729   3.635   1.614   0.208  0.5884  0.5815  0.1684
18413TIP3    H176730   3.685   1.553   0.153 -0.3769  0.4869 -0.6231
18413TIP3    H276731   3.555   1.566   0.230  0.1437  1.3013  0.1303
18414TIP3   OH276732   1.725   6.323  13.001  0.0330  0.0231 -0.0807
18414TIP3    H176733   1.731   6.401  13.055  2.1862  1.0090 -1.5571
18414TIP3    H276734   1.685   6.353  12.919 -1.2238 -0.9660  0.1358
18415TIP3   OH276735   0.397   1.582  12.308 -0.4441 -0.0410  0.7023
18415TIP3    H176736   0.440   1.576  12.223  1.8411  0.5877  1.7438
18415TIP3    H276737   0.304   1.591  12.287 -0.2895 -2.5464 -1.6518
18416TIP3   OH276738   5.247   1.897  16.670 -0.2548 -0.9450 -0.2153
18416TIP3    H176739   5.260   1.991  16.674 -1.1247 -0.6825 -2.2027
18416TIP3    H276740   5.262   1.866  16.760 -0.1544  1.0924  0.5137
18417TIP3   OH276741   1.252   1.834   6.038 -0.4102 -0.5798  0.5285
18417TIP3    H176742   1.296   1.749   6.034  3.0401  1.0643 -0.6849
18417TIP3    H276743   1.249   1.856   6.131 -2.0121 -2.2251  0.9286
18418TIP3   OH276744   3.876   1.848   5.315  0.4085 -0.4595 -0.2680
18418TIP3    H176745   3.844   1.763   5.284 -1.3145  0.4880 -1.1699
18418TIP3    H276746   3.799   1.891   5.351  1.1963  0.8791 -0.1284
18419TIP3   OH276747   4.483   6.738   5.102  0.0365  0.4875  0.2886
18419TIP3    H176748   4.570   6.761   5.070  0.7631 -0.6788  1.3539
18419TIP3    H276749   4.466   6.800   5.173 -0.9607  2.1109 -1.2484
18420TIP3   OH276750   1.842   2.639  13.702  0.0285  0.3534  0.1190
18420TIP3    H176751   1.794   2.713  13.665  0.3755  0.8192  0.5846
18420TIP3    H276752   1.934   2.660  13.685  0.1620  0.3524  0.8371
18421TIP3   OH276753   0.022   3.280   2.369  0.0950 -0.2650 -0.0581
18421TIP3    H176754   0.032   3.247   2.458  0.1166  0.0605  0.0629
18421TIP3    H276755  -0.071   3.268   2.349 -0.2980  1.2891  0.6735
18422TIP3   OH276756   1.159   2.193  11.451  0.5664  0.0142  0.5050
18422TIP3    H176757   1.182   2.113  11.498 -0.7137 -0.2211  0.7780
18422TIP3    H276758   1.202   2.184  11.366  0.1100 -1.1610  0.3838
18423TIP3   OH276759   0.715   2.690   6.520  0.5763  0.1880  0.0483
18423TIP3    H176760   0.697   2.728   6.605  0.1711 -0.9333  0.4768
18423TIP3    H276761   0.634   2.701   6.470  1.2789  2.1809 -0.7329
18424TIP3   OH276762   6.584   5.430   3.917  0.4286 -0.1008  0.3546
18424TIP3    H176763   6.565   5.381   3.997  1.2788 -0.1512  0.5348
18424TIP3    H276764   6.572   5.521   3.941 -1.1739 -0.1948  0.0149
18425TIP3   OH276765   2.753   4.586   1.399  0.6880 -0.8672  0.3237
18425TIP3    H176766   2.678   4.556   1.347 -0.8831  0.2668  1.8050
18425TIP3    H276767   2.781   4.508   1.447 -0.3665 -1.0300  0.6986
18426TIP3   OH276768   4.139   1.837   0.792  0.5385  0.1204 -0.3276
18426TIP3    H176769   4.082   1.760   0.789 -0.7837  1.0616  0.0506
18426TIP3    H276770   4.227   1.800   0.801 -0.0561 -1.3511 -0.2033
18427TIP3   OH276771   3.082   4.313  15.016  0.0389  0.0850 -0.0088
18427TIP3    H176772   3.063   4.360  14.934  2.2493  1.1431  0.0175
18427TIP3    H276773   3.101   4.223  14.987  1.4149  0.5877 -0.7960
18428TIP3   OH276774   5.424   0.283   1.430 -0.4572  0.3021 -0.0936
18428TIP3    H176775   5.437   0.361   1.375  1.4012  0.7807  0.9528
18428TIP3    H276776   5.336   0.295   1.467 -0.5720  1.4483 -0.6805
18429TIP3   OH276777   0.342   4.197   0.019 -0.0824  0.4160  0.0599
18429TIP3    H176778   0.420   4.163  -0.025 -0.3761 -0.0918 -0.0764
18429TIP3    H276779   0.362   4.191   0.112 -0.3647 -0.7237  0.0589
18430TIP3   OH276780   1.491   3.960  16.974  0.3541 -0.4422 -0.1709
18430TIP3    H176781   1.521   4.047  16.947  2.7172 -0.9960  0.4382
18430TIP3    H276782   1.485   3.966  17.070 -1.1137 -0.4921 -0.2474
18431TIP3   OH276783   5.766   5.500   5.413  0.3336 -0.2142 -0.5971
18431TIP3    H176784   5.786   5.589   5.441 -2.7727  0.1083  0.9937
18431TIP3    H276785   5.851   5.457   5.406  1.7676  1.9051  2.0117
18432TIP3   OH276786   2.452   4.907  13.629  0.5081 -0.6770  0.0434
18432TIP3    H176787   2.505   4.966  13.683  0.0010 -0.3578  0.1958
18432TIP3    H276788   2.446   4.951  13.544  0.4846 -0.7134  0.0261
18433TIP3   OH276789   3.520   4.235  15.050 -0.1272 -0.0709 -0.8859
18433TIP3    H176790   3.535   4.193  15.135  2.1260  1.4963 -0.4229
18433TIP3    H276791   3.532   4.164  14.987  1.0152 -0.7082 -0.0023
18434TIP3   OH276792   3.876   2.652   5.814 -0.2158 -0.6175  0.3397
18434TIP3    H176793   3.947   2.589   5.810 -0.0369 -0.5899  2.2596
18434TIP3    H276794   3.812   2.613   5.874 -0.3096  0.7837  1.2131
18435TIP3   OH276795   4.266   5.413  16.138 -0.1969  0.2487  0.8654
18435TIP3    H176796   4.210   5.480  16.099  0.0589  0.4736  0.8823
18435TIP3    H276797   4.337   5.400  16.076 -0.5131 -0.3777  0.6255
18436TIP3   OH276798   0.344   1.677   4.424  0.2075 -0.0595 -0.2071
18436TIP3    H176799   0.296   1.661   4.505 -1.3788  1.4316 -0.7815
18436TIP3    H276800   0.314   1.609   4.364 -0.5381  0.3283 -0.2851
18437TIP3   OH276801   0.365   6.069  13.528  0.7567  0.0851  0.2280
18437TIP3    H176802   0.318   6.065  13.445  1.5709  0.7835 -0.2891
18437TIP3    H276803   0.458   6.063  13.503  0.9869 -0.4297  1.1442
18438TIP3   OH276804   6.448   1.164   0.683 -0.1979 -0.7268  0.2166
18438TIP3    H176805   6.451   1.141   0.590 -2.2821  0.5314 -0.2508
18438TIP3    H276806   6.500   1.245   0.689 -1.8819  0.4740 -0.3846
18439TIP3   OH276807   0.995   4.662   0.966  0.8287  0.1539  0.1775
18439TIP3    H176808   1.019   4.707   1.046  0.9059  3.1558 -1.3914
18439TIP3    H276809   0.903   4.638   0.978  0.8138  0.6548  1.1036
18440TIP3   OH276810   4.957   5.839   0.156 -0.4386  0.0003  0.1603
18440TIP3    H176811   4.873   5.794   0.166 -1.3087  1.5805  0.3555
18440TIP3    H276812   4.936   5.917   0.106  1.3452 -0.6587 -1.7376
18441TIP3   OH276813   5.008   1.837   5.499 -0.1220 -0.6597 -0.0027
18441TIP3    H176814   4.949   1.910   5.482 -0.0741 -0.4056  0.9212
18441TIP3    H276815   5.041   1.813   5.412 -0.7757 -0.1294 -0.4059
18442TIP3   OH276816   2.180   3.142   5.971  0.6287  0.3823  0.3241
18442TIP3    H176817   2.241   3.208   5.936 -1.0774  1.8486 -0.0659
18442TIP3    H276818   2.173   3.077   5.901 -0.4741  1.7543 -0.9017
18443TIP3   OH276819   6.597   3.604  17.059 -0.3996  0.2036 -0.0925
18443TIP3    H176820   6.591   3.509  17.049 -0.9562  0.2388 -0.1125
18443TIP3    H276821   6.674   3.617  17.115  0.1156 -0.2163 -0.6937
18444TIP3   OH276822   2.909   1.252   2.492  0.5526 -0.3970  0.3444
18444TIP3    H176823   2.839   1.313   2.517 -0.6839 -2.2027  1.5511
18444TIP3    H276824   2.984   1.280   2.543  0.8066  1.6267 -1.0306
18445TIP3   OH276825   6.059   0.016   1.675  0.0627 -0.0344  0.5194
18445TIP3    H176826   6.067  -0.071   1.714  0.8831  0.6568  2.0068
18445TIP3    H276827   6.138   0.025   1.621 -0.6698 -0.6882 -0.6823
18446TIP3   OH276828   6.059   4.527   0.293  0.2927  0.2576 -0.4178
18446TIP3    H176829   6.017   4.461   0.348 -1.1221  1.9538  0.6287
18446TIP3    H276830   6.016   4.519   0.208 -0.6922  0.5806  0.0401
18447TIP3   OH276831   4.720   0.659   2.611 -0.5699  0.6365 -0.0707
18447TIP3    H176832   4.742   0.648   2.703  0.3326 -1.0340 -0.4285
18447TIP3    H276833   4.651   0.724   2.610  0.1126  1.4511  1.6881
18448TIP3   OH276834   3.576   2.219  13.094 -0.3195 -0.1146 -0.5067
18448TIP3    H176835   3.549   2.130  13.116  0.1309 -0.1975 -0.2641
18448TIP3    H276836   3.592   2.217  12.999 -0.6409 -0.1980 -0.5612
18449TIP3   OH276837   4.903   0.712  16.634 -0.0965  0.2125  0.2423
18449TIP3    H176838   4.920   0.620  16.654  1.8139  0.5777  0.4102
18449TIP3    H276839   4.880   0.712  16.541  1.5746 -0.2687 -0.2086
18450TIP3   OH276840   1.749   0.855  11.164  0.3090 -0.4410 -0.0118
18450TIP3    H176841   1.834   0.868  11.121 -0.3549  1.9244 -0.7446
18450TIP3    H276842   1.771   0.826  11.252  1.7579 -3.4258 -1.2022
18451TIP3   OH276843   4.091   3.275   2.235 -0.3987  0.3090  0.2597
18451TIP3    H176844   4.165   3.336   2.231  0.7830 -0.9844  1.2601
18451TIP3    H276845   4.065   3.275   2.327  0.0629 -1.1439  0.4212
18452TIP3   OH276846   2.250   3.961  11.498 -0.4198 -0.3899 -0.5472
18452TIP3    H176847   2.210   3.875  11.510 -0.7361 -0.3126 -1.0030
18452TIP3    H276848   2.178   4.016  11.466 -0.0496 -0.1404 -0.9518
18453TIP3   OH276849   3.448   6.668   5.640  0.6545  0.1662  0.4745
18453TIP3    H176850   3.438   6.594   5.580  0.1501 -1.3962  2.3824
18453TIP3    H276851   3.418   6.634   5.725 -0.1842  2.7595  1.2990
18454TIP3   OH276852   1.304   3.771   0.386  0.2081 -0.0936 -0.1385
18454TIP3    H176853   1.250   3.693   0.370  2.4991 -2.1112  1.1049
18454TIP3    H276854   1.381   3.758   0.331  0.9039  1.0020  0.5437
18455TIP3   OH276855   3.980   5.426  14.768 -0.2015  0.5409 -0.1967
18455TIP3    H176856   3.988   5.454  14.677  0.8372 -1.1815 -0.6965
18455TIP3    H276857   4.052   5.469  14.813  0.5710 -0.2071 -0.6700
18456TIP3   OH276858   3.124   3.391  14.662 -0.7199  0.5360 -0.0297
18456TIP3    H176859   3.151   3.434  14.580 -1.4326  0.0277 -0.5465
18456TIP3    H276860   3.068   3.319  14.633 -0.1598 -0.2730  0.8635
18457TIP3   OH276861   2.421   0.122   0.121 -0.0375 -0.1623  0.3983
18457TIP3    H176862   2.325   0.122   0.130  0.0447 -0.5515  1.3560
18457TIP3    H276863   2.451   0.189   0.181  0.3200 -0.3245  0.4028
18458TIP3   OH276864   1.749   4.117   0.670  0.4284 -0.4341  0.4044
18458TIP3    H176865   1.716   4.156   0.751 -0.2046  0.0156 -0.0603
18458TIP3    H276866   1.761   4.191   0.611  0.8970 -0.7569  0.0869
18459TIP3   OH276867   4.203   6.511  11.439  0.2818  0.1465 -0.7272
18459TIP3    H176868   4.151   6.585  11.470  0.7930  1.1119 -2.0540
18459TIP3    H276869   4.150   6.471  11.370 -0.4998 -1.4868  0.7416
18460TIP3   OH276870   5.284   3.242  13.178 -0.0790 -0.6254  0.2174
18460TIP3    H176871   5.294   3.187  13.100  1.1983 -1.0165  0.6427
18460TIP3    H276872   5.206   3.208  13.221  1.1676 -2.7394  0.9373
18461TIP3   OH276873   5.714   6.447  14.012 -0.2016  0.0970 -0.0831
18461TIP3    H176874   5.688   6.357  13.993  0.2478 -0.1204  0.3242
18461TIP3    H276875   5.776   6.440  14.084 -0.8885  0.8087  0.5890
18462TIP3   OH276876   6.284   3.089  12.603 -0.0149  0.3446 -0.1285
18462TIP3    H176877   6.347   3.156  12.630 -0.0972  1.3229 -2.1563
18462TIP3    H276878   6.331   3.039  12.536 -0.3125 -1.0099  0.6521
18463TIP3   OH276879   5.143   2.115   2.014  0.3706 -0.2234  0.1935
18463TIP3    H176880   5.147   2.207   1.991  0.0581 -0.2537  0.0193
18463TIP3    H276881   5.228   2.096   2.054  1.3143 -0.4110 -1.7912
18464TIP3   OH276882   1.444   5.974  15.847 -0.2864  0.6789  0.4908
18464TIP3    H176883   1.539   5.980  15.845 -0.2733  0.3320 -1.2348
18464TIP3    H276884   1.424   5.943  15.936  1.4404 -2.9342 -0.2036
18465TIP3   OH276885   0.004   3.683  13.625  0.4939 -0.0563 -0.4816
18465TIP3    H176886   0.038   3.624  13.691 -0.2722 -0.1108 -0.1199
18465TIP3    H276887   0.076   3.695  13.563  1.3464  0.2916  0.5450
18466TIP3   OH276888   3.556   4.712   6.065 -0.0806 -0.0606 -0.4007
18466TIP3    H176889   3.644   4.746   6.083 -0.1008 -0.7292  1.0103
18466TIP3    H276890   3.568   4.618   6.056 -0.3432  0.0375 -2.4063
18467TIP3   OH276891   1.943   5.079  14.978 -0.7950 -0.3550  0.5795
18467TIP3    H176892   1.881   5.135  15.024 -0.3604  0.6200  0.0161
18467TIP3    H276893   2.024   5.131  14.975 -0.0792 -1.4259  0.9266
18468TIP3   OH276894   2.818   3.464  15.383 -0.1982 -0.0191 -0.7741
18468TIP3    H176895   2.818   3.514  15.301 -0.4335  0.9109 -0.2321
18468TIP3    H276896   2.734   3.485  15.423  0.2901  0.2790  0.1251
18469TIP3   OH276897   4.032   0.667   4.272 -0.3782  0.8663  0.9514
18469TIP3    H176898   4.032   0.587   4.325 -1.1303 -0.2846 -0.7043
18469TIP3    H276899   4.124   0.692   4.267 -0.2151  0.5898  2.1764
18470TIP3   OH276900   2.372   6.699  12.706  0.3042 -0.0135 -0.4048
18470TIP3    H176901   2.310   6.753  12.756  0.6454 -1.1917  1.3977
18470TIP3    H276902   2.320   6.627  12.672  0.1561  0.5528 -1.3904
18471TIP3   OH276903   0.748   6.609   5.764  0.0753 -0.6574 -0.0510
18471TIP3    H176904   0.735   6.697   5.730 -1.6380 -1.3801 -1.4712
18471TIP3    H276905   0.828   6.578   5.722 -0.0980 -0.2747 -0.6764
18472TIP3   OH276906   4.485   3.901   5.501 -0.0845  0.2774  0.2556
18472TIP3    H176907   4.562   3.955   5.519  0.7919 -1.3903  1.8932
18472TIP3    H276908   4.437   3.899   5.584 -0.2227 -1.2263  0.1713
18473TIP3   OH276909   6.711   0.512  14.834 -0.3520 -0.1773 -0.7798
18473TIP3    H176910   6.634   0.500  14.889 -0.0868 -0.0017 -0.3664
18473TIP3    H276911   6.777   0.456  14.873  0.1853  0.8049 -0.2315
18474TIP3   OH276912   5.861   4.373  13.414 -0.9402  0.3562 -0.1834
18474TIP3    H176913   5.928   4.322  13.368 -1.0243 -0.5489  0.6621
18474TIP3    H276914   5.782   4.362  13.361 -1.3236 -1.5992  0.7013
18475TIP3   OH276915   5.070   5.805  13.822 -0.3840 -0.6024 -0.2793
18475TIP3    H176916   5.084   5.889  13.867  1.1288 -1.3559  0.7338
18475TIP3    H276917   5.000   5.763  13.872 -0.0197 -0.6279  0.2181
18476TIP3   OH276918   1.766   2.238   3.202 -0.3012  0.1906  0.9564
18476TIP3    H176919   1.730   2.308   3.147  0.3888  0.0917  0.3751
18476TIP3    H276920   1.776   2.279   3.288  0.0382  0.7920  0.6350
18477TIP3   OH276921   3.049   3.303   2.941  0.0278 -0.0403 -0.3575
18477TIP3    H176922   3.007   3.264   3.017  1.8922  1.5652  1.6263
18477TIP3    H276923   2.993   3.377   2.917 -0.3339 -0.2886 -0.2842
18478TIP3   OH276924   4.566   5.319  13.636 -0.0682 -0.4157  0.0797
18478TIP3    H176925   4.523   5.338  13.719 -0.1700 -0.4695  0.0401
18478TIP3    H276926   4.540   5.392  13.579 -0.7314 -0.8444 -0.1743
18479TIP3   OH276927   1.706   1.090  11.428 -0.3040 -0.4922  0.2140
18479TIP3    H176928   1.703   1.120  11.519  0.9277 -1.8394  0.7405
18479TIP3    H276929   1.774   1.022  11.428 -1.7058 -1.9585 -1.2840
18480TIP3   OH276930   4.689   1.052  10.999 -0.3477  0.1697  0.3007
18480TIP3    H176931   4.703   0.987  10.931 -0.5373  2.1861 -1.7669
18480TIP3    H276932   4.598   1.039  11.027  0.2057 -1.7249  1.4350
18481TIP3   OH276933   1.135   0.622   2.553  0.0299 -0.0035  0.3749
18481TIP3    H176934   1.092   0.664   2.478  0.0099  1.3351  1.1145
18481TIP3    H276935   1.115   0.679   2.627  0.9904 -0.7127  1.1970
18482TIP3   OH276936   3.304   1.681   3.851 -0.5744  0.3442  0.3535
18482TIP3    H176937   3.357   1.651   3.777  0.1077  0.4575  0.7865
18482TIP3    H276938   3.364   1.677   3.926 -1.0897  0.7869  0.7917
18483TIP3   OH276939   2.230   3.813   6.739  0.1696 -0.2783  0.1506
18483TIP3    H176940   2.298   3.746   6.742  0.8301  0.4090  1.2116
18483TIP3    H276941   2.250   3.871   6.812 -0.1524  1.3232 -0.9769
18484TIP3   OH276942   3.130   6.576   5.145 -0.0272  0.5226 -1.0198
18484TIP3    H176943   3.063   6.567   5.213  0.5905  0.4575 -0.4065
18484TIP3    H276944   3.087   6.545   5.065 -0.8682  0.9073 -0.7291
18485TIP3   OH276945   1.595   5.166   1.026  0.1987  0.1587 -0.7475
18485TIP3    H176946   1.579   5.209   1.111  0.7265 -0.1133 -0.5071
18485TIP3    H276947   1.539   5.214   0.965  1.4592  1.8416 -0.6720
18486TIP3   OH276948   6.728   6.526   5.285  0.2153  0.4210 -0.4709
18486TIP3    H176949   6.714   6.440   5.325 -3.5763 -0.1740 -2.5822
18486TIP3    H276950   6.699   6.589   5.351  0.8955 -0.0376  0.2803
18487TIP3   OH276951   3.869   6.060   1.684 -0.2470 -0.0524  0.2034
18487TIP3    H176952   3.781   6.024   1.693  0.8281 -2.3813  2.9341
18487TIP3    H276953   3.928   5.985   1.696  2.2225  1.0387 -3.4043
18488TIP3   OH276954   4.306   4.800   2.196 -1.1000 -0.0763 -0.0149
18488TIP3    H176955   4.298   4.895   2.205  3.2340  0.4780 -0.0489
18488TIP3    H276956   4.366   4.775   2.266 -1.3564 -2.6617 -0.6364
18489TIP3   OH276957   3.609   1.967   0.628  0.2077  0.3367 -0.2654
18489TIP3    H176958   3.566   1.999   0.707 -0.5092 -1.3898  0.0945
18489TIP3    H276959   3.569   1.882   0.611  0.9668  0.2720 -2.0024
18490TIP3   OH276960   2.516   5.705  17.234 -0.7373  0.3318 -0.2165
18490TIP3    H176961   2.611   5.717  17.230 -0.4935 -1.2040  0.1188
18490TIP3    H276962   2.480   5.786  17.200  0.6742  1.5745  1.1116
18491TIP3   OH276963   5.859   6.309   0.256 -0.4270 -0.4689 -0.5727
18491TIP3    H176964   5.823   6.283   0.341 -0.7853 -0.8807 -0.8522
18491TIP3    H276965   5.951   6.284   0.261 -0.7844 -1.8798 -0.8746
18492TIP3   OH276966   4.658   5.134  14.734 -0.1882 -0.0425  0.1472
18492TIP3    H176967   4.629   5.200  14.670  2.5201 -1.4189 -2.7720
18492TIP3    H276968   4.743   5.165  14.763 -0.0610 -0.9606  0.7916
18493TIP3   OH276969   1.293   2.711   6.765  0.2830  0.3342  0.9608
18493TIP3    H176970   1.316   2.801   6.789 -0.7111  0.6071  0.9066
18493TIP3    H276971   1.202   2.701   6.791  0.5214 -0.8262  1.4118
18494TIP3   OH276972   3.627   1.658  12.978  0.3064  0.6921  0.5275
18494TIP3    H176973   3.627   1.744  12.937  1.2575  0.0737 -0.8404
18494TIP3    H276974   3.588   1.599  12.913 -1.6446  0.2785  1.9712
18495TIP3   OH276975   6.469   3.306  11.606  0.1704 -0.6032  0.9959
18495TIP3    H176976   6.483   3.277  11.515  0.4779  0.1840  0.7883
18495TIP3    H276977   6.556   3.304  11.645  0.2556  0.4108  0.8682
18496TIP3   OH276978   0.463   3.052   0.108 -0.4960  0.1332  0.0138
18496TIP3    H176979   0.436   3.143   0.113 -1.0146 -0.0685  1.7649
18496TIP3    H276980   0.460   3.030   0.015 -1.8603  1.4592 -0.2832
18497TIP3   OH276981   2.792   4.066  15.626  0.3543  0.4311  0.1974
18497TIP3    H176982   2.728   4.137  15.634 -1.5665 -1.3483  1.3504
18497TIP3    H276983   2.764   4.018  15.547  1.2256  0.5264 -0.1777
18498TIP3   OH276984   2.355   1.927  14.550 -0.6105 -0.0638 -0.0069
18498TIP3    H176985   2.335   1.871  14.476  0.7310 -1.7501  0.8383
18498TIP3    H276986   2.444   1.902  14.576 -0.6012  1.2964  1.4499
18499TIP3   OH276987   3.689   5.004  16.205 -0.0637  0.1783 -0.2401
18499TIP3    H176988   3.737   5.070  16.156  1.5774  0.6773  1.8665
18499TIP3    H276989   3.714   4.921  16.164  0.8806  0.6073 -0.5653
18500TIP3   OH276990   3.824   0.308   6.255 -0.1284 -0.6334 -0.0578
18500TIP3    H176991   3.747   0.306   6.312  1.2689 -1.6496  1.9193
18500TIP3    H276992   3.843   0.216   6.236  1.6621 -0.5720  1.1125
18501TIP3   OH276993   3.344   0.787   3.688 -0.2974 -0.0338 -0.3604
18501TIP3    H176994   3.297   0.863   3.723 -0.7141 -0.0695 -0.8412
18501TIP3    H276995   3.282   0.746   3.628 -0.1195 -0.8207 -0.0204
18502TIP3   OH276996   3.602   6.551  12.646  0.2764  0.1695  0.1092
18502TIP3    H176997   3.604   6.491  12.720 -4.1975  0.0297  0.4249
18502TIP3    H276998   3.609   6.638  12.685 -0.7835  0.0471  0.6209
18503TIP3   OH276999   4.508   2.882   1.426 -0.2658 -0.5352  0.0156
18503TIP3    H177000   4.420   2.847   1.412 -0.6815  0.2281  0.6211
18503TIP3    H277001   4.506   2.969   1.387  0.6419 -1.0061 -1.1365
18504TIP3   OH277002   5.151   5.764  13.565  0.6606  0.9336  0.2001
18504TIP3    H177003   5.247   5.759  13.571  0.6570 -0.5556 -0.4631
18504TIP3    H277004   5.123   5.772  13.656  1.3801 -0.0554  0.5336
18505TIP3   OH277005   5.551   5.036  14.004 -0.5173 -0.2563 -0.2461
18505TIP3    H177006   5.608   4.959  13.994 -1.9515 -1.4646  0.4473
18505TIP3    H277007   5.599   5.094  14.062 -0.2939 -1.5963  0.9608
18506TIP3   OH277008   5.576   5.709  14.811  0.5396 -0.1285  0.1321
18506TIP3    H177009   5.659   5.711  14.860  0.2774  0.2568  0.5625
18506TIP3    H277010   5.592   5.646  14.741  0.9056 -0.7280  0.7403
18507TIP3   OH277011   5.572   6.082   1.905 -0.8519  0.1812  0.0325
18507TIP3    H177012   5.495   6.084   1.849 -1.1560 -0.0454  0.4450
18507TIP3    H277013   5.610   5.996   1.891  0.4386  0.9490 -1.6534
18508TIP3   OH277014   6.143   5.505   2.467  0.1037 -0.9408  0.0182
18508TIP3    H177015   6.237   5.489   2.476 -0.3140 -3.2512  0.8943
18508TIP3    H277016   6.106   5.478   2.552 -1.4832 -1.2121 -0.7242
18509TIP3   OH277017   6.459   4.227  12.562 -0.5149  0.4631 -0.3827
18509TIP3    H177018   6.508   4.307  12.546  0.2529  0.4462  1.5779
18509TIP3    H277019   6.380   4.255  12.607 -2.5034  0.4938 -3.5783
18510TIP3   OH277020   5.353   1.584   4.848  0.5366  0.2524  0.4280
18510TIP3    H177021   5.281   1.646   4.860 -0.1053 -0.3432 -0.2464
18510TIP3    H277022   5.346   1.524   4.922  0.2478  0.1101  0.2860
18511TIP3   OH277023   3.643   5.139  13.224 -0.3852 -0.3537 -0.2742
18511TIP3    H177024   3.646   5.050  13.259 -1.3654 -0.1389  0.3780
18511TIP3    H277025   3.679   5.130  13.135 -0.9195 -1.4852 -0.3986
18512TIP3   OH277026   4.195   4.506  12.744  0.8556 -0.2201  0.2037
18512TIP3    H177027   4.232   4.418  12.747 -0.2220 -0.6813  0.2182
18512TIP3    H277028   4.105   4.494  12.713  0.6773  0.8671  0.2520
18513TIP3   OH277029   4.930   3.535   1.006 -0.1899 -0.1828  0.0297
18513TIP3    H177030   4.974   3.454   1.031  0.4929 -0.3005 -1.4505
18513TIP3    H277031   4.844   3.508   0.975 -0.3370 -0.2289  0.4730
18514TIP3   OH277032   2.317   2.610  11.066 -0.7783  0.5008  0.3754
18514TIP3    H177033   2.307   2.639  10.975 -4.3885  1.6433  0.9722
18514TIP3    H277034   2.395   2.554  11.064 -0.5129  0.6946 -3.3376
18515TIP3   OH277035   3.304   4.767   0.331  0.0823 -0.2199  0.1852
18515TIP3    H177036   3.252   4.692   0.303  0.4686 -0.2566 -0.4489
18515TIP3    H277037   3.239   4.834   0.354 -0.2538 -0.3361 -0.4012
18516TIP3   OH277038   1.738   1.685   4.834  0.2085  0.0046  0.9350
18516TIP3    H177039   1.779   1.728   4.908  4.0888 -0.4155 -0.7098
18516TIP3    H277040   1.725   1.595   4.862  1.4009 -0.0880  1.2232
18517TIP3   OH277041   2.477   0.287   6.150 -0.0469 -0.0572  0.1789
18517TIP3    H177042   2.468   0.370   6.197  1.2433 -0.2740  0.8864
18517TIP3    H277043   2.476   0.220   6.219  0.9943 -0.4566 -0.1626
18518TIP3   OH277044   3.025   2.909  16.088 -0.7514  0.5175  0.0075
18518TIP3    H177045   3.108   2.902  16.136  0.4600  2.5359 -1.6360
18518TIP3    H277046   3.039   2.858  16.009 -1.1742  0.6453 -0.1514
18519TIP3   OH277047   3.317   2.829  12.170 -0.0033  0.2231  0.9673
18519TIP3    H177048   3.223   2.837  12.158  0.0847  0.4982  0.4151
18519TIP3    H277049   3.334   2.735  12.162 -0.0749  0.2926 -0.2415
18520TIP3   OH277050   1.599   0.654   0.194  0.0048  0.2646  0.1892
18520TIP3    H177051   1.694   0.653   0.196  0.0166  1.4395  1.1147
18520TIP3    H277052   1.576   0.738   0.154 -0.6595 -0.6405 -1.4172
18521TIP3   OH277053   1.161   1.462  14.063  0.4395 -0.5886  0.1335
18521TIP3    H177054   1.094   1.519  14.100  0.7337 -0.5534  0.6202
18521TIP3    H277055   1.161   1.384  14.119 -1.3113 -1.9706 -1.6629
18522TIP3   OH277056   1.057   5.766  12.823  0.1424 -0.0986  0.0418
18522TIP3    H177057   0.962   5.770  12.838  0.1393  0.1019 -0.0325
18522TIP3    H277058   1.077   5.672  12.823 -0.1431 -0.1610 -0.4808
18523TIP3   OH277059   4.123   4.895   5.186  0.2461 -0.1942 -0.3215
18523TIP3    H177060   4.049   4.953   5.206  2.1560  2.3081 -0.0221
18523TIP3    H277061   4.112   4.875   5.093 -0.2608  1.0440 -0.5616
18524TIP3   OH277062   0.425   1.029  13.378  0.2988  0.5171 -0.0325
18524TIP3    H177063   0.392   1.084  13.307  0.4130  1.5441  0.6891
18524TIP3    H277064   0.518   1.017  13.357  0.2125  0.3665 -0.3387
18525TIP3   OH277065   6.281   6.058  15.335 -0.4133  0.4522  0.3692
18525TIP3    H177066   6.295   6.036  15.427  1.5564  2.3092  0.5753
18525TIP3    H277067   6.347   6.008  15.288  0.3214  1.4795  0.2718
18526TIP3   OH277068   0.781   0.808  13.218 -0.0636  0.2016  0.2017
18526TIP3    H177069   0.810   0.724  13.182 -1.8609 -1.3880  2.1887
18526TIP3    H277070   0.697   0.824  13.175 -0.0925  0.5832  0.4010
18527TIP3   OH277071   3.557   3.588   4.917  0.9085  0.5899 -0.1595
18527TIP3    H177072   3.605   3.525   4.863  0.6528  1.6913 -1.7288
18527TIP3    H277073   3.511   3.644   4.854 -0.3707  1.1847  1.2348
18528TIP3   OH277074   3.784   3.858   0.184 -0.6400  0.8756 -0.2739
18528TIP3    H177075   3.725   3.803   0.236  1.2568  0.0296  1.0909
18528TIP3    H277076   3.827   3.915   0.248  0.3568  1.1380 -1.1428
18529TIP3   OH277077   3.309   3.456  11.838  0.1757  0.0172 -0.6640
18529TIP3    H177078   3.251   3.528  11.813 -0.8569 -0.3150  0.6526
18529TIP3    H277079   3.389   3.471  11.787 -0.8784  0.7483 -2.1923
18530TIP3   OH277080   0.739   6.675  10.893  0.4017  0.5189  0.3764
18530TIP3    H177081   0.702   6.669  10.805 -1.1195  0.9693  0.9635
18530TIP3    H277082   0.721   6.590  10.933  0.9410  0.3740  0.3243
18531TIP3   OH277083   1.579   2.435  16.533 -0.1188  0.2837  0.3961
18531TIP3    H177084   1.634   2.500  16.490 -0.9326  0.3564 -0.5814
18531TIP3    H277085   1.606   2.351  16.496  0.3538  0.1463  1.0327
18532TIP3   OH277086   5.404   2.712   5.223 -0.4450  0.3472 -0.0253
18532TIP3    H177087   5.393   2.695   5.130 -0.9235  0.0361  0.0874
18532TIP3    H277088   5.321   2.750   5.251 -1.2770 -1.9170  0.8051
18533TIP3   OH277089   3.692   3.288   6.573 -0.3740  0.4259 -0.4858
18533TIP3    H177090   3.758   3.331   6.628 -2.3418  0.6903  1.8501
18533TIP3    H277091   3.662   3.214   6.626 -0.8854 -0.6060 -2.1524
18534TIP3   OH277092   1.436   1.405  12.257 -0.4568  0.2965 -0.0650
18534TIP3    H177093   1.354   1.402  12.207 -0.4526  0.0149 -0.0578
18534TIP3    H277094   1.409   1.431  12.345 -0.6220 -0.4237  0.1039
18535TIP3   OH277095   4.713   5.644  16.693  0.0005  0.7032 -0.2647
18535TIP3    H177096   4.621   5.633  16.671 -0.3483  0.5028  1.1792
18535TIP3    H277097   4.729   5.738  16.684 -0.4629  0.8001 -0.0801
18536TIP3   OH277098   1.058   3.165  15.965 -0.2219  0.4284  0.2057
18536TIP3    H177099   1.149   3.144  15.943 -0.4443  0.1890 -0.4911
18536TIP3    H277100   1.037   3.105  16.036 -0.5274 -1.0665 -1.0971
18537TIP3   OH277101   4.912   1.253  13.335 -0.6327  0.1542 -0.1013
18537TIP3    H177102   4.922   1.306  13.414  0.8029 -0.1996 -0.0162
18537TIP3    H277103   4.829   1.207  13.347 -0.5814  0.3364  1.0570
18538TIP3   OH277104   5.729   3.210  13.414  0.0781 -0.4604  0.2270
18538TIP3    H177105   5.695   3.213  13.324  0.6771  0.5593  0.0200
18538TIP3    H277106   5.658   3.170  13.465 -1.5277  1.7055 -0.1638
18539TIP3   OH277107   2.108   3.712  11.494 -0.6253 -0.2550  0.0252
18539TIP3    H177108   2.181   3.660  11.460  0.0349  0.0901  0.8744
18539TIP3    H277109   2.045   3.648  11.525 -0.2832 -0.5547  0.1089
18540TIP3   OH277110   5.263   0.520   4.166 -0.1828  0.1885 -0.3247
18540TIP3    H177111   5.273   0.614   4.152  0.5948  0.2236  0.4163
18540TIP3    H277112   5.329   0.498   4.232  1.1607 -1.2765 -2.0660
18541TIP3   OH277113   0.115   3.965  13.148 -0.0930  0.3590  0.1793
18541TIP3    H177114   0.158   3.995  13.228 -0.0815  2.3201 -0.5055
18541TIP3    H277115   0.079   4.045  13.108 -0.9146 -0.6855 -1.3027
18542TIP3   OH277116   6.000   4.625  16.051 -0.1603 -0.1424 -0.2851
18542TIP3    H177117   6.034   4.685  16.118  0.1183 -0.4570 -0.1396
18542TIP3    H277118   6.071   4.619  15.986 -1.0210  1.3932 -1.4408
18543TIP3   OH277119   6.069   1.809  11.066 -0.6171 -0.4689  0.1186
18543TIP3    H177120   6.096   1.722  11.038 -1.4781 -0.3994 -0.9971
18543TIP3    H277121   6.149   1.862  11.057 -0.1498 -1.0806  0.5826
18544TIP3   OH277122   0.323   3.353   5.493 -0.1502  0.3874  0.0215
18544TIP3    H177123   0.383   3.356   5.567  0.6036  0.8628 -0.6011
18544TIP3    H277124   0.364   3.406   5.425  0.0360 -1.4263 -1.3745
18545TIP3   OH277125   3.181   2.785  16.891  0.3043  0.7533 -0.0943
18545TIP3    H177126   3.147   2.736  16.816 -0.2982 -0.3009  0.8245
18545TIP3    H277127   3.132   2.750  16.966  2.6989 -0.1072  1.1574
18546TIP3   OH277128   3.118   2.287  15.593  0.0766 -0.3701 -0.3541
18546TIP3    H177129   3.134   2.282  15.687 -2.1795 -0.1905  0.0906
18546TIP3    H277130   3.053   2.219  15.576 -2.2106  1.8678 -1.0872
18547TIP3   OH277131   2.241   2.068   4.846 -0.2133  0.1906 -0.0765
18547TIP3    H177132   2.186   2.136   4.885  1.0612  1.8077 -0.9853
18547TIP3    H277133   2.331   2.093   4.867  0.4086 -0.0647 -2.1360
18548TIP3   OH277134   3.268   4.698   4.701  0.0622 -0.2015  0.3009
18548TIP3    H177135   3.210   4.736   4.767  0.5695  0.2694  0.4790
18548TIP3    H277136   3.342   4.662   4.750  0.2912 -0.1275  0.0153
18549TIP3   OH277137   2.125   6.563   1.790 -0.2772  0.0095  0.8521
18549TIP3    H177138   2.199   6.568   1.850  2.3389  1.0063 -2.1528
18549TIP3    H277139   2.094   6.654   1.783 -0.7539 -0.1462  0.9210
18550TIP3   OH277140   6.340   2.927  11.095  1.0527  0.0424  0.0137
18550TIP3    H177141   6.305   2.855  11.042  3.5321 -0.5670 -0.9151
18550TIP3    H277142   6.312   3.006  11.050 -1.8653 -0.1945  1.1437
18551TIP3   OH277143   4.687   4.300  14.267  0.3884 -0.1701 -0.5592
18551TIP3    H177144   4.782   4.307  14.277  0.5410 -1.9083 -0.3292
18551TIP3    H277145   4.673   4.291  14.173  0.4306  0.2450 -0.6067
18552TIP3   OH277146   3.918   4.904   4.676 -0.1097 -0.2232 -0.2068
18552TIP3    H177147   3.971   4.941   4.746  0.6376  0.3042 -1.0391
18552TIP3    H277148   3.850   4.970   4.660  0.5029  0.2600 -0.8649
18553TIP3   OH277149   3.156   2.396  14.564 -0.0037 -0.6056 -0.2143
18553TIP3    H177150   3.123   2.317  14.521 -0.4564 -0.1608 -0.7145
18553TIP3    H277151   3.167   2.372  14.655  1.4640 -1.7303 -0.6533
18554TIP3   OH277152   1.146   6.214  16.131  0.3377 -0.4191  0.6321
18554TIP3    H177153   1.117   6.157  16.060  0.2126 -1.4017  1.4366
18554TIP3    H277154   1.092   6.189  16.206 -0.4395  1.4914  0.7703
18555TIP3   OH277155   2.158   2.521   2.074 -0.1000  0.0885 -0.5673
18555TIP3    H177156   2.224   2.570   2.025  0.5777 -0.5361 -0.3003
18555TIP3    H277157   2.136   2.578   2.148  1.7398 -0.5705  0.5493
18556TIP3   OH277158   3.064   1.840   3.784  0.4814 -0.3132 -0.5449
18556TIP3    H177159   3.147   1.800   3.758  1.0162  1.6760 -2.1244
18556TIP3    H277160   3.084   1.885   3.867  0.7384 -0.5735 -0.4647
18557TIP3   OH277161   4.604   6.682   6.313 -0.2803 -0.3132  0.0510
18557TIP3    H177162   4.547   6.665   6.389  1.0712 -0.3217  1.0935
18557TIP3    H277163   4.563   6.756   6.268 -0.3158  0.6827  1.6473
18558TIP3   OH277164   2.645   0.917   0.621  0.2126  0.3689  0.3316
18558TIP3    H177165   2.611   0.999   0.658  1.7161  1.2868 -0.2088
18558TIP3    H277166   2.736   0.915   0.648  0.0210 -1.5750  1.0043
18559TIP3   OH277167   3.947   1.345   0.779 -0.8362 -0.5649  0.2246
18559TIP3    H177168   4.005   1.273   0.755  1.2020 -0.1274  3.1742
18559TIP3    H277169   3.901   1.314   0.857 -0.5576  0.9335  1.0397
18560TIP3   OH277170   0.948   5.294   5.505 -0.1119 -0.2300  0.1726
18560TIP3    H177171   0.855   5.272   5.506 -0.0026 -0.7348 -0.2806
18560TIP3    H277172   0.985   5.241   5.434  0.7188 -0.8314  1.0341
18561TIP3   OH277173   0.254   6.093  15.698 -0.6096 -0.5990 -0.5453
18561TIP3    H177174   0.197   6.072  15.773  1.1602 -0.5314  0.8796
18561TIP3    H277175   0.237   6.185  15.680  0.5887  0.0481  1.3347
18562TIP3   OH277176   0.040   2.021  15.628 -0.7777  0.0512  0.5723
18562TIP3    H177177   0.117   2.024  15.685 -1.3416 -1.1983  1.4371
18562TIP3    H277178  -0.034   2.016  15.688 -1.3768 -1.7501 -0.2318
18563TIP3   OH277179   1.272   2.952  14.757 -0.1518  0.0429 -0.1377
18563TIP3    H177180   1.272   2.918  14.668  2.1558 -0.4340 -0.0202
18563TIP3    H277181   1.354   2.920  14.795 -0.3065  1.5662  1.6433
18564TIP3   OH277182   2.849   4.823   6.579  0.6333  0.0287 -0.3869
18564TIP3    H177183   2.797   4.903   6.573  0.4012  0.4161  3.6199
18564TIP3    H277184   2.785   4.753   6.590  0.8581 -0.1109  0.0864
18565TIP3   OH277185   4.075   0.641   0.579  0.4825 -0.1299  0.8350
18565TIP3    H177186   4.096   0.691   0.658  1.1349  1.0345 -0.0393
18565TIP3    H277187   4.094   0.550   0.602 -0.2733  0.0525  2.3145
18566TIP3   OH277188   1.484   3.152   1.407  0.8926 -0.1920  0.0146
18566TIP3    H177189   1.498   3.182   1.317 -2.1280  1.8741  0.1061
18566TIP3    H277190   1.404   3.101   1.403  1.2369 -0.8686  1.4016
18567TIP3   OH277191   0.922   6.475  14.819  0.4266  0.2403  0.0772
18567TIP3    H177192   0.920   6.384  14.847  0.7811  0.4133  0.6790
18567TIP3    H277193   0.839   6.489  14.774  1.0038 -0.8084 -1.3820
18568TIP3   OH277194   1.744   1.523   4.482  0.7956 -0.0732 -0.1692
18568TIP3    H177195   1.751   1.446   4.539  3.4282 -0.1292 -0.4767
18568TIP3    H277196   1.662   1.564   4.509 -0.3564 -2.5777  0.4737
18569TIP3   OH277197   3.216   1.235   1.240  0.1891 -0.4983 -0.3811
18569TIP3    H177198   3.218   1.156   1.186 -0.3104 -1.5253  1.0515
18569TIP3    H277199   3.299   1.279   1.222  0.8883 -1.8350 -0.5209
18570TIP3   OH277200   6.763   4.640   0.449 -0.2478 -0.2018  0.4837
18570TIP3    H177201   6.682   4.623   0.401  0.1623 -1.4849  0.2093
18570TIP3    H277202   6.825   4.574   0.417  0.0091 -1.2162  2.8555
18571TIP3   OH277203   6.819   5.258  10.404 -0.4547 -0.0578  0.0840
18571TIP3    H177204   6.741   5.222  10.363  0.6213 -0.3742 -1.8215
18571TIP3    H277205   6.799   5.351  10.416 -1.0625 -0.0982 -0.5645
18572TIP3   OH277206   4.081   3.361  11.581  0.3690 -0.1751  0.0662
18572TIP3    H177207   4.121   3.359  11.668  1.2140 -1.8427 -0.3163
18572TIP3    H277208   4.146   3.404  11.525  0.6996 -0.8989 -0.1183
18573TIP3   OH277209   0.248   3.393   4.528  0.5763  0.1304  0.9172
18573TIP3    H177210   0.295   3.444   4.463  0.2790  0.6492  1.0953
18573TIP3    H277211   0.157   3.395   4.498  0.3399  0.8536  1.6253
18574TIP3   OH277212   6.796   3.982   6.454  0.2249 -0.0474  0.1857
18574TIP3    H177213   6.874   3.996   6.508 -0.1682  0.7753  0.5627
18574TIP3    H277214   6.811   3.897   6.412  0.7085 -0.5444  1.3083
18575TIP3   OH277215   4.129   4.537  10.966 -0.0760 -0.3395 -0.9830
18575TIP3    H177216   4.183   4.538  10.888 -0.3736 -0.4491 -1.1949
18575TIP3    H277217   4.046   4.498  10.937 -0.2921 -0.1097 -0.6828
18576TIP3   OH277218   3.844   0.115  14.793  0.1236  0.4561  0.5023
18576TIP3    H177219   3.863   0.096  14.884 -0.8200 -0.8504  0.4590
18576TIP3    H277220   3.749   0.130  14.791  0.3246  1.8220 -0.0603
18577TIP3   OH277221   1.688   5.944   0.945 -0.1378 -0.3662  0.2709
18577TIP3    H177222   1.639   5.866   0.970 -1.3791 -0.0444 -0.9930
18577TIP3    H277223   1.694   5.939   0.849  1.8350 -0.0869  0.3525
18578TIP3   OH277224   6.665   3.196   2.035  0.3565 -0.0169  0.1743
18578TIP3    H177225   6.596   3.169   1.973  0.2429 -1.8200  1.0160
18578TIP3    H277226   6.620   3.206   2.118  0.7065  1.3056  0.2272
18579TIP3   OH277227   5.253   5.302  13.892 -0.1210 -0.1081  1.0179
18579TIP3    H177228   5.242   5.395  13.871  1.0139  0.6876  3.5287
18579TIP3    H277229   5.169   5.275  13.928 -0.2136  0.2030  1.0382
18580TIP3   OH277230   4.196   6.554   0.365  0.1372 -0.0963 -0.2465
18580TIP3    H177231   4.280   6.508   0.370  0.2117 -0.0907 -1.2837
18580TIP3    H277232   4.205   6.613   0.290  0.3918  2.3800  1.6375
18581TIP3   OH277233   3.784   0.961  15.816 -0.5108  0.9686  0.2458
18581TIP3    H177234   3.702   0.968  15.767 -0.8267 -0.2744  0.5446
18581TIP3    H277235   3.847   1.012  15.766 -0.8026 -0.2777 -1.4983
18582TIP3   OH277236   1.595   1.226  13.165 -0.5711 -0.1408 -0.0928
18582TIP3    H177237   1.503   1.213  13.142 -0.2431 -0.9238 -0.9983
18582TIP3    H277238   1.634   1.265  13.087 -0.3777  1.3576  0.7151
18583TIP3   OH277239   3.261   0.364  14.101  0.0091  0.1920 -0.2843
18583TIP3    H177240   3.309   0.312  14.166  0.7199 -1.1099 -1.7774
18583TIP3    H277241   3.169   0.347  14.120  0.1660  0.5829  0.9416
18584TIP3   OH277242   0.895   2.104  10.922 -0.0969  0.0689  0.5556
18584TIP3    H177243   0.892   2.104  11.018 -3.2071 -0.6709  0.5748
18584TIP3    H277244   0.944   2.183  10.899  1.0330  0.0703  2.7137
18585TIP3   OH277245   4.657   5.975   4.859  0.1362  0.0271  0.2085
18585TIP3    H177246   4.608   5.917   4.801  1.2908  0.0995 -0.8916
18585TIP3    H277247   4.606   6.056   4.863  1.1459  0.9193 -2.6745
18586TIP3   OH277248   4.805   3.621  16.771  0.4116 -0.2888 -0.0286
18586TIP3    H177249   4.880   3.675  16.747 -1.0626  1.0880 -1.7698
18586TIP3    H277250   4.746   3.625  16.696 -0.8234 -2.4436  0.7305
18587TIP3   OH277251   4.903   6.003   1.421 -0.0433 -0.0092 -0.0201
18587TIP3    H177252   4.863   6.005   1.335 -0.7917 -0.4483  0.3129
18587TIP3    H277253   4.955   5.923   1.421 -1.2413 -0.7978  0.4612
18588TIP3   OH277254   4.837   0.777  15.589  0.0751  0.1231 -0.0335
18588TIP3    H177255   4.788   0.701  15.556 -0.6132  1.2950 -1.8554
18588TIP3    H277256   4.789   0.804  15.666 -1.5544  0.5614 -1.1525
18589TIP3   OH277257   4.789   1.395  12.835 -0.4844 -0.4238 -0.0919
18589TIP3    H177258   4.728   1.465  12.856 -0.0090 -0.0191 -0.0299
18589TIP3    H277259   4.784   1.385  12.740 -0.5640 -0.3167 -0.0980
18590TIP3   OH277260   6.580   1.323  14.946 -0.4619 -0.7755 -0.2081
18590TIP3    H177261   6.625   1.325  15.030 -0.7314 -1.3851 -0.0415
18590TIP3    H277262   6.488   1.332  14.968 -0.5303 -0.8908 -0.4393
18591TIP3   OH277263   0.382   6.621   0.286  0.0346  0.4035  0.5023
18591TIP3    H177264   0.447   6.618   0.216 -0.9272 -1.7531 -0.3842
18591TIP3    H277265   0.386   6.711   0.319  1.8181  0.9558 -1.0575
18592TIP3   OH277266   2.538   5.181   4.557  0.2158 -0.1321 -0.0220
18592TIP3    H177267   2.600   5.139   4.617 -1.5644 -1.0081  1.2913
18592TIP3    H277268   2.584   5.261   4.528  1.0917  0.4761  2.7173
18593TIP3   OH277269   5.958   2.554  15.567  0.1778  0.0967  0.5918
18593TIP3    H177270   5.886   2.530  15.626  1.6172 -0.2671  2.2807
18593TIP3    H277271   6.037   2.523  15.611  1.2290 -2.3653 -2.5985
18594TIP3   OH277272   5.838   3.616   3.813  0.3069  0.0174 -0.4056
18594TIP3    H177273   5.800   3.700   3.790 -1.6035 -0.7034 -0.0380
18594TIP3    H277274   5.913   3.606   3.754  0.1264  1.6174 -0.9432
18595TIP3   OH277275   3.998   0.204  16.903  0.3288 -0.3551  0.2465
18595TIP3    H177276   3.949   0.137  16.856  1.7268 -2.3471  1.4397
18595TIP3    H277277   3.969   0.197  16.993 -0.7349  1.9036  0.1469
18596TIP3   OH277278   0.765   5.577   6.140  0.3413  0.0549 -0.0456
18596TIP3    H177279   0.674   5.551   6.153 -0.1013  1.8866  0.9214
18596TIP3    H277280   0.796   5.602   6.228  1.7995 -0.5798 -0.3461
18597TIP3   OH277281   0.050   3.208  14.472 -0.1379  0.6761 -0.1024
18597TIP3    H177282   0.027   3.166  14.554  0.8111  0.9481  0.3201
18597TIP3    H277283  -0.006   3.166  14.407 -1.4825  1.0410  0.8014
18598TIP3   OH277284   0.337   6.343  11.444  0.5910 -0.4865  0.3639
18598TIP3    H177285   0.407   6.289  11.481  1.4470 -0.8781 -1.7096
18598TIP3    H277286   0.382   6.415  11.401 -0.2295 -0.8081 -1.1071
18599TIP3   OH277287   3.010   5.777   0.822  0.1829  0.5100 -0.1796
18599TIP3    H177288   3.028   5.754   0.730  0.0992  2.2501 -0.6570
18599TIP3    H277289   3.095   5.768   0.865  0.3123  0.1048 -0.5018
18600TIP3   OH277290   0.504   4.690   3.735 -0.3059 -0.2891 -0.4925
18600TIP3    H177291   0.412   4.715   3.745 -0.9065 -2.3601 -0.3253
18600TIP3    H277292   0.538   4.690   3.824 -0.8742 -1.9028 -0.2307
18601TIP3   OH277293   1.098   6.647  16.499 -0.0781 -0.1959  0.1909
18601TIP3    H177294   1.011   6.664  16.534  0.1427  3.1903 -0.5622
18601TIP3    H277295   1.156   6.652  16.575 -0.3795 -1.1073  0.4910
18602TIP3   OH277296   5.771   5.273  12.566 -0.2840 -0.2625 -0.6183
18602TIP3    H177297   5.791   5.328  12.489 -2.1037  2.2839  0.5728
18602TIP3    H277298   5.685   5.235  12.547 -0.2603 -0.4900 -0.2811
18603TIP3   OH277299   2.306   5.588  13.655  0.2776 -0.2702 -0.6215
18603TIP3    H177300   2.379   5.642  13.626 -0.3668  0.1811 -1.4358
18603TIP3    H277301   2.240   5.651  13.685  0.2123 -0.6748  0.1240
18604TIP3   OH277302   4.988   1.298  10.695  0.0005 -0.8147  0.3366
18604TIP3    H177303   4.899   1.279  10.665 -0.2216  1.6562 -0.8152
18604TIP3    H277304   5.043   1.234  10.649 -1.0354 -1.4596 -0.0306
18605TIP3   OH277305   3.274   6.731   0.330 -0.8330  0.0797  0.3855
18605TIP3    H177306   3.206   6.670   0.356 -0.2741 -1.1100 -0.8491
18605TIP3    H277307   3.244   6.768   0.247  0.4881 -1.2941 -0.7505
18606TIP3   OH277308   2.124   4.514  13.185  0.7944 -0.2918 -0.2785
18606TIP3    H177309   2.202   4.567  13.199 -0.8015  2.5545 -1.2789
18606TIP3    H277310   2.066   4.536  13.258  0.5820 -1.8247  0.0672
18607TIP3   OH277311   3.801   3.720   5.888  0.9676 -0.4104 -0.5102
18607TIP3    H177312   3.762   3.635   5.867 -0.7404 -0.3065  1.8358
18607TIP3    H277313   3.750   3.752   5.963  3.8158  1.0687  0.9732
18608TIP3   OH277314   0.677   6.368   4.078  0.5970  0.4093  0.2530
18608TIP3    H177315   0.636   6.331   4.157 -1.4900  0.9822 -0.4930
18608TIP3    H277316   0.662   6.302   4.010 -0.4331  1.2275 -0.3588
18609TIP3   OH277317   1.907   6.161  16.217 -0.0635 -0.3072  0.1053
18609TIP3    H177318   1.957   6.085  16.249  2.0767  0.5758 -0.9232
18609TIP3    H277319   1.958   6.236  16.247 -1.4670  0.7124  0.0190
18610TIP3   OH277320   5.121   4.279  10.884 -0.0696 -0.1762  0.9151
18610TIP3    H177321   5.109   4.214  10.815  0.7896  0.2107  0.3768
18610TIP3    H277322   5.178   4.235  10.948  1.4853  0.3980 -0.0097
18611TIP3   OH277323   3.594   3.154   3.038 -0.6344 -0.2264 -0.0235
18611TIP3    H177324   3.648   3.076   3.043 -1.4652 -0.7833  0.4716
18611TIP3    H277325   3.509   3.123   3.008 -0.2307  0.8769 -2.6107
18612TIP3   OH277326   1.597   2.145   0.251 -0.0207 -0.2998 -0.0343
18612TIP3    H177327   1.533   2.216   0.255  1.2594  0.9236 -0.4298
18612TIP3    H277328   1.629   2.146   0.160  1.6153  0.1208  0.5073
18613TIP3   OH277329   2.268   2.542   4.334 -0.4458  0.4949  0.3272
18613TIP3    H177330   2.310   2.611   4.386  0.1665  0.1578  0.2932
18613TIP3    H277331   2.178   2.539   4.366  0.0269 -0.0123  1.7034
18614TIP3   OH277332   1.003   5.074   1.150  0.0568 -0.2006 -0.4789
18614TIP3    H177333   0.989   5.169   1.149 -0.3254 -0.1863  1.4654
18614TIP3    H277334   1.033   5.056   1.239 -1.6162 -2.1069 -0.2442
18615TIP3   OH277335   4.973   5.691   4.755 -0.3332  0.3444 -0.7310
18615TIP3    H177336   5.052   5.638   4.742 -0.2272  0.7756 -2.0130
18615TIP3    H277337   4.982   5.727   4.843  0.2596 -0.6640 -0.3636
18616TIP3   OH277338   2.631   5.415  15.676  0.1829 -0.5831 -0.6168
18616TIP3    H177339   2.659   5.323  15.672 -1.4669 -1.1720  0.1689
18616TIP3    H277340   2.623   5.442  15.585 -0.3738 -1.5879 -0.8835
18617TIP3   OH277341   0.960   6.035  16.311 -0.4530 -0.4142  0.0960
18617TIP3    H177342   0.869   6.032  16.282 -0.9552 -0.4122  1.5759
18617TIP3    H277343   1.003   5.965  16.262 -1.5474 -1.2510  0.2878
18618TIP3   OH277344   0.162   0.550   4.106  0.1983 -0.4259  0.0116
18618TIP3    H177345   0.107   0.592   4.040  0.0753 -0.8139 -0.1351
18618TIP3    H277346   0.187   0.621   4.165 -1.1494 -0.3882  0.5552
18619TIP3   OH277347   2.726   2.324  16.665  0.0053 -0.2107 -0.1893
18619TIP3    H177348   2.678   2.284  16.738 -1.1673 -0.5947 -1.1547
18619TIP3    H277349   2.808   2.276  16.661  0.3746  0.2370  1.2713
18620TIP3   OH277350   0.994   1.610   4.599 -0.5060  0.5370 -0.2597
18620TIP3    H177351   1.089   1.622   4.597 -0.2552 -0.9698  1.0011
18620TIP3    H277352   0.976   1.552   4.525 -0.5145  1.1667 -0.7590
18621TIP3   OH277353   0.738   4.360   1.394  0.1726 -0.1384 -0.3937
18621TIP3    H177354   0.687   4.438   1.417  1.3819 -0.0846  2.6075
18621TIP3    H277355   0.716   4.296   1.462  2.9153 -0.6096  0.1555
18622TIP3   OH277356   6.810   6.072  16.553 -0.7648  0.3984  0.1727
18622TIP3    H177357   6.812   5.987  16.596  1.7982  0.5496  0.5015
18622TIP3    H277358   6.743   6.062  16.485  0.0371 -2.1771 -0.3594
18623TIP3   OH277359   3.805   0.558   1.778  0.4182  0.0821 -0.5634
18623TIP3    H177360   3.771   0.510   1.702  2.0917  0.3763 -1.5523
18623TIP3    H277361   3.876   0.504   1.810  1.0151  0.9231 -0.4395
18624TIP3   OH277362   3.869   2.488  14.840 -0.3189  0.0411 -0.7313
18624TIP3    H177363   3.866   2.553  14.910  3.8657 -0.5373  0.2809
18624TIP3    H277364   3.841   2.407  14.882  0.4833  0.0352 -0.1841
18625TIP3   OH277365   6.805   4.629  12.978 -0.4463  0.2946 -0.3329
18625TIP3    H177366   6.790   4.553  12.922  2.0922 -0.1296 -0.5630
18625TIP3    H277367   6.813   4.702  12.918  0.2298  0.1924 -0.3720
18626TIP3   OH277368   1.411   1.750   5.744  0.7351 -0.2445 -0.1954
18626TIP3    H177369   1.382   1.752   5.835  1.4526 -1.8474  0.0932
18626TIP3    H277370   1.371   1.828   5.705  0.0448  0.2246  1.3659
18627TIP3   OH277371   3.471   0.206   6.735 -0.2275 -0.3859 -0.0250
18627TIP3    H177372   3.476   0.296   6.705 -1.5569 -0.4145 -0.3772
18627TIP3    H277373   3.379   0.192   6.758 -0.4350 -2.1583 -1.6287
18628TIP3   OH277374   6.038   1.138   3.349 -0.3965  0.4509  0.0601
18628TIP3    H177375   5.957   1.110   3.392 -0.5964  0.5102 -0.2677
18628TIP3    H277376   6.101   1.148   3.420 -0.5806  0.0730  0.2841
18629TIP3   OH277377   3.750   2.802  16.391  0.0821  0.2233 -0.0632
18629TIP3    H177378   3.832   2.792  16.439  1.2486 -0.3742 -2.0672
18629TIP3    H277379   3.684   2.757  16.445  1.0391  0.7118  1.5749
18630TIP3   OH277380   4.315   0.427  16.236 -0.3656  0.3318 -0.3662
18630TIP3    H177381   4.225   0.393  16.232 -1.2404  2.4392  0.5020
18630TIP3    H277382   4.345   0.405  16.324 -1.0031  1.8375  0.2673
18631TIP3   OH277383   3.423   1.208  11.340 -0.0230  0.5377  0.2454
18631TIP3    H177384   3.455   1.126  11.301  2.5269  1.5821 -0.0419
18631TIP3    H277385   3.412   1.188  11.433  1.3137  0.0305  0.3149
18632TIP3   OH277386   3.241   4.187  11.600  0.1843 -0.1713 -0.2858
18632TIP3    H177387   3.259   4.112  11.543 -0.5692 -1.1326  0.6917
18632TIP3    H277388   3.260   4.155  11.689  1.0418  1.1932  0.0514
18633TIP3   OH277389   1.701   0.841  13.020  0.1995  0.2206 -0.1674
18633TIP3    H177390   1.715   0.935  13.007  2.8383  0.0351  0.7758
18633TIP3    H277391   1.678   0.809  12.933 -0.3603  1.6611 -0.5886
18634TIP3   OH277392   2.602   0.473   3.338  0.6128  0.7088 -0.2559
18634TIP3    H177393   2.639   0.410   3.399  1.2904  0.6346 -0.7241
18634TIP3    H277394   2.661   0.548   3.343  1.8676 -0.0679 -2.2736
18635TIP3   OH277395   0.383   0.497  16.828  0.1111  0.1613 -0.0047
18635TIP3    H177396   0.418   0.408  16.838  0.8259  0.4775  0.3797
18635TIP3    H277397   0.385   0.534  16.916  2.0157  1.3525 -0.4809
18636TIP3   OH277398   4.825   6.609   6.468  0.3849 -0.0010  0.0344
18636TIP3    H177399   4.876   6.536   6.435 -0.5082 -0.5877 -0.0591
18636TIP3    H277400   4.740   6.602   6.425  0.3707  1.2464 -0.1856
18637TIP3   OH277401   5.415   6.311   5.612 -0.2233 -0.0465  0.1754
18637TIP3    H177402   5.428   6.290   5.705 -1.5289  0.5631  0.5209
18637TIP3    H277403   5.348   6.380   5.612 -1.3691 -1.0984 -1.3007
18638TIP3   OH277404   3.676   6.393   4.697  0.1242 -0.4099  0.1973
18638TIP3    H177405   3.592   6.404   4.652  1.1058 -0.1035 -1.6575
18638TIP3    H277406   3.707   6.307   4.669  0.6843 -0.2870  0.4239
18639TIP3   OH277407   1.832   1.902  12.496  0.0566  0.1835 -0.1272
18639TIP3    H177408   1.851   1.982  12.546 -1.8360  1.5178 -1.4165
18639TIP3    H277409   1.915   1.854  12.496  1.0091  1.6972  1.4623
18640TIP3   OH277410   6.133   1.059  14.226  0.5622  0.1147  0.0264
18640TIP3    H177411   6.103   1.111  14.151 -0.6322 -0.0980  0.3273
18640TIP3    H277412   6.208   1.108  14.260  0.9719  0.3461 -1.1420
18641TIP3   OH277413   4.496   1.897  15.070 -0.1923  0.0168  0.3263
18641TIP3    H177414   4.584   1.875  15.040  0.0671  0.8823  0.4276
18641TIP3    H277415   4.454   1.938  14.994  0.7591  3.0368  1.2606
18642TIP3   OH277416   0.909   4.020   6.192 -0.5785 -0.0934 -0.7450
18642TIP3    H177417   0.885   4.051   6.279  1.2194 -0.5794 -0.0418
18642TIP3    H277418   0.964   4.089   6.156  1.1592 -1.1608 -0.2628
18643TIP3   OH277419   1.028   1.526  16.197 -0.2448 -0.2422  0.3267
18643TIP3    H177420   1.086   1.452  16.182  1.1328  1.0667 -1.3001
18643TIP3    H277421   0.992   1.546  16.111  1.3974  2.4697  0.1494
18644TIP3   OH277422   1.551   3.090  15.467 -0.1732  0.3561  0.3356
18644TIP3    H177423   1.596   3.171  15.489  2.4847 -0.6231 -1.0559
18644TIP3    H277424   1.612   3.021  15.494  0.1422 -1.0216 -3.3618
18645TIP3   OH277425   2.857   0.361   4.942 -0.2399  0.0331 -0.0195
18645TIP3    H177426   2.936   0.371   4.994  0.5776  3.0209 -1.5790
18645TIP3    H277427   2.868   0.278   4.896  1.0493 -0.5154  1.2084
18646TIP3   OH277428   2.140   2.322  10.644  0.0748  0.2327  0.9534
18646TIP3    H177429   2.215   2.370  10.679 -0.1864  1.0069  0.4897
18646TIP3    H277430   2.066   2.382  10.654  0.1156  0.8168 -1.5402
18647TIP3   OH277431   3.505   6.281   2.223 -0.3825  0.1530  0.2416
18647TIP3    H177432   3.569   6.343   2.190  0.5326 -0.4728  0.7781
18647TIP3    H277433   3.459   6.328   2.293 -0.5867  0.6348 -0.2132
18648TIP3   OH277434   2.849   3.425  16.981  0.5209 -0.2324  0.2460
18648TIP3    H177435   2.938   3.390  16.981  0.5698 -0.1370 -0.6944
18648TIP3    H277436   2.806   3.379  16.910 -0.0596  0.0311  0.4224
18649TIP3   OH277437   2.515   1.556  13.118 -0.2497  0.9359  0.4103
18649TIP3    H177438   2.453   1.485  13.103  1.7403 -0.9174  0.5557
18649TIP3    H277439   2.484   1.626  13.061 -1.1031 -0.7784 -1.3627
18650TIP3   OH277440   1.948   5.648   1.024 -0.6525  0.0693  0.3447
18650TIP3    H177441   2.012   5.717   1.040 -1.7097  1.7940 -2.2379
18650TIP3    H277442   1.864   5.687   1.050 -1.2041 -0.4490 -0.6105
18651TIP3   OH277443   6.301   1.356  15.010 -0.3993 -0.1632 -0.7879
18651TIP3    H177444   6.283   1.283  14.951  1.5793 -1.1106 -0.2921
18651TIP3    H277445   6.288   1.434  14.957  0.4987 -0.9667 -2.2337
18652TIP3   OH277446   1.474   0.717  15.986 -0.1042  0.2995  0.0208
18652TIP3    H177447   1.455   0.808  16.009  0.0665  0.7041 -1.3742
18652TIP3    H277448   1.560   0.701  16.026  0.7028  1.3423 -1.2281
18653TIP3   OH277449   4.394   5.592   5.648 -0.2192 -0.5427  0.5337
18653TIP3    H177450   4.415   5.632   5.564  1.0764 -1.1382  0.5535
18653TIP3    H277451   4.475   5.550   5.676 -0.7444 -0.7226  1.8836
18654TIP3   OH277452   5.306   5.199  11.655  0.0406 -0.2759  0.4240
18654TIP3    H177453   5.338   5.287  11.634 -1.5767  0.7804  2.0404
18654TIP3    H277454   5.386   5.147  11.667  1.0231  0.7440 -1.3446
18655TIP3   OH277455   5.752   6.680   5.125 -0.2467  0.1200 -0.3140
18655TIP3    H177456   5.687   6.750   5.115  0.2232  0.7205  0.6259
18655TIP3    H277457   5.705   6.609   5.167 -0.7068 -0.0958 -1.1846
18656TIP3   OH277458   3.809   2.449   5.129  0.4358 -0.0600 -0.2844
18656TIP3    H177459   3.777   2.473   5.216  2.3681 -0.3524  0.5488
18656TIP3    H277460   3.850   2.529   5.095 -0.6486  0.1712 -1.1430
18657TIP3   OH277461   4.655   2.275   4.446  1.2115 -0.3559  0.2203
18657TIP3    H177462   4.652   2.325   4.528  0.8207  1.8654 -1.0594
18657TIP3    H277463   4.563   2.264   4.422  1.2487  2.3331 -1.6966
18658TIP3   OH277464   0.468   3.102  11.656 -0.1753  0.5422 -0.3399
18658TIP3    H177465   0.497   3.034  11.596  3.5827 -0.1248  1.8728
18658TIP3    H277466   0.377   3.081  11.676 -0.3613 -1.3554 -2.8379
18659TIP3   OH277467   4.882   1.218  12.614  0.8400 -0.0885  0.2892
18659TIP3    H177468   4.954   1.224  12.552  0.0339  0.8837 -0.5886
18659TIP3    H277469   4.913   1.266  12.691  2.2969 -2.2817  1.1631
18660TIP3   OH277470   2.060   2.792   3.024  0.3212  0.6500  0.5223
18660TIP3    H177471   2.047   2.884   3.003 -0.7880  0.0171 -1.8901
18660TIP3    H277472   2.106   2.756   2.948 -1.8468 -1.3406  0.0124
18661TIP3   OH277473   4.524   6.024   0.001 -0.4879  0.3405 -0.4168
18661TIP3    H177474   4.527   6.106   0.050 -0.0144  0.4253 -0.5830
18661TIP3    H277475   4.468   6.043  -0.074 -1.1438  0.2350  0.0465
18662TIP3   OH277476   4.947   2.203   2.976  0.1363 -0.2199  0.0787
18662TIP3    H177477   4.881   2.269   2.999  1.4008  0.2868  2.5656
18662TIP3    H277478   4.897   2.122   2.969 -1.1331  0.6036 -0.8491
18663TIP3   OH277479   3.320   4.463  14.386 -0.0612 -0.2244  0.5442
18663TIP3    H177480   3.232   4.449  14.420 -0.8203 -0.4042 -1.3552
18663TIP3    H277481   3.349   4.545  14.427 -1.6194  0.4994  0.2720
18664TIP3   OH277482   4.696   1.212  14.174 -0.1069 -0.4693  0.5696
18664TIP3    H177483   4.698   1.179  14.084  2.0684 -1.3569  0.8860
18664TIP3    H277484   4.674   1.135  14.227  2.0683 -0.7936  1.0629
18665TIP3   OH277485   3.581   1.116  11.878  0.0754  0.5957  0.2686
18665TIP3    H177486   3.653   1.085  11.933 -0.8310  0.5240  1.4550
18665TIP3    H277487   3.597   1.209  11.867 -0.0998  0.7597  1.2799
18666TIP3   OH277488   5.922   3.676  17.193  0.0869 -0.1946 -0.7598
18666TIP3    H177489   5.900   3.639  17.279 -0.1744  2.0363  0.2330
18666TIP3    H277490   5.842   3.664  17.141 -0.4047 -0.0131 -0.0745
18667TIP3   OH277491   2.880   0.114  11.554  0.2072 -1.0430  0.4147
18667TIP3    H177492   2.971   0.125  11.525  0.3995  0.6715  1.5000
18667TIP3    H277493   2.844   0.203  11.554 -1.4575 -1.6813  0.0912
18668TIP3   OH277494   4.303   0.245   4.552 -0.0906 -0.0222 -1.3512
18668TIP3    H177495   4.394   0.244   4.524 -0.4738 -1.0648 -2.6987
18668TIP3    H277496   4.265   0.167   4.511 -1.4019 -0.0450 -0.1735
18669TIP3   OH277497   4.644   1.693   5.943 -0.0662 -0.1045 -0.5992
18669TIP3    H177498   4.556   1.717   5.970  0.7331  1.6491  0.6816
18669TIP3    H277499   4.657   1.741   5.860  0.1303  0.7268 -0.0983
18670TIP3   OH277500   4.975   1.158   1.102 -0.0405  0.4623  0.3031
18670TIP3    H177501   4.954   1.185   1.192  0.1725  0.7909  0.2563
18670TIP3    H277502   4.896   1.176   1.052 -0.7126 -1.1863  0.7262
18671TIP3   OH277503   6.481   6.204  11.627 -0.5946  0.2594  0.2880
18671TIP3    H177504   6.413   6.192  11.561 -1.4118  1.1408  0.9441
18671TIP3    H277505   6.557   6.159  11.591 -2.0576 -2.5564  0.4145
18672TIP3   OH277506   2.837   3.456   5.706 -0.2843  0.4321 -0.9951
18672TIP3    H177507   2.804   3.386   5.650  0.8786  0.8548 -2.2695
18672TIP3    H277508   2.817   3.537   5.659  0.9684  0.7866 -0.9558
18673TIP3   OH277509   4.718   3.620  12.341 -0.5181  0.3646  0.0733
18673TIP3    H177510   4.741   3.697  12.289 -2.3498  0.5446 -0.5609
18673TIP3    H277511   4.706   3.654  12.430  3.1175 -0.0278  0.8476
18674TIP3   OH277512   5.075   0.155   4.935 -0.4822 -0.3235  0.1669
18674TIP3    H177513   5.137   0.099   4.983  0.0246 -0.5011 -0.6758
18674TIP3    H277514   5.020   0.193   5.003 -0.6359 -1.6035  0.7937
18675TIP3   OH277515   6.202   5.847  12.268  0.4360 -0.4346 -0.0649
18675TIP3    H177516   6.269   5.779  12.263  0.8036 -0.0212 -1.0788
18675TIP3    H277517   6.181   5.867  12.176 -0.4374  0.0637  0.2281
18676TIP3   OH277518   6.469   3.390  15.458  0.1551  0.4230 -0.4997
18676TIP3    H177519   6.382   3.398  15.496 -0.4499  1.5636 -2.0256
18676TIP3    H277520   6.511   3.475  15.476  1.0706 -0.2015  0.4400
18677TIP3   OH277521   4.859   2.856  15.056  0.3322  0.4713 -0.0345
18677TIP3    H177522   4.953   2.839  15.051  0.4006  0.6812  0.5080
18677TIP3    H277523   4.838   2.847  15.149  0.0516  1.6328  0.0275
18678TIP3   OH277524   1.836   1.540  10.615  0.2886 -0.0136 -0.9323
18678TIP3    H177525   1.904   1.474  10.601 -0.4311 -1.9513  3.1825
18678TIP3    H277526   1.753   1.491  10.609 -0.2419  0.1474  2.7730
18679TIP3   OH277527   2.616   4.630   6.558 -0.0481  0.8610 -0.1907
18679TIP3    H177528   2.543   4.679   6.519 -0.8168 -0.1752 -0.1173
18679TIP3    H277529   2.575   4.577   6.627  0.8015  0.3502 -0.0592
18680TIP3   OH277530   3.779   6.093  14.079 -0.0770  0.5704  0.2775
18680TIP3    H177531   3.785   6.108  13.985 -0.4458 -0.4434  0.0764
18680TIP3    H277532   3.827   6.166  14.118  1.0005  0.4325 -0.7294
18681TIP3   OH277533   2.080   5.358  11.740 -0.5489 -0.0515 -0.2440
18681TIP3    H177534   2.060   5.431  11.798  1.0646  0.0101  0.2753
18681TIP3    H277535   2.068   5.392  11.652  0.7625  1.0486 -0.0234
18682TIP3   OH277536   3.042   2.228  16.729  0.0654  0.2375 -0.0304
18682TIP3    H177537   3.137   2.218  16.728  0.0223 -0.3959  0.9435
18682TIP3    H277538   3.024   2.277  16.809 -0.4821 -0.3720  0.2258
18683TIP3   OH277539   0.359   0.315   5.279  0.4075  0.4717  0.0362
18683TIP3    H177540   0.402   0.307   5.194 -0.5466  0.1089 -0.4279
18683TIP3    H277541   0.359   0.227   5.315  0.6937  0.6016  0.3551
18684TIP3   OH277542   1.184   4.082   5.787 -0.5524 -0.4209  0.1906
18684TIP3    H177543   1.227   4.008   5.744  1.0523  1.4055 -1.6023
18684TIP3    H277544   1.098   4.049   5.812 -0.4941 -2.4741 -1.9459
18685TIP3   OH277545   0.861   5.391  13.567 -0.0582 -0.6168  0.2216
18685TIP3    H177546   0.770   5.421  13.562  0.0421  0.1346  2.2858
18685TIP3    H277547   0.913   5.469  13.549  0.2192 -1.1362 -1.3788
18686TIP3   OH277548   6.295   6.565  13.396  0.5262 -0.0986  0.8117
18686TIP3    H177549   6.290   6.470  13.386  0.6013  0.1055 -2.0738
18686TIP3    H277550   6.389   6.583  13.407  1.0357 -0.2281 -2.3004
18687TIP3   OH277551   6.295   5.365   4.513 -0.2912  0.2445 -0.0760
18687TIP3    H177552   6.382   5.339   4.542  0.6475  2.9386 -0.2105
18687TIP3    H277553   6.268   5.435   4.573 -1.4800  0.8258 -1.2060
18688TIP3   OH277554   6.102   1.470   0.170 -0.0281 -0.4445  0.6867
18688TIP3    H177555   6.178   1.492   0.116 -0.8080 -0.0977 -0.3084
18688TIP3    H277556   6.042   1.543   0.157 -1.2667 -1.5443  0.0199
18689TIP3   OH277557   5.135   4.874  14.864  0.2109 -0.2411  0.3743
18689TIP3    H177558   5.065   4.828  14.817 -0.7063  0.3725  1.1230
18689TIP3    H277559   5.170   4.935  14.800 -0.0829 -0.3942  0.0629
18690TIP3   OH277560   6.262   0.126   1.201  0.0258  0.2547 -0.1188
18690TIP3    H177561   6.208   0.056   1.165  0.3965  0.3708 -0.9128
18690TIP3    H277562   6.200   0.196   1.220 -0.0715  0.5331 -1.3848
18691TIP3   OH277563   3.241   4.308  12.713 -0.1338 -0.4184 -0.6435
18691TIP3    H177564   3.274   4.315  12.802  0.1756  1.8102 -0.8648
18691TIP3    H277565   3.150   4.339  12.718  0.5093  1.7933 -1.3632
18692TIP3   OH277566   1.244   3.977   2.902  0.3685  0.3133  0.1901
18692TIP3    H177567   1.259   3.910   2.836 -2.5112 -1.1422  0.8518
18692TIP3    H277568   1.217   4.054   2.852 -0.5190 -0.3800 -0.4263
18693TIP3   OH277569   6.167   0.788  12.950 -0.0907  0.4543  0.2095
18693TIP3    H177570   6.111   0.759  13.022 -0.0629  2.0410  0.8967
18693TIP3    H277571   6.107   0.796  12.876 -0.4485  0.5148  0.5033
18694TIP3   OH277572   5.537   3.486   1.964  0.4803 -0.2996  0.0377
18694TIP3    H177573   5.441   3.483   1.964  0.4568 -1.0787  1.7919
18694TIP3    H277574   5.558   3.577   1.980  0.1145  0.3745 -2.8815
18695TIP3   OH277575   2.242   4.928  15.499  0.0988  0.2136  0.0743
18695TIP3    H177576   2.211   4.899  15.413  1.5480  1.8464 -1.0638
18695TIP3    H277577   2.186   5.003  15.521 -0.2004 -0.1352  0.5237
18696TIP3   OH277578   6.176   3.974  15.002 -0.1308 -0.1414  0.1024
18696TIP3    H177579   6.182   3.910  15.073  1.1865  0.4891  0.5853
18696TIP3    H277580   6.148   4.055  15.045  0.3346  0.1519 -0.1357
18697TIP3   OH277581   3.220   6.602  16.579  0.5717  0.4593 -0.2825
18697TIP3    H177582   3.287   6.629  16.516 -0.9555  0.8869 -1.7609
18697TIP3    H277583   3.263   6.532  16.629  2.9011  2.2233  0.3821
18698TIP3   OH277584   3.995   1.635   2.807  0.5089 -0.3471  0.3046
18698TIP3    H177585   3.949   1.717   2.791  1.8985  0.1320 -1.6124
18698TIP3    H277586   3.940   1.588   2.869 -0.7440  1.6670  0.7937
18699TIP3   OH277587   3.557   6.095   5.375 -0.2403 -0.6583 -0.5627
18699TIP3    H177588   3.539   6.165   5.312  0.5311  0.5617  0.5199
18699TIP3    H277589   3.506   6.119   5.452  2.3999  0.4752  0.9578
18700TIP3   OH277590   4.027   0.816  13.115 -0.4389 -0.2378 -0.3602
18700TIP3    H177591   3.999   0.761  13.042  2.1659  0.4571 -2.0048
18700TIP3    H277592   3.951   0.870  13.135 -1.2041 -0.3971 -2.6166
18701TIP3   OH277593   6.777   2.659   4.665 -0.3472  0.1487 -0.2071
18701TIP3    H177594   6.756   2.622   4.579  0.5736  0.0920 -0.4167
18701TIP3    H277595   6.813   2.745   4.645 -2.1826  1.0786  0.2612
18702TIP3   OH277596   1.691   5.363  13.880  1.0586  0.3368 -0.1729
18702TIP3    H177597   1.629   5.418  13.832 -0.0657 -0.0912  0.7470
18702TIP3    H277598   1.734   5.423  13.941 -1.3314  0.0042  1.9887
18703TIP3   OH277599   0.873   3.759   0.038  0.1271  0.4427 -0.3283
18703TIP3    H177600   0.779   3.741   0.030 -0.0811  1.3178  0.0175
18703TIP3    H277601   0.880   3.854   0.030  0.9338  0.4260  0.0786
18704TIP3   OH277602   3.259   2.180  11.324 -0.1095  0.5993  0.3627
18704TIP3    H177603   3.338   2.172  11.272  0.3659 -1.3806  1.2551
18704TIP3    H277604   3.282   2.242  11.394  0.8048 -0.1999  0.8027
18705TIP3   OH277605   1.376   6.326  16.242  0.2691 -0.4286 -0.0832
18705TIP3    H177606   1.291   6.334  16.284  0.2488  1.9934 -0.4340
18705TIP3    H277607   1.357   6.290  16.155 -0.8221  2.5452 -1.1886
18706TIP3   OH277608   1.670   5.479   1.843 -0.1072  0.0845  0.2138
18706TIP3    H177609   1.693   5.392   1.808  3.1300  0.3944  1.2505
18706TIP3    H277610   1.720   5.540   1.788  1.1688  0.9122  2.1959
18707TIP3   OH277611   1.135   2.622  10.727  0.5247 -0.0309  0.6286
18707TIP3    H177612   1.204   2.620  10.793 -0.5171 -0.8353  1.7357
18707TIP3    H277613   1.144   2.540  10.680 -0.1657 -0.5057  1.3099
18708TIP3   OH277614   2.266   1.415   0.896 -0.0873 -0.1800 -0.2743
18708TIP3    H177615   2.226   1.491   0.939 -2.1524 -2.1431  1.5066
18708TIP3    H277616   2.346   1.398   0.946 -1.8034 -1.6489  2.1828
18709TIP3   OH277617   6.285   3.831   2.925 -0.2018 -0.0461 -0.2013
18709TIP3    H177618   6.377   3.805   2.925 -0.7038 -1.9930  0.3207
18709TIP3    H277619   6.278   3.891   2.851  1.9500  2.0819  1.1832
18710TIP3   OH277620   0.393   2.754  11.982 -0.3127 -0.6204 -0.3943
18710TIP3    H177621   0.308   2.715  11.999 -0.3789 -0.4727 -0.3848
18710TIP3    H277622   0.395   2.769  11.887 -0.3074 -0.5985 -0.3904
18711TIP3   OH277623   5.332   4.515   2.939  0.9067 -0.2436  0.7113
18711TIP3    H177624   5.387   4.474   3.006 -0.2818 -1.5427  0.9325
18711TIP3    H277625   5.354   4.468   2.858  0.5621 -0.3700  0.6886
18712TIP3   OH277626   4.976   5.436  11.647  0.2750  0.4141  0.1680
18712TIP3    H177627   5.062   5.473  11.667 -0.2061  1.4053  0.5043
18712TIP3    H277628   4.927   5.446  11.729 -0.0757 -0.4064  0.0649
18713TIP3   OH277629   6.373   6.103  11.122  0.1832 -0.3578  0.8928
18713TIP3    H177630   6.332   6.168  11.065  1.3412  0.2181  0.6727
18713TIP3    H277631   6.341   6.019  11.090  0.2226  0.0013 -0.1311
18714TIP3   OH277632   1.010   2.920   2.389 -0.1773 -0.5640  0.2775
18714TIP3    H177633   1.075   2.982   2.355  0.3548 -1.3950 -0.2547
18714TIP3    H277634   0.951   2.905   2.315 -0.9882  0.1768  0.7548
18715TIP3   OH277635   0.244   0.595  15.240  0.3208  0.5598  0.2438
18715TIP3    H177636   0.311   0.533  15.211  1.0890  0.8681  1.3355
18715TIP3    H277637   0.161   0.553  15.216  0.8599 -0.3846 -0.0206
18716TIP3   OH277638   2.927   6.663  15.961  0.3053  0.1145 -0.3891
18716TIP3    H177639   2.975   6.639  16.040 -0.6231 -0.3199  0.0536
18716TIP3    H277640   2.993   6.704  15.905  0.9393  0.5872  0.6700
18717TIP3   OH277641   3.110   1.794   4.370  0.3331  0.0986 -0.0082
18717TIP3    H177642   3.027   1.799   4.322 -0.1857 -0.1644  0.8498
18717TIP3    H277643   3.147   1.710   4.344  0.7030  0.5385 -0.9666
18718TIP3   OH277644   4.429   2.973   0.957 -0.5069  0.3281  0.2490
18718TIP3    H177645   4.380   2.941   1.033 -0.4927  0.5577  0.3534
18718TIP3    H277646   4.370   3.035   0.914 -0.6175  0.0069 -0.0755
18719TIP3   OH277647   5.604   2.197  13.136  0.2107 -0.1406  0.6808
18719TIP3    H177648   5.636   2.107  13.140 -0.8950 -0.5575  0.4129
18719TIP3    H277649   5.517   2.193  13.177  0.6622  1.0485  1.8156
18720TIP3   OH277650   6.047   3.135  12.474  0.8231 -0.2143  0.0047
18720TIP3    H177651   6.048   3.190  12.396  0.3274  3.0186  2.1155
18720TIP3    H277652   6.138   3.134  12.504  0.7571 -0.2207  0.2036
18721TIP3   OH277653   1.851   0.711   4.584  0.2436 -0.5417  0.1471
18721TIP3    H177654   1.782   0.776   4.574  1.3520  0.5766 -0.4435
18721TIP3    H277655   1.804   0.629   4.600 -1.1909  0.3080  0.4641
18722TIP3   OH277656   4.286   6.636   1.565  0.3816  0.1831 -0.3964
18722TIP3    H177657   4.356   6.576   1.540 -0.7614 -1.0268 -0.7719
18722TIP3    H277658   4.247   6.597   1.643  0.8667  1.4800  0.5423
18723TIP3   OH277659   0.697   5.757   1.722 -0.3412  0.1878  0.0249
18723TIP3    H177660   0.705   5.720   1.810 -0.0725 -1.0761 -0.5217
18723TIP3    H277661   0.761   5.828   1.721 -1.2026  1.0399  1.2411
18724TIP3   OH277662   4.088   6.722   1.389 -0.0121  0.0484  0.1677
18724TIP3    H177663   4.172   6.728   1.436  1.7966 -1.9769 -2.5496
18724TIP3    H277664   4.059   6.632   1.402 -0.7583  0.1702 -0.5666
18725TIP3   OH277665   6.463   2.967   2.819 -0.3549 -0.0279 -0.2725
18725TIP3    H177666   6.487   2.931   2.734  1.6590  2.1298 -0.7207
18725TIP3    H277667   6.539   2.949   2.875  0.5157  2.8098 -0.3732
18726TIP3   OH277668   6.787   5.093  12.095 -0.3317 -0.0204  0.3405
18726TIP3    H177669   6.880   5.115  12.089 -0.2175  0.1077  2.0738
18726TIP3    H277670   6.784   5.011  12.145 -1.0662 -1.1034 -1.3921
18727TIP3   OH277671   3.393   0.760  14.605  0.3885  0.5000  0.6828
18727TIP3    H177672   3.429   0.830  14.551 -1.3317  1.3289  0.5227
18727TIP3    H277673   3.372   0.689  14.544 -1.7892  1.5324  0.1257
18728TIP3   OH277674   6.045   4.173  11.552 -0.1332  0.2555  0.5290
18728TIP3    H177675   6.061   4.215  11.636  0.7522 -0.4191  0.7145
18728TIP3    H277676   6.103   4.218  11.490  2.3864 -1.9245  1.1220
18729TIP3   OH277677   1.775   0.320  11.568  0.3500 -0.5487  0.6545
18729TIP3    H177678   1.718   0.249  11.598 -0.8536 -0.2998 -0.9347
18729TIP3    H277679   1.737   0.399  11.607 -0.1944 -0.4244 -0.1160
18730TIP3   OH277680   0.193   6.099   2.656 -0.1320 -0.1362  0.0063
18730TIP3    H177681   0.218   6.071   2.568  1.7370  0.7156  0.2188
18730TIP3    H277682   0.265   6.071   2.712  0.5840  2.6364  0.6285
18731TIP3   OH277683   6.320   3.818  15.856  0.0669  0.4003  0.0976
18731TIP3    H177684   6.368   3.782  15.931  0.2377  2.6979  1.1855
18731TIP3    H277685   6.299   3.742  15.802  0.5786 -1.2528  2.1005
18732TIP3   OH277686   0.543   1.661   3.170 -0.5358  0.2881 -0.4466
18732TIP3    H177687   0.521   1.601   3.241  2.4235 -0.1015  0.2448
18732TIP3    H277688   0.493   1.629   3.095 -3.3296  0.3828  1.2329
18733TIP3   OH277689   5.715   1.731  15.361 -0.1236  0.0959  0.4582
18733TIP3    H177690   5.802   1.768  15.343  0.2961 -0.8671  0.4678
18733TIP3    H277691   5.673   1.796  15.417 -0.4816  1.9240 -1.7831
18734TIP3   OH277692   2.924   0.452  11.133 -0.3573  0.0880 -0.2571
18734TIP3    H177693   2.991   0.402  11.086  0.8409  0.4873  0.9657
18734TIP3    H277694   2.965   0.474  11.216 -1.9193  0.6165  0.3990
18735TIP3   OH277695   6.772   5.149   0.117 -0.2684  0.4482  0.2656
18735TIP3    H177696   6.860   5.185   0.124 -0.5631  1.4607 -0.8590
18735TIP3    H277697   6.755   5.109   0.202  0.9241  1.0456  0.8022
18736TIP3   OH277698   0.317   5.020   4.459 -0.4752  0.5954 -0.0019
18736TIP3    H177699   0.380   5.005   4.388 -0.5573  0.0258  0.0357
18736TIP3    H277700   0.302   5.114   4.459 -0.8213  0.5617 -1.0503
18737TIP3   OH277701   1.191   4.347  11.289 -0.0077 -0.2039  0.2062
18737TIP3    H177702   1.271   4.400  11.298  0.5128 -0.9621  0.1975
18737TIP3    H277703   1.147   4.356  11.374 -0.3295  0.8451 -0.0488
18738TIP3   OH277704   5.549   1.760   2.004 -0.4483  0.9596 -0.1891
18738TIP3    H177705   5.555   1.766   1.908 -1.0424 -0.3095 -0.3247
18738TIP3    H277706   5.538   1.851   2.032 -5.2572  1.1221 -1.7226
18739TIP3   OH277707   5.475   4.660  10.962  0.3829  0.0330  0.2190
18739TIP3    H177708   5.381   4.654  10.942  0.2910 -0.2895  0.7409
18739TIP3    H277709   5.510   4.574  10.940  0.4381 -0.0519  0.6417
18740TIP3   OH277710   3.649   3.185  12.045 -0.0380 -0.4962 -0.0351
18740TIP3    H177711   3.617   3.262  12.091 -2.3960 -0.5616 -1.4085
18740TIP3    H277712   3.690   3.219  11.965 -1.1143 -0.6121 -0.6608
18741TIP3   OH277713   2.953   4.156   4.372  0.3184 -0.2390 -0.1408
18741TIP3    H177714   2.956   4.251   4.359  2.1712 -0.4843 -2.0885
18741TIP3    H277715   2.871   4.141   4.419 -0.8458  2.1477 -1.2423
18742TIP3   OH277716   6.019   4.940   2.753  0.2786 -0.5185  0.0743
18742TIP3    H177717   5.979   4.915   2.837 -0.2034  0.4912  0.1623
18742TIP3    H277718   5.949   4.927   2.689  0.1916  0.0755  0.0452
18743TIP3   OH277719   3.225   5.746   4.163  0.6526  0.6274  0.2045
18743TIP3    H177720   3.320   5.748   4.171  0.5129  0.1047  2.5969
18743TIP3    H277721   3.205   5.655   4.139  0.6819  0.2476  1.5469
18744TIP3   OH277722   1.253   6.786  12.210  0.2042 -0.1223 -0.1207
18744TIP3    H177723   1.313   6.713  12.226  0.8798  0.7451  1.4749
18744TIP3    H277724   1.299   6.863  12.243 -1.0795  0.8279 -0.4611
18745TIP3   OH277725   5.874   5.986  16.078 -0.1802 -0.1569  0.1441
18745TIP3    H177726   5.794   5.973  16.028  0.2439  1.8568 -1.1822
18745TIP3    H277727   5.847   5.982  16.169 -1.6846 -0.1680 -0.2829
18746TIP3   OH277728   0.636   0.461   4.120 -0.0803  0.2888 -0.2501
18746TIP3    H177729   0.594   0.443   4.204  2.2600 -1.0923  0.7524
18746TIP3    H277730   0.721   0.416   4.126  0.6341  1.0744 -2.9402
18747TIP3   OH277731   0.785   3.778  15.904 -0.3366  0.2675 -1.0671
18747TIP3    H177732   0.724   3.816  15.841 -1.2493  0.3946 -0.1335
18747TIP3    H277733   0.829   3.853  15.943 -0.0110  0.2045 -1.3056
18748TIP3   OH277734   4.656   4.498  16.859 -0.5611 -0.2074 -0.5290
18748TIP3    H177735   4.660   4.513  16.765  0.0694 -0.7390 -0.5954
18748TIP3    H277736   4.692   4.579  16.897  2.5842 -1.2961 -0.8851
18749TIP3   OH277737   4.658   1.444   5.373 -0.2560 -0.0631  0.2483
18749TIP3    H177738   4.742   1.488   5.380  0.4390 -1.0090 -1.6790
18749TIP3    H277739   4.594   1.514   5.383  0.6860  0.5478  2.5779
18750TIP3   OH277740   2.416   2.367  12.736  0.2806  0.2052  0.3462
18750TIP3    H177741   2.365   2.445  12.715  0.6969  0.6070  0.8171
18750TIP3    H277742   2.495   2.400  12.778  0.0540 -0.5123  1.3797
18751TIP3   OH277743   1.649   3.817  12.103 -0.0179 -0.5884  0.5568
18751TIP3    H177744   1.663   3.827  12.197  4.6084 -1.5936  0.2138
18751TIP3    H277745   1.603   3.733  12.094 -0.7231 -0.3672  1.8669
18752TIP3   OH277746   3.274   2.363  14.082  0.1225 -0.5507 -0.1787
18752TIP3    H177747   3.367   2.354  14.103  0.3897  1.0915 -0.4877
18752TIP3    H277748   3.242   2.429  14.144 -0.8602 -1.1623 -0.0226
18753TIP3   OH277749   1.402   0.450  12.072  0.5799 -0.1375 -0.1756
18753TIP3    H177750   1.353   0.518  12.117  1.4582  1.2483 -1.2349
18753TIP3    H277751   1.475   0.430  12.131 -1.7927 -3.2124  2.0804
18754TIP3   OH277752   4.600   0.928  13.641 -0.2497 -0.5744  0.2325
18754TIP3    H177753   4.634   0.851  13.686 -0.6390 -0.3608  0.9019
18754TIP3    H277754   4.507   0.931  13.664 -0.1571  0.3090  0.5337
18755TIP3   OH277755   3.914   1.349   5.211  0.4021  0.0826  0.1094
18755TIP3    H177756   3.901   1.255   5.206 -2.6527  0.4881 -2.7528
18755TIP3    H277757   3.917   1.379   5.120 -1.2168  2.9706  0.8699
18756TIP3   OH277758   5.895   5.047  15.124  0.0990 -0.0605 -0.1368
18756TIP3    H177759   5.967   4.985  15.124 -0.5695 -0.8626 -0.0683
18756TIP3    H277760   5.936   5.132  15.113  1.2095 -0.3270  1.5180
18757TIP3   OH277761   2.593   2.835  12.214  0.3550  0.3212  0.3676
18757TIP3    H177762   2.573   2.924  12.184 -2.2109 -0.0123  0.8408
18757TIP3    H277763   2.599   2.783  12.133 -1.5466  0.3520  0.1534
18758TIP3   OH277764   5.249   1.582   4.204  0.2556  0.3186  0.1343
18758TIP3    H177765   5.169   1.539   4.234  0.1716 -0.9308 -1.7266
18758TIP3    H277766   5.270   1.645   4.273 -0.6049 -1.4768  2.1122
18759TIP3   OH277767   3.276   2.470  15.125  0.0009 -0.6162  0.1219
18759TIP3    H177768   3.276   2.450  15.218 -1.1772 -1.0902  0.0389
18759TIP3    H277769   3.217   2.405  15.086 -1.5288  1.1227 -0.5959
18760TIP3   OH277770   0.619   1.681  14.875  0.1680 -0.0130  0.1503
18760TIP3    H177771   0.626   1.591  14.907 -0.3154 -0.2360 -0.3447
18760TIP3    H277772   0.594   1.671  14.783  0.0062  0.6320  0.1227
18761TIP3   OH277773   4.335   3.023  15.129 -1.0916 -0.4082 -0.5797
18761TIP3    H177774   4.366   2.935  15.152 -0.9001 -0.4131 -0.8558
18761TIP3    H277775   4.352   3.075  15.207 -0.5160 -0.4432 -0.6762
18762TIP3   OH277776   4.286   6.058   1.733  0.4021  0.9669  0.6566
18762TIP3    H177777   4.284   6.149   1.762 -0.8886  1.4158 -0.6931
18762TIP3    H277778   4.275   6.063   1.638 -0.3028 -0.6202  0.6214
18763TIP3   OH277779   5.415   5.349  15.759  0.5500 -0.1734  0.1536
18763TIP3    H177780   5.489   5.311  15.807  0.6974  0.9397  0.8540
18763TIP3    H277781   5.455   5.396  15.686  0.3512 -1.5397 -0.8608
18764TIP3   OH277782   4.655   1.926   5.730 -0.1319 -0.2700  0.0448
18764TIP3    H177783   4.582   1.952   5.786 -1.0466  0.3182 -1.3482
18764TIP3    H277784   4.730   1.972   5.766 -0.6347 -0.1118  0.9321
18765TIP3   OH277785   0.046   4.340  14.199  0.0450 -0.0101  0.0228
18765TIP3    H177786   0.029   4.297  14.116  1.6966  1.2429 -1.0225
18765TIP3    H277787  -0.006   4.420  14.196 -0.1859 -0.1427  0.3798
18766TIP3   OH277788   5.840   5.493   4.993 -0.4240  0.3778 -0.6292
18766TIP3    H177789   5.933   5.513   4.986 -0.5977  1.8120  0.7257
18766TIP3    H277790   5.797   5.557   4.937 -0.5900 -0.8396 -1.9641
18767TIP3   OH277791   3.283   4.987  14.708  0.1900 -0.6708  0.2529
18767TIP3    H177792   3.332   5.014  14.785  1.9215  0.1730 -1.0888
18767TIP3    H277793   3.304   4.894  14.697 -0.3802 -0.8966  0.9926
18768TIP3   OH277794   3.260   5.807  10.423 -0.3261  0.1414  0.6211
18768TIP3    H177795   3.175   5.774  10.452 -0.0688 -0.6696  0.4765
18768TIP3    H277796   3.254   5.808  10.328  0.4008 -1.5140  0.5426
18769TIP3   OH277797   6.054   2.417   3.985 -0.7555  0.2090 -0.0271
18769TIP3    H177798   6.133   2.468   3.999 -0.5486  1.2606 -3.9094
18769TIP3    H277799   5.983   2.478   4.007 -0.4859  0.5736 -0.1480
18770TIP3   OH277800   3.045   0.142  13.564  0.4109  0.3557 -0.1420
18770TIP3    H177801   3.140   0.158  13.562  0.4934  0.0491  0.7237
18770TIP3    H277802   3.015   0.165  13.476  1.2570  0.6577 -0.3661
18771TIP3   OH277803   0.787   0.198   3.716  0.5762 -0.3534 -0.0588
18771TIP3    H177804   0.703   0.185   3.759  0.1560  1.5603 -0.2279
18771TIP3    H277805   0.851   0.192   3.787  0.0962  0.3159  0.4504
18772TIP3   OH277806   1.302   3.937   3.351  0.1536 -0.0327  0.7132
18772TIP3    H177807   1.351   3.973   3.277 -0.0040  3.2286  2.0174
18772TIP3    H277808   1.367   3.930   3.421 -0.2649 -0.3815  1.0711
18773TIP3   OH277809   6.377   4.589  12.463  0.6292 -0.4983  0.1990
18773TIP3    H177810   6.334   4.510  12.430 -1.9038  0.3803  1.1308
18773TIP3    H277811   6.418   4.628  12.385 -1.2580 -0.8552 -1.0547
18774TIP3   OH277812   1.929   2.820   5.895 -0.0201  0.4840 -0.7205
18774TIP3    H177813   1.935   2.729   5.924  0.8780  0.7757  0.0837
18774TIP3    H277814   2.013   2.836   5.852  0.2013  1.1949 -0.0399
18775TIP3   OH277815   6.344   6.402   3.414 -0.0707 -0.1071 -0.0385
18775TIP3    H177816   6.417   6.428   3.357 -1.5197  1.6976 -1.1686
18775TIP3    H277817   6.320   6.314   3.384  0.9734 -0.3270 -0.2956
18776TIP3   OH277818   6.194   0.990   2.746  0.1403 -0.3625 -0.3623
18776TIP3    H177819   6.213   0.939   2.667 -0.2474 -1.9798  0.5447
18776TIP3    H277820   6.121   0.944   2.787  0.6102  0.1986  1.1711
18777TIP3   OH277821   4.603   1.006  16.233 -0.0695  0.0664  0.2942
18777TIP3    H177822   4.528   1.060  16.210 -0.9901 -0.9562  0.8165
18777TIP3    H277823   4.566   0.929  16.275  1.3181 -0.1212  1.2538
18778TIP3   OH277824   5.639   4.721   2.598 -0.5950  0.4498 -0.5115
18778TIP3    H177825   5.655   4.630   2.622 -0.0756  0.8959  0.9151
18778TIP3    H277826   5.713   4.744   2.541 -0.8369 -0.0726 -1.0450
18779TIP3   OH277827   3.460   0.557  14.070  0.4748  0.0037 -0.2838
18779TIP3    H177828   3.373   0.516  14.064  0.2582  0.2803  0.8110
18779TIP3    H277829   3.519   0.484  14.086  0.1725  0.0139  0.9977
18780TIP3   OH277830   0.892   5.971   0.341  0.4677  0.0213  0.3345
18780TIP3    H177831   0.816   5.914   0.349  2.4965 -2.7886  1.3705
18780TIP3    H277832   0.924   5.955   0.252  0.0128  0.9823 -0.0060
18781TIP3   OH277833   4.356   0.301   3.131  0.0773  0.0274  0.5430
18781TIP3    H177834   4.285   0.280   3.191 -0.0160  2.5556  1.4455
18781TIP3    H277835   4.339   0.392   3.105  1.8816  0.0350 -0.8247
18782TIP3   OH277836   1.013   6.409  10.391 -0.1748  0.1197 -0.0479
18782TIP3    H177837   0.989   6.355  10.316 -0.6684  1.6713 -1.0536
18782TIP3    H277838   0.931   6.426  10.436  0.0661 -0.4645  0.6353
18783TIP3   OH277839   5.704   3.526   2.471 -0.1905  0.5642 -0.4273
18783TIP3    H177840   5.701   3.434   2.446 -0.2676  0.9534 -1.9844
18783TIP3    H277841   5.766   3.566   2.409 -0.3634  1.6062  0.0413
18784TIP3   OH277842   0.299   5.774  12.223 -0.0237  0.0021  0.0237
18784TIP3    H177843   0.376   5.778  12.166 -1.5730  1.6804 -2.1224
18784TIP3    H277844   0.255   5.693  12.198  0.7370 -0.6932  0.8830
18785TIP3   OH277845   5.388   2.344   3.128 -0.1564  1.0570 -0.3422
18785TIP3    H177846   5.307   2.295   3.142  0.8810 -0.4520  0.8120
18785TIP3    H277847   5.373   2.428   3.170 -0.4372  0.0166  1.7585
18786TIP3   OH277848   5.104   3.958   0.061  0.0329  0.8786  0.1123
18786TIP3    H177849   5.196   3.973   0.083 -0.3994  0.7376  2.2239
18786TIP3    H277850   5.107   3.888  -0.005  1.4392  1.0561 -0.0532
18787TIP3   OH277851   0.944   2.628   3.914  0.6269  0.4096  0.1219
18787TIP3    H177852   0.913   2.702   3.861  1.6229  0.7025 -0.0614
18787TIP3    H277853   1.013   2.588   3.861  0.4592 -0.3385  0.4578
18788TIP3   OH277854   5.575   0.290  12.201 -0.5766  0.5646  0.4637
18788TIP3    H177855   5.630   0.212  12.197 -2.2595 -0.6290 -1.1571
18788TIP3    H277856   5.486   0.256  12.196 -1.3373  2.6591 -1.8433
18789TIP3   OH277857   0.834   0.192  13.046  0.1280  0.2262 -0.5278
18789TIP3    H177858   0.841   0.281  13.010  0.5697  0.3024 -0.2530
18789TIP3    H277859   0.800   0.140  12.973  1.3629  0.3076 -1.1777
18790TIP3   OH277860   6.427   3.895  14.913 -0.3546 -0.4634  0.1999
18790TIP3    H177861   6.398   3.925  14.827  1.5508  1.5454  0.1876
18790TIP3    H277862   6.347   3.894  14.965 -1.1924  0.4791 -1.0007
18791TIP3   OH277863   3.881   2.962  12.217 -0.9260  0.5055  0.6856
18791TIP3    H177864   3.915   2.978  12.129  0.9065  0.9012  1.4045
18791TIP3    H277865   3.786   2.963  12.207 -0.8273  2.9093 -0.8963
18792TIP3   OH277866   2.362   6.427  13.246  0.0374 -0.8897 -0.3259
18792TIP3    H177867   2.376   6.493  13.314 -0.6856 -1.0591 -0.0039
18792TIP3    H277868   2.286   6.460  13.196  0.3079 -0.9695 -0.8010
18793TIP3   OH277869   0.019   0.354   1.886  0.6360 -0.3346  0.1231
18793TIP3    H177870   0.046   0.445   1.878  1.2808 -0.3697  1.5807
18793TIP3    H277871   0.039   0.331   1.976 -0.9524 -1.4719  0.2350
18794TIP3   OH277872   6.294   2.970  15.121  0.0078  0.1461  0.1105
18794TIP3    H177873   6.367   2.947  15.179  0.2081 -1.4341 -0.6951
18794TIP3    H277874   6.333   2.969  15.033 -1.0235 -1.0818 -0.3670
18795TIP3   OH277875   5.067   3.038  16.054 -0.2094 -0.1844 -0.4549
18795TIP3    H177876   5.062   3.133  16.065  0.0206 -0.2385  0.1701
18795TIP3    H277877   5.089   3.026  15.962  1.8554  0.4436 -0.0975
18796TIP3   OH277878   2.474   0.292  13.972  0.1490 -0.2011 -0.0590
18796TIP3    H177879   2.382   0.291  13.949  0.6402  0.8782 -2.3650
18796TIP3    H277880   2.520   0.290  13.888  2.1964  0.2629  0.9783
18797TIP3   OH277881   2.338   4.785   3.536 -0.0232 -0.1431  0.2961
18797TIP3    H177882   2.324   4.767   3.629 -1.9871 -1.2653 -0.1537
18797TIP3    H277883   2.268   4.737   3.492 -0.1610  1.6998 -1.6415
18798TIP3   OH277884   4.739   6.814   5.071  0.5485 -0.1257 -0.5349
18798TIP3    H177885   4.803   6.760   5.117  0.6062 -0.4784 -1.0242
18798TIP3    H277886   4.770   6.904   5.084  1.8454 -0.3571 -1.7902
18799TIP3   OH277887   4.803   4.885   2.426 -0.4247 -0.5012  0.2382
18799TIP3    H177888   4.893   4.899   2.397 -1.2293  1.4362 -1.6029
18799TIP3    H277889   4.806   4.899   2.521  1.0447  0.4412  0.0881
18800TIP3   OH277890   4.096   3.859  14.393 -0.7634 -0.6523  0.7241
18800TIP3    H177891   4.032   3.890  14.329  0.4208  2.0404  0.6984
18800TIP3    H277892   4.058   3.882  14.478  0.0603  1.0040  0.7084
18801TIP3   OH277893   6.058   1.887  11.641 -0.1687 -0.1004  0.2633
18801TIP3    H177894   6.043   1.856  11.552  0.7023 -0.1212  0.1125
18801TIP3    H277895   6.099   1.812  11.685  0.6754  0.3665  0.2884
18802TIP3   OH277896   4.520   0.885  13.370 -0.1098  0.4811  0.3280
18802TIP3    H177897   4.540   0.879  13.464  0.7364  1.1479  0.1995
18802TIP3    H277898   4.427   0.863  13.365  0.1657 -1.0268  1.1438
18803TIP3   OH277899   2.688   1.059  15.736 -0.0091 -0.3218 -0.2341
18803TIP3    H177900   2.613   1.038  15.681 -0.0361 -1.4285  0.1899
18803TIP3    H277901   2.758   1.078  15.674 -0.5555  0.4429 -0.6348
18804TIP3   OH277902   1.153   6.265  15.491  0.1840  0.2407  0.0431
18804TIP3    H177903   1.141   6.281  15.584 -2.1803 -0.6446 -0.0447
18804TIP3    H277904   1.190   6.346  15.457 -0.3805  1.1463  1.5093
18805TIP3   OH277905   3.549   6.509   1.213 -0.1096  0.0243 -0.2945
18805TIP3    H177906   3.591   6.475   1.134  0.0180 -2.0973  0.6060
18805TIP3    H277907   3.608   6.484   1.284 -0.4422  1.4890  0.5324
18806TIP3   OH277908   4.169   5.028  12.716  0.1974  0.3908  0.3544
18806TIP3    H177909   4.229   4.971  12.667 -0.4765  1.0004 -1.2471
18806TIP3    H277910   4.110   4.968  12.761 -0.0763 -0.2113 -0.7689
18807TIP3   OH277911   1.896   3.574   2.822  0.0319  0.1550 -0.3008
18807TIP3    H177912   1.880   3.519   2.898 -0.6025  1.3188  0.4394
18807TIP3    H277913   1.887   3.514   2.747  0.5413 -0.9722  0.5091
18808TIP3   OH277914   4.359   6.583   5.481 -0.1596  0.1761 -0.5274
18808TIP3    H177915   4.429   6.538   5.530 -1.0876  0.7610  1.4204
18808TIP3    H277916   4.292   6.515   5.469  0.3943 -0.1820 -1.7414
18809TIP3   OH277917   4.334   6.068  12.650  0.1805 -0.4268 -0.5365
18809TIP3    H177918   4.312   5.975  12.644  1.0965 -0.7774  0.9523
18809TIP3    H277919   4.270   6.111  12.594 -2.6445 -1.5923  1.5500
18810TIP3   OH277920   6.708   0.039   1.685  0.2417 -0.5146  0.0573
18810TIP3    H177921   6.687   0.030   1.778  1.9033 -0.9773  0.4229
18810TIP3    H277922   6.803   0.027   1.680  0.6206  2.2660 -1.3569
18811TIP3   OH277923   4.798   6.327   4.590 -0.7037  0.0001 -0.8724
18811TIP3    H177924   4.719   6.368   4.553 -1.6318  0.2525  1.2422
18811TIP3    H277925   4.829   6.390   4.654  0.7676 -0.4836 -1.0855
18812TIP3   OH277926   5.742   2.798  14.442 -0.1989 -0.0682 -0.3569
18812TIP3    H177927   5.752   2.844  14.526  0.9145 -1.9320  0.6044
18812TIP3    H277928   5.774   2.859  14.377 -0.3364  1.1350  0.6626
18813TIP3   OH277929   3.355   1.772   2.032  0.2427 -0.4747 -0.2654
18813TIP3    H177930   3.260   1.782   2.026  0.2203 -0.5655 -0.0811
18813TIP3    H277931   3.386   1.784   1.942  0.0731 -0.2882 -0.3000
18814TIP3   OH277932   5.400   5.213  14.309 -0.6646 -0.2178  0.2960
18814TIP3    H177933   5.412   5.124  14.342  0.2133 -0.5093 -0.7418
18814TIP3    H277934   5.358   5.201  14.223  2.1787  0.1101 -1.2832
18815TIP3   OH277935   4.428   0.915   2.094 -0.1650 -0.1162  0.0647
18815TIP3    H177936   4.351   0.958   2.056  0.9131  2.6558  0.7502
18815TIP3    H277937   4.460   0.978   2.159  2.8587 -1.0240 -0.3923
18816TIP3   OH277938   0.570   3.501   2.680  0.2034 -0.7378  1.4007
18816TIP3    H177939   0.533   3.575   2.730  0.6884 -0.4036  1.2741
18816TIP3    H277940   0.494   3.450   2.654 -0.1700 -0.1090  1.2204
18817TIP3   OH277941   3.855   2.999  14.383 -0.6052  0.1009 -0.6288
18817TIP3    H177942   3.772   2.967  14.346 -0.1681 -0.7872 -0.8692
18817TIP3    H277943   3.883   2.929  14.442 -0.0573  0.4245 -0.5023
18818TIP3   OH277944   3.919   4.966  16.409  0.2788 -0.2301  0.4279
18818TIP3    H177945   3.897   4.873  16.421  1.7389 -0.5265  0.9672
18818TIP3    H277946   3.842   5.002  16.364 -0.6067 -1.5428  0.8024
18819TIP3   OH277947   0.270   5.265   1.540 -0.3247  0.0629 -0.4470
18819TIP3    H177948   0.365   5.271   1.540 -0.3253  0.2029 -1.0893
18819TIP3    H277949   0.243   5.306   1.622  0.1991 -0.6907  0.1268
18820TIP3   OH277950   4.679   5.583  17.089 -0.2982 -0.3910 -0.1868
18820TIP3    H177951   4.600   5.617  17.047 -0.0715 -1.4169 -1.5028
18820TIP3    H277952   4.649   5.544  17.171 -0.9917  0.1132 -0.1949
18821TIP3   OH277953   0.496   0.417   4.342 -0.0147  0.0325 -0.2247
18821TIP3    H177954   0.497   0.338   4.396 -0.3781 -0.1051 -0.4166
18821TIP3    H277955   0.420   0.467   4.375  0.3458  0.4086  0.0482
18822TIP3   OH277956   6.353   3.111  12.912 -0.0936  0.3824 -0.1790
18822TIP3    H177957   6.266   3.149  12.901 -0.2349  0.5840  1.4535
18822TIP3    H277958   6.376   3.127  13.003  1.6783  0.3480 -0.5704
18823TIP3   OH277959   6.774   6.064  11.501  0.3807  0.5031  0.3680
18823TIP3    H177960   6.710   6.073  11.431  0.8381 -0.3931 -0.1949
18823TIP3    H277961   6.859   6.067  11.456  0.6733 -0.3271  0.8316
18824TIP3   OH277962   4.000   6.679  15.056 -0.1739  0.7214 -0.4403
18824TIP3    H177963   3.968   6.769  15.054 -0.7324  0.5455  0.0884
18824TIP3    H277964   4.095   6.687  15.064 -0.3767  1.3043  2.3903
18825TIP3   OH277965   3.839   5.479   2.012  0.5208  0.4483 -0.4901
18825TIP3    H177966   3.920   5.459   1.965 -0.4993 -2.1459 -1.3561
18825TIP3    H277967   3.808   5.394   2.042 -1.0678  1.5732  1.2583
18826TIP3   OH277968   5.840   3.420   5.522 -0.0019  0.3171 -0.2353
18826TIP3    H177969   5.867   3.497   5.571  0.3580  1.2405 -1.8146
18826TIP3    H277970   5.824   3.353   5.589  0.4936  1.4966  1.1100
18827TIP3   OH277971   4.207   5.688   5.989 -0.0281  0.7014 -0.2157
18827TIP3    H177972   4.197   5.745   6.064  0.0482  1.9009 -1.0917
18827TIP3    H277973   4.125   5.696   5.941 -0.9066 -1.6330  0.7525
18828TIP3   OH277974   2.679   4.739   4.108  0.1587  0.2206  0.1355
18828TIP3    H177975   2.742   4.739   4.181  1.6497  0.7846 -1.0901
18828TIP3    H277976   2.702   4.662   4.057 -0.9283 -0.2130  0.2823
18829TIP3   OH277977   4.664   1.641  13.701 -0.6734  0.6481  0.2256
18829TIP3    H177978   4.634   1.593  13.778 -0.4977 -0.3533 -0.3202
18829TIP3    H277979   4.658   1.578  13.629 -0.2056  1.3711 -0.4641
18830TIP3   OH277980   5.136   6.389  15.716 -0.2454  0.1262  0.0615
18830TIP3    H177981   5.201   6.350  15.774  1.0081  3.0403  0.8083
18830TIP3    H277982   5.066   6.418  15.774 -1.0149 -0.6744 -0.4371
18831TIP3   OH277983   4.839   3.562  15.685 -0.1532  0.7620 -0.0883
18831TIP3    H177984   4.879   3.576  15.771 -0.3297 -0.5613  0.2273
18831TIP3    H277985   4.755   3.521  15.704  0.3087 -0.6581 -0.8988
18832TIP3   OH277986   2.724   0.334  16.634 -0.4153  0.0276 -0.4654
18832TIP3    H177987   2.766   0.358  16.552  1.1487  1.4924  0.6894
18832TIP3    H277988   2.780   0.267  16.671 -0.9497 -0.4132 -0.4430
18833TIP3   OH277989   2.381   4.797   1.976 -0.0186  0.0091  0.3995
18833TIP3    H177990   2.432   4.836   1.905 -0.4139 -1.6620 -0.8437
18833TIP3    H277991   2.442   4.737   2.019 -0.6034 -1.2314 -0.4535
18834TIP3   OH277992   0.642   0.305  17.057  0.2369  0.1609 -0.0386
18834TIP3    H177993   0.547   0.316  17.053  0.2255 -0.0690 -0.3707
18834TIP3    H277994   0.671   0.376  17.116 -0.3795 -1.1674  1.9769
18835TIP3   OH277995   3.779   1.588   5.321 -0.5731  0.2555 -0.0174
18835TIP3    H177996   3.840   1.516   5.305 -0.3845  0.3276  0.3520
18835TIP3    H277997   3.696   1.559   5.283 -0.1510  0.4183 -1.0925
18836TIP3   OH277998   2.514   2.143  12.591 -0.0031 -0.8506 -0.7935
18836TIP3    H177999   2.532   2.235  12.610  0.1402 -0.7270 -1.4972
18836TIP3    H278000   2.526   2.099  12.674 -0.6629 -0.1451 -0.3065
18837TIP3   OH278001   4.878   6.183   1.814 -0.6875 -0.6221  0.1858
18837TIP3    H178002   4.787   6.204   1.792 -1.3380 -1.8718  1.5587
18837TIP3    H278003   4.928   6.222   1.742 -2.3145 -0.2067 -0.7978
18838TIP3   OH278004   1.242   6.553   5.071  0.6582  0.2588  0.0128
18838TIP3    H178005   1.287   6.536   5.154  3.1413  0.8745 -1.0999
18838TIP3    H278006   1.262   6.644   5.051  1.1839 -0.2220 -1.8439
18839TIP3   OH278007   5.382   0.737   5.265 -0.3209 -0.0474 -0.7056
18839TIP3    H178008   5.382   0.758   5.359  1.0721  1.9259 -1.0912
18839TIP3    H278009   5.471   0.706   5.248 -0.1459  0.9058 -1.6086
18840TIP3   OH278010   4.467   6.285  17.177  0.3578 -0.2979  0.2210
18840TIP3    H178011   4.527   6.232  17.124  1.9815  2.6228 -1.1390
18840TIP3    H278012   4.420   6.339  17.113 -1.9392 -0.7107  1.4486
18841TIP3   OH278013   0.554   6.718  14.903  0.2028  0.1019 -0.2883
18841TIP3    H178014   0.464   6.753  14.901 -0.0118 -0.3537  0.8002
18841TIP3    H278015   0.608   6.793  14.878 -0.4754  0.3743 -1.0111
18842TIP3   OH278016   1.409   6.304  17.272 -0.0266  1.2268  0.3505
18842TIP3    H178017   1.373   6.227  17.317 -0.6565  2.1468  1.4659
18842TIP3    H278018   1.461   6.348  17.338  0.6427  1.5743 -0.3951
18843TIP3   OH278019   1.954   1.376  14.643  0.3058 -0.6686  0.2411
18843TIP3    H178020   1.861   1.392  14.662  0.0404 -2.3002  0.4890
18843TIP3    H278021   1.999   1.452  14.679 -0.9739  0.4350 -0.4040
18844TIP3   OH278022   1.635   6.270  11.289 -0.8188 -0.6671 -0.5316
18844TIP3    H178023   1.576   6.283  11.215 -1.4354  0.1011  0.0711
18844TIP3    H278024   1.672   6.183  11.276 -0.1943 -0.1871 -2.2463
18845TIP3   OH278025   4.643   3.052  12.479  0.1195  0.2697 -0.3711
18845TIP3    H178026   4.653   3.103  12.399 -0.6232  0.7823 -0.1466
18845TIP3    H278027   4.728   3.057  12.522  0.7820 -0.6672 -1.4973
18846TIP3   OH278028   5.444   4.354  11.407 -0.3636 -0.0433 -0.0593
18846TIP3    H178029   5.486   4.332  11.324  0.5138  3.3553 -0.6954
18846TIP3    H278030   5.505   4.323  11.474  0.2344 -0.4752 -0.7813
18847TIP3   OH278031   5.358   1.367  16.882 -1.0241 -0.3268 -0.0613
18847TIP3    H178032   5.342   1.273  16.873 -0.7036 -0.2601 -1.7793
18847TIP3    H278033   5.372   1.397  16.792  0.2628  1.1180  0.5757
18848TIP3   OH278034   3.673   1.806   4.897  0.1601  0.3383 -0.0603
18848TIP3    H178035   3.695   1.849   4.814  0.4800  1.8359  0.7598
18848TIP3    H278036   3.657   1.879   4.958 -1.8567 -0.7001  0.7498
18849TIP3   OH278037   6.221   1.674   1.752 -0.2928 -0.2520  0.0543
18849TIP3    H178038   6.272   1.718   1.820  0.1368  2.0491 -1.6467
18849TIP3    H278039   6.276   1.601   1.725  0.7291  0.3656  0.3758
18850TIP3   OH278040   4.046   4.365  16.302 -0.4423 -0.1887  0.3629
18850TIP3    H178041   3.972   4.318  16.339 -1.2689  1.3280  0.7368
18850TIP3    H278042   4.123   4.326  16.344 -1.1300 -0.8232  1.0571
18851TIP3   OH278043   5.165   3.901  13.120  0.8357  0.3669 -0.5302
18851TIP3    H178044   5.201   3.986  13.094  1.9515 -0.2415 -1.0378
18851TIP3    H278045   5.159   3.851  13.039  2.5841 -0.8934  0.0466
18852TIP3   OH278046   2.197   5.177   1.559  0.3332  0.1277 -0.3469
18852TIP3    H178047   2.292   5.180   1.552  0.2988 -0.0402 -1.0140
18852TIP3    H278048   2.171   5.266   1.584  0.6716  0.1366 -0.0230
18853TIP3   OH278049   4.431   4.004  12.449  0.0230 -0.2964  0.0438
18853TIP3    H178050   4.394   4.001  12.537 -1.3797  0.2118 -0.5021
18853TIP3    H278051   4.483   4.084  12.447  0.6229 -0.6660  0.6158
18854TIP3   OH278052   5.995   3.746  14.378 -0.1559 -0.5046  0.2503
18854TIP3    H178053   5.952   3.666  14.348 -0.6776 -0.3372  0.5398
18854TIP3    H278054   6.079   3.747  14.332 -0.4528 -0.8467 -0.3090
18855TIP3   OH278055   5.723   0.208  14.521  0.3726 -0.0939  0.1189
18855TIP3    H178056   5.726   0.173  14.432  1.3063 -0.8218  0.4190
18855TIP3    H278057   5.748   0.134  14.577 -2.1238 -0.2216  1.1800
18856TIP3   OH278058   3.812   1.000   2.380  0.3604  0.3507  0.0418
18856TIP3    H178059   3.770   1.086   2.379 -0.4770 -0.0125  1.3586
18856TIP3    H278060   3.803   0.968   2.290 -0.6886  0.9994 -0.1038
18857TIP3   OH278061   2.392   6.799  11.826  0.2721  0.6152  0.0354
18857TIP3    H178062   2.339   6.723  11.849  1.0203 -0.0970 -0.5106
18857TIP3    H278063   2.479   6.763  11.808  0.7318  1.6463  0.0975
18858TIP3   OH278064   0.900   2.860  11.444  0.5333 -0.4344 -0.6744
18858TIP3    H178065   0.840   2.797  11.404 -0.4174 -0.6788  1.0276
18858TIP3    H278066   0.890   2.939  11.390 -1.9437 -0.2250 -0.0603
18859TIP3   OH278067   1.027   3.584  16.045 -0.0878  0.2208  0.7144
18859TIP3    H178068   1.105   3.561  16.095  1.5491  0.3883 -1.6088
18859TIP3    H278069   1.056   3.654  15.986 -1.9918  0.2974 -0.2104
18860TIP3   OH278070   5.901   2.022  10.706  0.5803  0.0412 -0.4492
18860TIP3    H178071   5.816   2.037  10.747  0.1477 -1.0092 -0.9387
18860TIP3    H278072   5.934   1.943  10.748  1.1987  0.2871 -0.4626
18861TIP3   OH278073   0.828   4.771   3.880 -0.1493  0.1699 -0.6916
18861TIP3    H178074   0.774   4.847   3.898 -0.6023 -0.0573 -1.0437
18861TIP3    H278075   0.780   4.697   3.917 -0.1687 -0.0574 -1.1550
18862TIP3   OH278076   6.333   5.761   6.208  0.4332 -0.0627  0.5524
18862TIP3    H178077   6.367   5.740   6.295  2.5932 -0.3797 -0.3008
18862TIP3    H278078   6.241   5.734   6.211  0.7351 -1.0700  2.3903
18863TIP3   OH278079   4.971   5.078  10.936  0.6589  0.1209  0.2026
18863TIP3    H178080   4.892   5.043  10.978 -0.1542  1.1714 -0.4080
18863TIP3    H278081   4.938   5.134  10.866  1.9683 -0.3427 -0.8353
18864TIP3   OH278082   1.752   2.175   1.821 -0.8900  0.7299  0.5906
18864TIP3    H178083   1.741   2.158   1.914 -1.1446  0.9868  0.6086
18864TIP3    H278084   1.664   2.193   1.788 -1.0821 -1.2156 -0.0945
18865TIP3   OH278085   6.726   5.466  13.663 -0.3228  0.0631  0.1000
18865TIP3    H178086   6.661   5.433  13.725  0.6339 -0.3603  0.8905
18865TIP3    H278087   6.681   5.464  13.578 -1.7379  0.8967  0.7915
18866TIP3   OH278088   4.468   2.476   1.727 -0.2531 -0.1763  0.1677
18866TIP3    H178089   4.487   2.382   1.733  1.4897  0.1528  0.2010
18866TIP3    H278090   4.506   2.503   1.644 -0.2696  0.6187  0.4123
18867TIP3   OH278091   3.704   3.716   3.827  0.3629  0.0418 -0.1908
18867TIP3    H178092   3.646   3.650   3.864  1.4861  1.1722  4.1536
18867TIP3    H278093   3.791   3.676   3.827  0.8045  0.9434  1.0274
18868TIP3   OH278094   2.716   1.366   1.836 -0.3886  0.1077  0.7297
18868TIP3    H178095   2.752   1.316   1.763  0.2670  0.0433  1.0942
18868TIP3    H278096   2.754   1.454   1.827 -0.9191  0.3225  0.5465
18869TIP3   OH278097   5.772   6.746   4.431  0.1688  0.0292 -0.6464
18869TIP3    H178098   5.855   6.791   4.439 -0.4490  1.2724 -0.9689
18869TIP3    H278099   5.759   6.703   4.516  0.5427  0.8724 -0.1577
18870TIP3   OH278100   6.336   3.541   6.111 -0.2866  0.3720  1.0855
18870TIP3    H178101   6.421   3.540   6.157  0.3718 -2.0739 -0.0015
18870TIP3    H278102   6.359   3.554   6.019 -1.1732  0.3342  0.8525
18871TIP3   OH278103   6.658   4.729   6.044  0.5469 -0.3018  0.3123
18871TIP3    H178104   6.621   4.813   6.073 -2.4514 -0.1289 -3.1794
18871TIP3    H278105   6.618   4.664   6.102 -1.5773  0.3404 -0.3264
18872TIP3   OH278106   1.047   3.595   5.152 -0.1273 -0.0273  0.3449
18872TIP3    H178107   0.981   3.613   5.086 -0.9552 -2.0510  0.5435
18872TIP3    H278108   1.122   3.650   5.127 -1.9905  2.7228  0.4244
18873TIP3   OH278109   4.391   3.550   0.176 -0.0980 -1.1211  0.5800
18873TIP3    H178110   4.327   3.497   0.224 -0.7358 -0.4308  0.5046
18873TIP3    H278111   4.340   3.592   0.107 -0.1758  1.6073  2.1610
18874TIP3   OH278112   5.339   2.329   1.018  0.0763 -0.0358  0.6599
18874TIP3    H178113   5.312   2.351   1.108  0.7237  0.1453  0.8144
18874TIP3    H278114   5.392   2.250   1.028  0.9117  0.5031  0.5488
18875TIP3   OH278115   6.240   6.148   1.190  0.5566  0.7043  0.4088
18875TIP3    H178116   6.226   6.241   1.205 -2.1146  0.3149  0.9304
18875TIP3    H278117   6.164   6.120   1.138  2.4511 -0.7780 -1.7949
18876TIP3   OH278118   2.328   3.621  11.728  0.0836 -0.6993 -0.2798
18876TIP3    H178119   2.424   3.619  11.732  0.0281 -1.6166  0.8771
18876TIP3    H278120   2.307   3.578  11.645  0.6574 -0.7333 -0.4176
18877TIP3   OH278121   3.080   3.455  12.799  0.6377 -0.2538 -0.1842
18877TIP3    H178122   3.042   3.396  12.865  0.7525 -1.6770 -1.3517
18877TIP3    H278123   3.174   3.441  12.806  0.9717  2.3405  1.8322
18878TIP3   OH278124   5.914   4.644  15.065  0.4777 -0.1534 -0.3144
18878TIP3    H178125   5.976   4.717  15.062 -1.2321  1.3325 -2.7071
18878TIP3    H278126   5.873   4.650  15.151  1.2381  0.9534 -0.0145
18879TIP3   OH278127   1.715   0.926   4.655  0.0701  0.4427 -0.3993
18879TIP3    H178128   1.778   0.915   4.726  0.3046 -0.1038 -0.6802
18879TIP3    H278129   1.637   0.962   4.697  0.6342  1.3243 -0.0797
18880TIP3   OH278130   3.300   2.481  13.470  0.3531  0.1985 -0.0468
18880TIP3    H178131   3.362   2.467  13.398 -0.3373 -1.3859 -0.3832
18880TIP3    H278132   3.217   2.502  13.427  0.6403  2.5943  0.4055
18881TIP3   OH278133   0.638   4.440   0.372 -0.0749  0.1384  0.3436
18881TIP3    H178134   0.720   4.482   0.348  1.6476 -2.2282  1.6202
18881TIP3    H278135   0.630   4.367   0.311 -1.0601  0.1386  0.4565
18882TIP3   OH278136   1.095   6.075  14.200 -0.1855  0.1343  0.3496
18882TIP3    H178137   1.053   6.091  14.284 -1.1579  0.7574 -0.2451
18882TIP3    H278138   1.187   6.061  14.222 -0.3773  0.5580  1.4878
18883TIP3   OH278139   4.447   0.098   0.378  0.1360  0.0253  0.1037
18883TIP3    H178140   4.353   0.101   0.397  0.6920  1.8999  3.3918
18883TIP3    H278141   4.488   0.105   0.464  3.2785  1.1432 -1.3524
18884TIP3   OH278142   2.953   5.237   0.186 -0.3605 -0.6507 -0.2781
18884TIP3    H178143   2.976   5.156   0.142  1.0740 -0.6568  0.4284
18884TIP3    H278144   2.945   5.213   0.279 -1.2820 -0.2428 -0.2391
18885TIP3   OH278145   1.128   5.694  11.745  0.2961  0.3787  0.1409
18885TIP3    H178146   1.117   5.775  11.794  0.8836  1.0215 -0.7553
18885TIP3    H278147   1.184   5.718  11.671 -1.4094 -0.2816 -1.4484
18886TIP3   OH278148   6.694   5.998  15.529  0.4598  0.2001  0.2528
18886TIP3    H178149   6.621   5.937  15.523 -0.1911  0.9557  0.4611
18886TIP3    H278150   6.742   5.971  15.607  2.0644 -2.0820 -1.3700
18887TIP3   OH278151   0.467   5.064  11.989  0.1591 -0.2017 -0.4441
18887TIP3    H178152   0.527   5.065  12.064 -0.8682  1.9251  0.4235
18887TIP3    H278153   0.524   5.078  11.913  1.1391 -1.7831 -0.0497
18888TIP3   OH278154   1.238   5.070   2.545  0.1235  0.0806 -0.3791
18888TIP3    H178155   1.224   4.979   2.572  0.8353  0.0269 -0.1846
18888TIP3    H278156   1.174   5.084   2.475 -1.6805  0.1722  1.1913
18889TIP3   OH278157   0.030   5.150   2.926  0.1275  0.0388 -0.1429
18889TIP3    H178158  -0.059   5.136   2.958 -0.5086  2.3490 -0.7292
18889TIP3    H278159   0.084   5.150   3.005 -0.0370 -3.1789  0.0808
18890TIP3   OH278160   6.237   5.934   0.225  0.2726  0.0718  1.0527
18890TIP3    H178161   6.232   5.902   0.315  2.6322  0.4282  1.3772
18890TIP3    H278162   6.218   6.028   0.232 -1.9956 -0.3118  0.7683
18891TIP3   OH278163   1.382   5.213   2.347 -0.0956  0.4423  0.5399
18891TIP3    H178164   1.405   5.150   2.279 -1.8654  0.7676 -0.4177
18891TIP3    H278165   1.334   5.161   2.412  0.1027  0.4542  0.6971
18892TIP3   OH278166   2.198   3.805  14.377  0.0316  0.1631 -0.0154
18892TIP3    H178167   2.265   3.752  14.334 -0.5559 -0.1926 -0.5084
18892TIP3    H278168   2.198   3.775  14.468 -1.3886 -1.8550 -0.6101
18893TIP3   OH278169   5.344   4.088  14.709  0.0069 -0.5032  0.2398
18893TIP3    H178170   5.252   4.068  14.727  0.0596 -0.6358  0.3644
18893TIP3    H278171   5.393   4.030  14.768  0.1510  0.4302  1.0771
18894TIP3   OH278172   5.630   1.810   1.718 -0.1988  0.0277 -0.1142
18894TIP3    H178173   5.698   1.834   1.655  1.2191 -0.0143  1.3421
18894TIP3    H278174   5.605   1.721   1.694  0.9545 -0.3120 -0.1153
18895TIP3   OH278175   1.786   3.261  12.634 -0.5137  0.0516  0.2254
18895TIP3    H178176   1.763   3.169  12.648 -0.4978  0.0543  0.2719
18895TIP3    H278177   1.730   3.289  12.562 -2.2140  0.6482  1.7130
18896TIP3   OH278178   3.024   0.886  11.844 -0.3849 -0.1517  0.1237
18896TIP3    H178179   3.107   0.840  11.858 -0.7753 -0.9716 -0.1633
18896TIP3    H278180   3.050   0.972  11.810  0.3445 -0.5051 -0.2509
18897TIP3   OH278181   3.133   5.353  13.032 -0.1470  0.1485 -0.2847
18897TIP3    H178182   3.093   5.319  12.952 -1.2964 -1.8844  1.0739
18897TIP3    H278183   3.204   5.293  13.050 -0.6680 -0.1387  0.8721
18898TIP3   OH278184   6.195   6.213   1.506  0.3620 -0.7036  0.2864
18898TIP3    H178185   6.174   6.283   1.445  0.2632 -0.5995  0.4406
18898TIP3    H278186   6.201   6.256   1.591  0.1772 -0.9000  0.4005
18899TIP3   OH278187   4.430   1.968  14.808 -0.0610 -0.4352  0.0439
18899TIP3    H178188   4.440   1.873  14.794 -0.4479 -0.3879 -0.6384
18899TIP3    H278189   4.455   2.007  14.724  0.7517  0.1225  0.5335
18900TIP3   OH278190   1.359   3.584   1.576  0.2265 -0.4862  0.6145
18900TIP3    H178191   1.274   3.541   1.586 -0.9404  1.7894  1.1904
18900TIP3    H278192   1.399   3.578   1.663  1.4155 -2.8921 -0.0174
18901TIP3   OH278193   2.487   1.026   3.726  0.3588  0.3323 -0.4411
18901TIP3    H178194   2.565   1.047   3.675 -0.0908 -0.4675 -1.5123
18901TIP3    H278195   2.476   0.932   3.715  0.5321  0.0399  1.6000
18902TIP3   OH278196   3.118   5.337   1.132  0.3028  0.6979 -0.0817
18902TIP3    H178197   3.058   5.283   1.183 -1.0020  0.8255 -1.4091
18902TIP3    H278198   3.078   5.342   1.045  2.8281 -0.1874 -1.4123
18903TIP3   OH278199   4.166   0.771   3.366  0.1107  0.7486 -0.5375
18903TIP3    H178200   4.254   0.744   3.337 -0.9054 -1.9576 -1.4321
18903TIP3    H278201   4.175   0.788   3.459  1.2227 -1.6771 -0.1165
18904TIP3   OH278202   6.356   2.160   2.993 -0.2880  0.3729  0.5615
18904TIP3    H178203   6.269   2.198   3.008 -0.3959  0.9069 -1.1732
18904TIP3    H278204   6.339   2.079   2.946  0.1146 -0.1295  1.2695
18905TIP3   OH278205   4.238   0.634  13.119 -0.3496  0.0666 -0.3319
18905TIP3    H178206   4.327   0.653  13.089  0.3369  2.4456  2.6606
18905TIP3    H278207   4.181   0.686  13.063  0.4482  0.9782 -0.3037
18906TIP3   OH278208   0.757   0.052   5.750 -0.1641  0.1711 -0.2170
18906TIP3    H178209   0.690   0.073   5.815  0.8330 -0.8299  1.1693
18906TIP3    H278210   0.731   0.103   5.672 -2.1224  0.3456  0.5006
18907TIP3   OH278211   5.711   1.590   0.703  0.5067  0.5652 -0.0164
18907TIP3    H178212   5.806   1.596   0.711  0.5146 -0.5029  0.7692
18907TIP3    H278213   5.679   1.668   0.748  1.0317  2.1093 -2.1124
18908TIP3   OH278214   6.270   0.765   5.302 -0.1276 -0.2997  0.2861
18908TIP3    H178215   6.191   0.721   5.332 -0.2099 -0.8606 -0.7369
18908TIP3    H278216   6.239   0.844   5.258 -0.0230  0.3406  1.3279
18909TIP3   OH278217   4.803   4.372   1.875  0.3928  0.2917 -0.1202
18909TIP3    H178218   4.786   4.280   1.892  1.5018  0.3464  1.5517
18909TIP3    H278219   4.752   4.419   1.941  0.6247  0.8243 -0.3126
18910TIP3   OH278220   4.374   6.322  16.603 -0.2609  0.0437 -0.5870
18910TIP3    H178221   4.421   6.256  16.551  0.4892  0.1028 -0.0020
18910TIP3    H278222   4.334   6.272  16.673 -0.2655  0.1179 -0.5368
18911TIP3   OH278223   5.383   0.687  11.899  0.0073  0.0346  0.6666
18911TIP3    H178224   5.418   0.598  11.902  1.6175  0.6625  1.5820
18911TIP3    H278225   5.351   0.697  11.809  0.9243 -1.0694  0.1949
18912TIP3   OH278226   3.508   0.593  13.727 -1.0523 -0.2351 -0.2678
18912TIP3    H178227   3.475   0.525  13.786 -1.4798 -0.1457 -0.3984
18912TIP3    H278228   3.453   0.669  13.745  0.3201  0.5351  0.8777
18913TIP3   OH278229   5.576   5.490   2.185 -0.2090  0.1796 -0.1480
18913TIP3    H178230   5.636   5.565   2.180  0.0086 -0.0880 -2.1453
18913TIP3    H278231   5.624   5.425   2.237  1.1603  0.0642 -1.4876
18914TIP3   OH278232   1.554   2.731   3.717 -0.3093 -0.3828  0.2073
18914TIP3    H178233   1.461   2.755   3.725  0.1025  1.1841  0.5469
18914TIP3    H278234   1.562   2.651   3.768 -1.3714 -0.2258  0.6467
18915TIP3   OH278235   4.207   1.899   4.160  0.5651 -0.2754  0.1185
18915TIP3    H178236   4.131   1.913   4.216  0.7120 -1.5593  0.6718
18915TIP3    H278237   4.273   1.961   4.193 -0.5187  1.5832 -1.0158
18916TIP3   OH278238   5.905   6.717   5.701 -0.2466  0.2891  0.2348
18916TIP3    H178239   5.991   6.716   5.657  0.7589  0.3145  2.0975
18916TIP3    H278240   5.850   6.661   5.647  1.0958 -0.1709 -0.7198
18917TIP3   OH278241   2.896   2.463   1.082 -0.6245 -0.0007 -0.3418
18917TIP3    H178242   2.936   2.540   1.042 -1.8944  1.3346  0.8198
18917TIP3    H278243   2.964   2.395   1.079  1.6719  2.0629  1.3229
18918TIP3   OH278244   3.865   6.564  16.127  0.1301 -0.1411  0.4272
18918TIP3    H178245   3.800   6.560  16.196 -1.6305  1.1950 -1.0624
18918TIP3    H278246   3.945   6.595  16.170 -1.1789  1.6126  1.6939
18919TIP3   OH278247   6.749   1.520  11.882  0.1886  0.6475 -0.3982
18919TIP3    H178248   6.711   1.441  11.845  1.5361  0.1370 -0.7551
18919TIP3    H278249   6.675   1.567  11.920 -1.0443  0.5131 -2.4854
18920TIP3   OH278250   3.077   6.333  16.205  0.7010 -0.1438 -0.8172
18920TIP3    H178251   3.025   6.400  16.249  1.1135 -1.8886  2.6600
18920TIP3    H278252   3.071   6.356  16.112 -0.9401  3.3737 -0.0299
18921TIP3   OH278253   3.908   1.622  13.416 -0.6798  0.2641 -0.3448
18921TIP3    H178254   3.921   1.645  13.324 -0.2940  1.3869 -0.0271
18921TIP3    H278255   3.866   1.700  13.454  0.1292  0.2241  0.6571
18922TIP3   OH278256   4.394   0.473   5.049 -0.4634  0.4189 -0.2034
18922TIP3    H178257   4.460   0.449   4.985  0.1988  1.4605  0.0639
18922TIP3    H278258   4.356   0.390   5.077  1.8397 -0.3544  0.8125
18923TIP3   OH278259   1.736   6.573  15.842  0.1729 -0.4112  0.1423
18923TIP3    H178260   1.823   6.572  15.883 -0.4997 -1.9964  1.6427
18923TIP3    H278261   1.675   6.566  15.915 -1.3872  2.9532 -0.6845
18924TIP3   OH278262   1.979   2.408   2.929  0.2662 -0.1856 -0.3967
18924TIP3    H178263   1.906   2.465   2.953  0.8921  1.0531 -1.3001
18924TIP3    H278264   1.972   2.333   2.988 -1.8608 -0.2202 -0.6111
18925TIP3   OH278265   1.617   4.781  11.361 -0.2520 -0.3358  0.2297
18925TIP3    H178266   1.589   4.872  11.355  2.3584  0.6466  1.2826
18925TIP3    H278267   1.575   4.748  11.441 -1.3536 -0.1374 -0.2570
18926TIP3   OH278268   1.852   4.320  14.995 -0.4904 -0.4019 -0.1541
18926TIP3    H178269   1.882   4.406  15.026  1.7335 -2.0485  2.7023
18926TIP3    H278270   1.889   4.312  14.907  0.0854  1.1383 -0.0813
18927TIP3   OH278271   1.658   3.019   0.560  0.2616  0.2410 -0.0523
18927TIP3    H178272   1.636   3.089   0.499  1.0352  0.5549  0.0124
18927TIP3    H278273   1.587   2.957   0.552  0.9093 -0.3055 -2.1497
18928TIP3   OH278274   1.563   6.590   6.059  0.1104 -0.8569 -0.0852
18928TIP3    H178275   1.628   6.618   6.123  1.4062 -0.1758 -1.6494
18928TIP3    H278276   1.483   6.635   6.086  0.7773 -0.1065  0.6972
18929TIP3   OH278277   2.078   0.909  17.234  0.6166 -0.3054 -0.5062
18929TIP3    H178278   2.169   0.934  17.249  1.8667 -4.7286  1.0080
18929TIP3    H278279   2.068   0.908  17.139  1.6185  1.6719 -0.6701
18930TIP3   OH278280   6.365   2.230  11.972 -0.2066  0.2172  0.1403
18930TIP3    H178281   6.282   2.212  12.016 -0.4925  1.4661  0.1302
18930TIP3    H278282   6.341   2.244  11.880  0.0892  0.0123  0.0300
18931TIP3   OH278283   0.141   4.772   4.455  0.1197 -0.4190 -0.1809
18931TIP3    H178284   0.060   4.769   4.404  0.6067 -0.3494 -0.9748
18931TIP3    H278285   0.187   4.849   4.421 -0.0025  0.2508  1.0850
18932TIP3   OH278286   5.771   1.622  11.696  0.0883 -0.1024  0.0404
18932TIP3    H178287   5.825   1.574  11.633 -0.2839 -0.1034 -0.2763
18932TIP3    H278288   5.771   1.712  11.664  0.3617  0.0111  0.3520
18933TIP3   OH278289   2.610   4.878  16.915 -0.1630  0.0025  0.6675
18933TIP3    H178290   2.633   4.970  16.931 -1.1029  0.1933  1.0443
18933TIP3    H278291   2.542   4.883  16.846  0.7868 -0.5177 -0.3345
18934TIP3   OH278292   4.807   5.743  13.890  0.3659  0.7070  0.0943
18934TIP3    H178293   4.821   5.753  13.985  1.0929  1.3806 -0.0724
18934TIP3    H278294   4.835   5.826  13.853  0.4469  0.3081 -0.7624
18935TIP3   OH278295   1.764   0.682   1.752 -0.0286 -0.3450 -0.4956
18935TIP3    H178296   1.841   0.740   1.752 -1.0722  1.1851 -2.4747
18935TIP3    H278297   1.690   0.740   1.771 -1.0504 -1.0967 -1.9916
18936TIP3   OH278298   2.153   5.447  10.862 -0.4842 -0.0286 -0.2036
18936TIP3    H178299   2.059   5.452  10.844 -0.4791  1.4393  0.0425
18936TIP3    H278300   2.168   5.354  10.882 -2.0079 -0.1899  0.4227
18937TIP3   OH278301   0.667   1.075  12.600 -0.0254  0.2277 -0.2345
18937TIP3    H178302   0.703   1.136  12.536 -1.9049 -1.0707 -2.7181
18937TIP3    H278303   0.588   1.118  12.632  1.6559  1.5364  2.5428
18938TIP3   OH278304   2.219   0.453  11.353  0.1473  0.2398  0.1332
18938TIP3    H178305   2.288   0.505  11.394  0.8448 -0.8984  0.4467
18938TIP3    H278306   2.179   0.404  11.425 -1.0777  0.9595 -0.0265
18939TIP3   OH278307   0.800   0.959   5.900 -0.4233 -0.0270  0.2924
18939TIP3    H178308   0.736   0.982   5.967 -1.9508  0.1934 -1.1619
18939TIP3    H278309   0.762   0.884   5.854  0.2340  0.2517 -0.7624
18940TIP3   OH278310   4.205   5.086  11.494 -0.1391  0.3092 -0.1139
18940TIP3    H178311   4.213   5.069  11.400 -2.7130 -0.2295 -0.3236
18940TIP3    H278312   4.184   5.000  11.532  0.8506  0.5256  0.9808
18941TIP3   OH278313   3.301   2.928  12.803 -0.4069  0.2175 -0.3690
18941TIP3    H178314   3.343   2.998  12.854 -0.9512  0.4278 -0.2011
18941TIP3    H278315   3.249   2.975  12.737  0.9649 -0.0581 -1.6888
18942TIP3   OH278316   3.611   5.065   5.901 -0.0126  0.1149 -0.3442
18942TIP3    H178317   3.557   5.062   5.979  0.3629  0.2402 -0.0748
18942TIP3    H278318   3.645   5.155   5.899  1.4452 -0.3900  0.3622
18943TIP3   OH278319   0.937   2.634  17.069 -0.0837  0.3713 -0.6181
18943TIP3    H178320   0.979   2.548  17.080 -0.4868  0.2546  0.0734
18943TIP3    H278321   0.865   2.618  17.009  0.9173  0.5975 -1.9212
18944TIP3   OH278322   1.695   4.545   4.379 -0.0382  0.3528 -0.6448
18944TIP3    H178323   1.724   4.478   4.317  3.8178  0.7165  0.4939
18944TIP3    H278324   1.695   4.626   4.329 -0.3684  0.1478 -0.9786
18945TIP3   OH278325   4.670   6.279  14.217  0.2400  0.0686  0.4648
18945TIP3    H178326   4.748   6.256  14.268 -0.8963 -0.8281  1.8888
18945TIP3    H278327   4.624   6.343  14.272 -1.0508 -0.9721  0.6462
18946TIP3   OH278328   0.305   5.016   4.977  0.2845  0.1131 -0.0321
18946TIP3    H178329   0.289   5.081   4.908  1.6946  2.5546  1.7785
18946TIP3    H278330   0.241   5.037   5.045  0.0419 -1.1415  0.1477
18947TIP3   OH278331   2.273   1.818   5.136  0.0461  0.0176 -0.2450
18947TIP3    H178332   2.340   1.769   5.088  1.0567  0.1508  0.9800
18947TIP3    H278333   2.191   1.798   5.090  0.7370 -1.1602 -1.0177
18948TIP3   OH278334   3.434   2.703  11.680  0.2302  0.1641 -0.3251
18948TIP3    H178335   3.476   2.654  11.608 -0.7529 -3.7295  1.4525
18948TIP3    H278336   3.503   2.710  11.746 -0.0554 -0.3256  0.0360
18949TIP3   OH278337   2.356   0.116   1.545 -0.3179  0.1522  0.3451
18949TIP3    H178338   2.387   0.201   1.574 -0.7205  0.7551 -0.9099
18949TIP3    H278339   2.434   0.070   1.514 -0.4211  1.1188 -1.4756
18950TIP3   OH278340   0.859   3.863   4.586 -0.0072  0.8333 -0.6682
18950TIP3    H178341   0.840   3.781   4.540 -0.0856  0.9422 -0.8303
18950TIP3    H278342   0.912   3.914   4.525  1.2570  0.3303 -0.0264
18951TIP3   OH278343   3.749   0.690   2.574  0.1334 -0.5187 -0.8351
18951TIP3    H178344   3.733   0.613   2.630  1.8657  0.6264  1.3893
18951TIP3    H278345   3.666   0.737   2.575  0.2897 -0.1972  1.4143
18952TIP3   OH278346   0.985   1.802   3.624 -0.4619 -0.2970  0.0944
18952TIP3    H178347   0.902   1.804   3.673  0.0379 -0.2089  0.9637
18952TIP3    H278348   0.973   1.868   3.555 -0.3645  1.2720  1.5023
18953TIP3   OH278349   3.431   5.290   4.144 -0.0675  0.5292 -0.1798
18953TIP3    H178350   3.357   5.273   4.086  0.0425  2.3106 -0.9186
18953TIP3    H278351   3.402   5.363   4.199  1.0644  1.1468 -0.3739
18954TIP3   OH278352   4.618   5.476   5.445  0.0478  0.1433 -0.5693
18954TIP3    H178353   4.657   5.563   5.456  2.1301 -0.4012 -2.7093
18954TIP3    H278354   4.672   5.419   5.500  2.4283 -0.5710 -3.3495
18955TIP3   OH278355   2.799   0.072  16.056  0.2184 -0.1046  0.3697
18955TIP3    H178356   2.843  -0.003  16.016  0.7895 -0.3189  1.3726
18955TIP3    H278357   2.824   0.146  16.000 -1.1053 -0.7701 -1.1721
18956TIP3   OH278358   1.957   2.367  11.580 -0.2521  0.0099 -0.2825
18956TIP3    H178359   2.045   2.329  11.586 -0.8013 -1.4530 -0.9863
18956TIP3    H278360   1.926   2.339  11.493 -1.5160  0.2699  0.0769
18957TIP3   OH278361   4.524   2.322  15.858  0.6995  0.2006 -0.7737
18957TIP3    H178362   4.556   2.346  15.945 -0.1408  1.5308 -0.7900
18957TIP3    H278363   4.603   2.301  15.808  1.3816  1.3552 -0.2304
18958TIP3   OH278364   1.595   1.017   2.930 -0.0828  0.4066  0.2715
18958TIP3    H178365   1.691   1.015   2.935 -0.0588 -0.3275 -0.3753
18958TIP3    H278366   1.566   0.956   2.997 -0.0713 -0.0846 -0.1680
18959TIP3   OH278367   2.999   1.176  11.821 -0.2215 -0.1301 -0.4279
18959TIP3    H178368   2.959   1.255  11.786 -0.8293  0.5717  1.7037
18959TIP3    H278369   3.089   1.201  11.843 -1.2077  0.9174  2.9117
18960TIP3   OH278370   3.790   4.256   6.409 -0.3192  0.4991  1.1511
18960TIP3    H178371   3.871   4.214   6.379 -0.8427  0.0581  0.3347
18960TIP3    H278372   3.734   4.183   6.436 -0.9531  0.7171  0.4375
18961TIP3   OH278373   0.983   4.064   4.402 -0.4338  0.6360 -0.2433
18961TIP3    H178374   1.075   4.037   4.402  0.4830  3.3662  1.2718
18961TIP3    H278375   0.969   4.100   4.314  0.0910  0.6408 -0.3286
18962TIP3   OH278376   0.196   1.912  16.091  0.5460 -0.4601  0.5809
18962TIP3    H178377   0.108   1.888  16.122  0.1616 -0.7847 -0.7067
18962TIP3    H278378   0.244   1.934  16.171 -0.7372 -0.1638  1.3070
18963TIP3   OH278379   4.820   0.917  11.839  0.1024 -0.5713  0.2234
18963TIP3    H178380   4.746   0.974  11.857 -0.5869 -1.2788 -0.2641
18963TIP3    H278381   4.867   0.960  11.767  0.6423  0.2859  1.0694
18964TIP3   OH278382   3.824   0.670  14.742  0.1050  0.1043  0.0834
18964TIP3    H178383   3.891   0.735  14.763  0.0974 -0.1671  0.9675
18964TIP3    H278384   3.810   0.622  14.823 -0.3953 -0.5483 -0.3757
18965TIP3   OH278385   1.898   4.340   5.952  0.2194  0.1834  0.7834
18965TIP3    H178386   1.811   4.301   5.943  0.9839 -1.1428 -1.7402
18965TIP3    H278387   1.954   4.269   5.984  0.9962  0.0278 -0.8114
18966TIP3   OH278388   2.094   3.106  12.739  0.2079  0.2807 -0.4938
18966TIP3    H178389   2.082   3.199  12.757  0.1057  0.0681  0.6617
18966TIP3    H278390   2.135   3.102  12.653  0.5521  1.4079 -0.3914
18967TIP3   OH278391   2.283   6.001   5.777 -0.2428 -0.1559  0.5157
18967TIP3    H178392   2.239   5.986   5.693  0.7873  1.6121 -0.3885
18967TIP3    H278393   2.225   6.061   5.824 -0.9705 -1.3820  1.2485
18968TIP3   OH278394   6.400   4.281  16.126  0.2970 -0.0744 -0.0140
18968TIP3    H178395   6.356   4.201  16.154 -0.2671  0.3335  0.2702
18968TIP3    H278396   6.482   4.281  16.176 -0.1043 -0.0227  0.6501
18969TIP3   OH278397   4.328   1.194  13.519  0.0702 -0.0829  0.6647
18969TIP3    H178398   4.317   1.105  13.552  1.4188  0.3432  2.4226
18969TIP3    H278399   4.286   1.194  13.433  2.6390 -3.2334 -0.7756
18970TIP3   OH278400   6.120   1.482  16.535  0.5037 -0.0188  0.2044
18970TIP3    H178401   6.131   1.446  16.446  1.5834 -2.5665  1.2514
18970TIP3    H278402   6.086   1.409  16.586  0.7548  1.1120  2.0848
18971TIP3   OH278403   3.474   0.464   6.619  0.1644  0.6745 -0.1229
18971TIP3    H178404   3.452   0.557   6.619 -0.1468  0.6054  0.7797
18971TIP3    H278405   3.569   0.461   6.604  0.6189  1.2661  2.2167
18972TIP3   OH278406   0.171   3.852  13.893  0.4880  0.4332  0.7251
18972TIP3    H178407   0.228   3.901  13.833 -0.4189 -0.6670 -1.1348
18972TIP3    H278408   0.085   3.855  13.851 -0.1455 -0.5577  1.9027
18973TIP3   OH278409   4.724   4.999   4.769 -0.8966  0.2547  0.4770
18973TIP3    H178410   4.771   5.038   4.695 -1.3562 -0.2127 -0.0634
18973TIP3    H278411   4.740   4.905   4.762  1.0207  0.3550  2.3308
18974TIP3   OH278412   5.340   3.540  15.233 -0.5425  0.4271 -0.1474
18974TIP3    H178413   5.251   3.507  15.231 -0.5308  0.4074 -0.3973
18974TIP3    H278414   5.339   3.617  15.176 -0.5487  0.8055  0.3643
18975TIP3   OH278415   5.988   1.878  16.976  0.6238 -0.1244 -0.0377
18975TIP3    H178416   5.931   1.940  16.929  1.5343  0.4814 -0.3857
18975TIP3    H278417   6.014   1.815  16.909  0.5386 -0.2653  0.0633
18976TIP3   OH278418   1.487   6.476  13.258  0.3635  0.9443 -0.0667
18976TIP3    H178419   1.572   6.505  13.227  0.8925  2.4938  2.5497
18976TIP3    H278420   1.506   6.394  13.305 -0.4409 -1.4347 -3.5087
18977TIP3   OH278421   5.265   5.929  15.500  0.0116  0.8791 -0.1066
18977TIP3    H178422   5.350   5.944  15.542 -0.4364  0.5612  0.9399
18977TIP3    H278423   5.257   6.000  15.436  0.5975  1.5240  0.5184
18978TIP3   OH278424   5.458   3.091   2.740 -0.0871  0.0181 -0.2376
18978TIP3    H178425   5.437   3.006   2.700 -0.6044  1.2366 -2.7578
18978TIP3    H278426   5.383   3.146   2.721  0.4677  1.2083  0.8937
18979TIP3   OH278427   5.148   1.232   4.877  0.5413  0.7292 -0.0030
18979TIP3    H178428   5.135   1.188   4.961 -0.7472 -0.3547 -0.7415
18979TIP3    H278429   5.243   1.242   4.870  1.1340 -3.3452 -0.4153
18980TIP3   OH278430   5.083   4.613  17.122  0.4456  0.0104  0.0530
18980TIP3    H178431   5.167   4.573  17.100 -0.7964 -2.6309 -0.2493
18980TIP3    H278432   5.029   4.541  17.154 -2.0391  1.3938 -0.7106
18981TIP3   OH278433   0.160   2.027  13.295  0.3763  0.3396  0.1134
18981TIP3    H178434   0.175   2.025  13.201 -0.7034  0.4845 -0.0792
18981TIP3    H278435   0.244   2.004  13.334  1.5474  2.7875 -0.8090
18982TIP3   OH278436   3.723   4.406  11.909  0.1670 -0.3537  0.1745
18982TIP3    H178437   3.656   4.371  11.850 -0.0441  0.1052  0.1300
18982TIP3    H278438   3.721   4.501  11.893  0.0386 -0.2149  0.9908
18983TIP3   OH278439   4.990   2.721  13.785  0.2138 -0.3090  0.1770
18983TIP3    H178440   4.970   2.628  13.775  0.8729 -0.2329 -2.6595
18983TIP3    H278441   4.904   2.763  13.790 -0.1294 -0.9478 -0.1998
18984TIP3   OH278442   3.163   0.062   4.376  0.3695  0.7280  0.4125
18984TIP3    H178443   3.081   0.024   4.345  0.7795 -0.7194  0.9989
18984TIP3    H278444   3.163   0.044   4.470  1.1849  1.0619  0.4842
18985TIP3   OH278445   0.908   1.560   2.447 -0.0404  0.5394  0.6094
18985TIP3    H178446   0.874   1.503   2.378  2.0557  0.1691 -0.1665
18985TIP3    H278447   0.863   1.644   2.433  1.8230  1.1743 -2.6243
18986TIP3   OH278448   0.925   2.190   4.544  0.3419  0.3313  1.1613
18986TIP3    H178449   0.962   2.278   4.539 -1.3501  1.0112 -0.5878
18986TIP3    H278450   0.879   2.189   4.628  1.2863  0.7024  1.7054
18987TIP3   OH278451   4.072   3.570  14.823  0.2688  1.1518  0.5822
18987TIP3    H178452   4.065   3.507  14.752 -1.5175  0.8536  0.9750
18987TIP3    H278453   4.133   3.636  14.791 -0.2389  0.8455 -1.0927
18988TIP3   OH278454   1.583   4.541   3.866 -0.2524 -0.2316  0.5965
18988TIP3    H178455   1.580   4.562   3.960  0.4096 -0.7762  0.7505
18988TIP3    H278456   1.598   4.625   3.823 -0.2827 -0.0141  1.0050
18989TIP3   OH278457   3.074   4.555   0.960  0.2100 -0.0448  0.0107
18989TIP3    H178458   3.074   4.468   0.919  2.0058 -0.8891  1.6175
18989TIP3    H278459   3.154   4.597   0.928  0.4579  0.1575  0.8654
18990TIP3   OH278460   6.045   5.179   2.606 -0.6755  0.8274 -0.4007
18990TIP3    H178461   6.139   5.175   2.590  0.2638  0.7842  3.9548
18990TIP3    H278462   6.021   5.089   2.630 -1.4360  1.1985  0.2499
18991TIP3   OH278463   5.849   2.420  15.176  0.1274  0.1932 -0.4268
18991TIP3    H178464   5.812   2.419  15.264  1.9583 -0.2290  0.3962
18991TIP3    H278465   5.820   2.503  15.138 -0.0256  0.7609  0.8740
18992TIP3   OH278466   6.408   5.229   1.866 -0.1035 -0.7478 -0.2916
18992TIP3    H178467   6.418   5.297   1.933 -2.9080 -0.7570  0.2465
18992TIP3    H278468   6.403   5.277   1.783 -0.8820 -0.3776 -0.0355
18993TIP3   OH278469   3.198   5.028  15.674  0.1220  0.4460  0.3141
18993TIP3    H178470   3.148   5.077  15.739  0.6098  0.4526  0.6871
18993TIP3    H278471   3.132   4.977  15.627 -0.1022 -0.6421  1.7333
18994TIP3   OH278472   2.807   5.388   3.443  0.0127 -0.6067 -0.3627
18994TIP3    H178473   2.826   5.442   3.366  1.6709 -0.5930  0.0164
18994TIP3    H278474   2.779   5.450   3.510  2.5272 -0.0351  0.2752
18995TIP3   OH278475   3.113   1.748   5.557 -0.7583 -0.3869 -0.1706
18995TIP3    H178476   3.103   1.727   5.464  1.3479  0.4255 -0.6281
18995TIP3    H278477   3.052   1.820   5.573 -1.9355 -1.2646 -0.6296
18996TIP3   OH278478   0.298   2.941  16.771 -0.4642 -0.4283  0.1582
18996TIP3    H178479   0.394   2.945  16.779 -0.5274  0.0914  0.7875
18996TIP3    H278480   0.267   3.002  16.838 -1.1833  0.9331 -1.3541
18997TIP3   OH278481   1.570   3.529   4.682 -0.1335 -0.4077  0.4597
18997TIP3    H178482   1.560   3.484   4.598  0.5646 -0.1953  0.2555
18997TIP3    H278483   1.543   3.619   4.664  1.9073  0.1497 -0.0750
18998TIP3   OH278484   6.443   0.597   6.702  0.2295 -0.5334  0.2319
18998TIP3    H178485   6.387   0.629   6.631 -0.7083 -0.3615  1.0101
18998TIP3    H278486   6.479   0.514   6.671 -1.8811 -1.5585  0.3516
18999TIP3   OH278487   5.772   5.897   1.898 -0.3889  0.1402 -0.1497
18999TIP3    H178488   5.816   5.982   1.898  1.4088 -0.7337 -0.6894
18999TIP3    H278489   5.826   5.842   1.841  0.5968 -2.3545  2.8714
19000TIP3   OH278490   1.453   2.465  13.694 -0.0953 -0.0289  0.3160
19000TIP3    H178491   1.504   2.416  13.759  0.6237  1.2539  0.7606
19000TIP3    H278492   1.516   2.489  13.627 -0.7548 -0.9905 -0.7048
19001TIP3   OH278493   0.958   0.452   0.225 -0.1195 -0.0136 -0.3928
19001TIP3    H178494   0.964   0.356   0.232  0.6868  0.0896  0.4684
19001TIP3    H278495   1.042   0.479   0.187  0.3568  0.4888  0.9759
19002TIP3   OH278496   2.694   5.481  15.951 -0.2665 -0.0054 -0.2256
19002TIP3    H178497   2.684   5.444  15.863  3.4697 -1.1644 -0.3209
19002TIP3    H278498   2.746   5.560  15.938  0.0703 -0.0277  0.9121
19003TIP3   OH278499   2.997   3.697   5.531 -0.2903 -0.2614  0.4411
19003TIP3    H178500   3.011   3.666   5.441 -0.0542 -0.0413  0.4018
19003TIP3    H278501   3.062   3.766   5.543 -0.8054  0.2167  0.5305
19004TIP3   OH278502   2.375   4.138  17.239  0.0471  0.1144  0.3712
19004TIP3    H178503   2.405   4.225  17.267 -1.8302  0.2318  2.3244
19004TIP3    H278504   2.354   4.149  17.146  1.6868  1.1726  0.0759
19005TIP3   OH278505   5.128   3.834  14.514 -0.1934  0.1028 -0.3618
19005TIP3    H178506   5.187   3.779  14.565  0.6454  1.4773  0.2262
19005TIP3    H278507   5.114   3.911  14.569  1.1421  1.8888 -2.3577
19006TIP3   OH278508   4.220   1.102   5.337  0.6327 -0.7328  0.6737
19006TIP3    H178509   4.140   1.051   5.347  0.4468 -0.6391 -0.2498
19006TIP3    H278510   4.226   1.119   5.243  0.7189  0.9003  0.9492
19007TIP3   OH278511   5.755   2.017  14.260 -0.1417  0.2658 -0.5447
19007TIP3    H178512   5.794   1.930  14.268  0.9147  0.6704 -1.2253
19007TIP3    H278513   5.666   2.006  14.295  1.4989  0.0977  4.4012
19008TIP3   OH278514   3.520   1.910  14.241 -0.2449 -0.2110  0.0719
19008TIP3    H178515   3.614   1.913  14.225 -0.4907  0.9146 -1.2972
19008TIP3    H278516   3.507   1.830  14.293  1.5759  0.1813  1.2142
19009TIP3   OH278517   4.080   4.488   1.523 -0.1116  0.3632 -0.1288
19009TIP3    H178518   4.048   4.440   1.600 -1.3027 -1.6495 -1.7887
19009TIP3    H278519   4.005   4.542   1.496 -1.0112 -1.5908 -1.8509
19010TIP3   OH278520   1.955   1.902   2.737  0.0420  0.2088  0.4756
19010TIP3    H178521   1.884   1.849   2.772  0.4632 -0.8231 -0.1890
19010TIP3    H278522   2.003   1.843   2.679 -2.5521  2.5704 -4.6691
19011TIP3   OH278523   0.669   0.811   6.498 -0.5778 -0.0534  0.5158
19011TIP3    H178524   0.744   0.841   6.550 -0.0023 -0.6011  0.0225
19011TIP3    H278525   0.632   0.739   6.549 -0.2229 -0.3640  0.3451
19012TIP3   OH278526   6.347   5.136  14.926  0.3165 -0.4011 -0.4736
19012TIP3    H178527   6.378   5.048  14.944  0.1542 -0.3292  0.1592
19012TIP3    H278528   6.254   5.135  14.949  0.3966  0.0309 -0.1109
19013TIP3   OH278529   4.568   6.081   3.723  0.4904 -0.4326  0.0217
19013TIP3    H178530   4.502   6.141   3.690 -1.8048 -1.9495  1.5226
19013TIP3    H278531   4.633   6.074   3.653 -1.0000  1.0360 -1.5869
19014TIP3   OH278532   0.644   5.815  17.212 -0.1589  0.4671  0.3826
19014TIP3    H178533   0.731   5.776  17.204 -0.7014 -0.7379  0.1306
19014TIP3    H278534   0.592   5.772  17.144 -1.2247  0.3826  1.2227
19015TIP3   OH278535   0.189   2.121   2.442  0.0076  0.1517 -0.2534
19015TIP3    H178536   0.251   2.174   2.392 -0.5981  1.3517  0.2179
19015TIP3    H278537   0.119   2.101   2.379  0.6929 -0.9408 -0.6986
19016TIP3   OH278538   2.223   5.395   6.280 -0.4648 -0.3014 -0.4727
19016TIP3    H178539   2.163   5.414   6.208 -0.3442 -1.4643 -0.8986
19016TIP3    H278540   2.217   5.300   6.292 -0.1411 -0.1812  0.7531
19017TIP3   OH278541   2.501   1.037   6.715  0.4053  0.5350  0.3650
19017TIP3    H178542   2.418   1.062   6.756  0.9365  1.0033  1.1681
19017TIP3    H278543   2.499   1.080   6.629  0.5775  1.9944  1.0696
19018TIP3   OH278544   3.622   0.768  14.411  0.0119 -0.1149  0.3021
19018TIP3    H178545   3.599   0.810  14.328 -0.4639 -0.3237  0.3295
19018TIP3    H278546   3.718   0.770  14.412 -0.0021  1.0591  0.3496
19019TIP3   OH278547   6.685   0.314   0.064 -0.2635 -0.1661 -0.0256
19019TIP3    H178548   6.763   0.355   0.101 -0.5434  0.7247 -0.3780
19019TIP3    H278549   6.670   0.362  -0.018 -0.8404 -0.7189 -0.2483
19020TIP3   OH278550   2.035   6.438   1.412 -0.2939  0.4115 -0.1441
19020TIP3    H178551   2.081   6.507   1.461  1.6135  0.3786 -1.7415
19020TIP3    H278552   1.967   6.485   1.363 -0.7978  0.7419  0.8484
19021TIP3   OH278553   3.150   0.540   4.807  0.1075  0.3304  0.0843
19021TIP3    H178554   3.230   0.503   4.769 -0.0716 -1.0592  0.9970
19021TIP3    H278555   3.175   0.627   4.835  1.0481  0.2605 -0.4829
19022TIP3   OH278556   5.426   2.470   3.446  0.3846 -0.1086 -0.4942
19022TIP3    H178557   5.471   2.509   3.371 -0.0382  1.1336 -0.1100
19022TIP3    H278558   5.386   2.543   3.492  1.6507 -0.6759  1.6573
19023TIP3   OH278559   3.954   3.725   0.482 -0.3989  0.3456 -0.1379
19023TIP3    H178560   3.933   3.786   0.552  1.7135 -0.2989  1.1649
19023TIP3    H278561   3.991   3.780   0.413  1.8869  0.5957  1.1898
19024TIP3   OH278562   0.685   1.308   6.630 -0.1543  0.2179 -0.2572
19024TIP3    H178563   0.659   1.223   6.595  2.3979  0.1780 -2.2827
19024TIP3    H278564   0.613   1.367   6.605 -0.7410 -0.8166 -1.1129
19025TIP3   OH278565   6.523   3.401   0.170 -0.1500 -0.1710 -0.1593
19025TIP3    H178566   6.474   3.482   0.161 -1.2374 -0.9579 -1.8377
19025TIP3    H278567   6.614   3.429   0.182 -0.3111  1.3162 -1.9789
19026TIP3   OH278568   3.979   3.137   0.664 -0.2953  0.3742 -0.3961
19026TIP3    H178569   3.968   3.116   0.757 -3.6273  1.5962 -0.4002
19026TIP3    H278570   3.957   3.230   0.657  2.6614  1.0837 -2.0916
19027TIP3   OH278571   5.852   3.476   5.098 -0.5398  0.0897 -0.7138
19027TIP3    H178572   5.769   3.431   5.115 -0.2282 -0.3871 -0.4462
19027TIP3    H278573   5.919   3.411   5.117 -0.1004  0.4780 -0.9211
19028TIP3   OH278574   4.780   1.831  17.059 -0.1562  0.3096 -0.2057
19028TIP3    H178575   4.720   1.891  17.103 -1.7367 -1.3757  0.0779
19028TIP3    H278576   4.789   1.757  17.120  0.2330 -0.5965 -1.3173
19029TIP3   OH278577   5.568   5.267   0.612 -0.8956 -0.0271 -0.4632
19029TIP3    H178578   5.630   5.199   0.637  0.3969  1.0649 -0.5664
19029TIP3    H278579   5.509   5.225   0.549 -0.4676 -1.1755 -0.1109
19030TIP3   OH278580   4.716   1.915   1.047 -0.2873  0.2444  0.3809
19030TIP3    H178581   4.806   1.935   1.073 -0.1392 -0.1730  0.2050
19030TIP3    H278582   4.671   1.999   1.049  0.8541  1.0309 -2.5307
19031TIP3   OH278583   5.267   5.584  13.782  0.1483 -0.4671 -0.3651
19031TIP3    H178584   5.314   5.632  13.714 -1.0623 -0.8702 -1.5193
19031TIP3    H278585   5.215   5.650  13.827  1.0854 -0.1705  0.3121
19032TIP3   OH278586   3.614   4.060   2.885  0.2760 -0.2299  0.0406
19032TIP3    H178587   3.626   3.984   2.828 -1.7904 -0.9927  0.5267
19032TIP3    H278588   3.658   4.132   2.839  0.6694 -1.3193 -1.3576
19033TIP3   OH278589   4.329   4.631  13.948 -0.1605  0.5395 -0.5228
19033TIP3    H178590   4.373   4.678  14.018  0.6403 -0.4153 -0.3714
19033TIP3    H278591   4.258   4.583  13.991  2.1762 -2.5402  0.2525
19034TIP3   OH278592   0.478   5.846   1.000  0.0669 -0.1241  0.4652
19034TIP3    H178593   0.383   5.846   0.986  0.3103 -1.8865 -1.8878
19034TIP3    H278594   0.511   5.909   0.936  0.5367 -0.3732  0.4603
19035TIP3   OH278595   5.689   6.162  14.635 -0.0984  0.0133 -0.4233
19035TIP3    H178596   5.669   6.181  14.544  1.7886 -1.0450 -1.1205
19035TIP3    H278597   5.675   6.068  14.644  1.4954 -0.2304 -0.1692
19036TIP3   OH278598   0.075   6.479   3.259 -0.0034 -0.5839  0.2008
19036TIP3    H178599  -0.015   6.494   3.232 -0.4107  0.1783  1.8204
19036TIP3    H278600   0.067   6.433   3.343  1.1632 -2.7939 -0.8297
19037TIP3   OH278601   2.312   0.537   0.026  0.0909 -0.0641 -0.4541
19037TIP3    H178602   2.217   0.532   0.037  0.2897 -0.7699  1.1335
19037TIP3    H278603   2.335   0.456  -0.019 -0.3791  1.5663 -4.0062
19038TIP3   OH278604   0.780   0.633  12.892 -0.2235 -0.4163 -0.2284
19038TIP3    H178605   0.821   0.621  12.978  1.1378  0.7127 -0.6831
19038TIP3    H278606   0.704   0.689  12.910 -0.1066 -0.4137  0.2894
19039TIP3   OH278607   0.131   6.753   2.610 -0.0634 -0.1381 -0.3840
19039TIP3    H178608   0.092   6.667   2.595 -2.0898  0.5992  0.3373
19039TIP3    H278609   0.211   6.735   2.659  0.4966 -1.6967 -1.7727
19040TIP3   OH278610   1.355   4.857  11.828  0.2248 -0.2378  0.1283
19040TIP3    H178611   1.345   4.931  11.768 -1.2359 -0.6608 -0.1730
19040TIP3    H278612   1.276   4.858  11.882 -1.9503 -3.9337 -2.5614
19041TIP3   OH278613   4.047   1.912  17.010  0.2803 -0.3128 -0.3322
19041TIP3    H178614   3.951   1.914  17.015  0.2168 -0.7476 -1.2137
19041TIP3    H278615   4.074   1.872  17.092 -0.2732  0.0648  0.0506
19042TIP3   OH278616   2.775   0.223   0.567 -0.2262  0.0647  0.0780
19042TIP3    H178617   2.756   0.304   0.614  1.6335 -0.5141  1.9866
19042TIP3    H278618   2.694   0.173   0.571 -1.1705  1.4878 -0.4845
19043TIP3   OH278619   3.777   2.456  12.983  0.3038  0.1206  0.1392
19043TIP3    H178620   3.814   2.437  13.069 -1.1749  0.5964  0.9277
19043TIP3    H278621   3.686   2.481  13.001  0.3806  1.7775 -1.3979
19044TIP3   OH278622   6.486   0.282  13.047 -0.3883  0.1012 -0.3267
19044TIP3    H178623   6.466   0.318  13.134 -1.1910  2.8764 -1.5614
19044TIP3    H278624   6.575   0.312  13.029 -0.1768 -0.5797 -0.4205
19045TIP3   OH278625   2.987   3.364  16.363 -0.2704  0.2771  0.2719
19045TIP3    H178626   3.039   3.284  16.356  0.9517  0.8311  2.2371
19045TIP3    H278627   3.042   3.432  16.325 -1.0355  0.3077 -0.8036
19046TIP3   OH278628   5.155   2.770   2.978 -0.4374 -0.2356 -0.6050
19046TIP3    H178629   5.242   2.809   2.990 -0.7371  0.3503 -0.3286
19046TIP3    H278630   5.099   2.843   2.951 -0.4081 -0.9763 -2.9183
19047TIP3   OH278631   0.630   3.436   2.256 -0.6717 -0.0417 -0.0602
19047TIP3    H178632   0.711   3.393   2.283 -1.0177 -0.5078  0.2461
19047TIP3    H278633   0.563   3.398   2.312 -0.7509  2.0932  1.3987
19048TIP3   OH278634   3.761   2.661  15.691 -0.0226 -0.6110  0.4689
19048TIP3    H178635   3.800   2.745  15.716 -1.2859  0.2829 -0.4177
19048TIP3    H278636   3.811   2.633  15.614  0.0844 -0.4306  0.4716
19049TIP3   OH278637   0.394   3.650  16.484  0.3912 -0.0137 -0.5573
19049TIP3    H178638   0.311   3.693  16.504 -0.6926 -1.5421 -1.5547
19049TIP3    H278639   0.461   3.713  16.512 -1.0892  1.8113 -0.9216
19050TIP3   OH278640   5.045   1.622   2.873 -0.4586 -0.2152  0.1656
19050TIP3    H178641   4.955   1.593   2.857 -0.3467 -0.1751 -0.5681
19050TIP3    H278642   5.039   1.676   2.952 -0.7121 -1.9711  1.4147
19051TIP3   OH278643   1.370   4.107   2.463  0.3698 -0.2564  0.5212
19051TIP3    H178644   1.429   4.088   2.536 -2.0347 -2.4656  2.0799
19051TIP3    H278645   1.318   4.181   2.493 -0.8499 -1.3797  1.2750
19052TIP3   OH278646   1.059   2.477   0.183  0.1541 -0.2356 -0.1658
19052TIP3    H178647   1.146   2.501   0.150 -0.0826  0.1763 -0.4983
19052TIP3    H278648   1.005   2.555   0.166  0.1532  0.2062  1.6728
19053TIP3   OH278649   5.423   3.850  12.013 -0.5155  0.1653  0.1844
19053TIP3    H178650   5.367   3.927  12.015  1.7339  1.8941  1.8056
19053TIP3    H278651   5.501   3.877  11.966  0.2842 -1.1563  0.6783
19054TIP3   OH278652   5.780   0.812   2.106 -0.0077  0.5780  0.4452
19054TIP3    H178653   5.704   0.755   2.120 -0.1280 -0.4051 -3.2383
19054TIP3    H278654   5.854   0.763   2.142 -0.3667 -1.2118 -1.1014
19055TIP3   OH278655   5.572   1.263   4.887  0.2871  0.0937  0.2752
19055TIP3    H178656   5.491   1.309   4.909  0.0375 -0.1103 -0.1941
19055TIP3    H278657   5.576   1.190   4.948  0.6849  0.7322  1.0220
19056TIP3   OH278658   3.017   5.395   5.822 -0.0670 -0.2653  0.6158
19056TIP3    H178659   2.954   5.441   5.766 -0.2356  1.7527  2.3390
19056TIP3    H278660   3.101   5.436   5.801 -0.0859  0.2952  1.5891
19057TIP3   OH278661   5.131   0.742  16.132 -0.0009  0.1017  0.0397
19057TIP3    H178662   5.150   0.695  16.213 -2.1021 -0.2167  0.4029
19057TIP3    H278663   5.115   0.673  16.068  0.4983  0.3477 -0.3509
19058TIP3   OH278664   3.281   1.249   2.087 -0.0711  0.0208  0.1412
19058TIP3    H178665   3.321   1.335   2.099  1.4662 -0.8037  1.3694
19058TIP3    H278666   3.206   1.265   2.030  0.0352  2.1938  0.5220
19059TIP3   OH278667   5.018   3.270   1.724  0.0827  0.5026  0.2918
19059TIP3    H178668   4.971   3.348   1.696  0.3643  0.9339  1.0143
19059TIP3    H278669   5.084   3.302   1.785  1.6921 -0.0030 -1.0847
19060TIP3   OH278670   0.626   6.606  12.107 -0.0524  0.3401  0.0930
19060TIP3    H178671   0.533   6.622  12.089 -0.0515  0.4510  0.1919
19060TIP3    H278672   0.633   6.608  12.202  0.1178  0.6889  0.0741
19061TIP3   OH278673   0.775   0.015  12.399  0.4331 -0.5459 -0.0329
19061TIP3    H178674   0.853  -0.027  12.362 -0.3768 -1.9799 -0.1775
19061TIP3    H278675   0.721  -0.058  12.429 -0.4519  0.4631  0.9098
19062TIP3   OH278676   3.687   1.906  11.584 -0.2482  0.0032  0.3384
19062TIP3    H178677   3.622   1.854  11.538  1.5983 -0.6932 -1.6493
19062TIP3    H278678   3.664   1.997  11.563 -1.4948 -0.1288  1.0307
19063TIP3   OH278679   1.914   5.913  13.507 -0.1812  0.1891  0.5795
19063TIP3    H178680   1.999   5.955  13.492  0.3914 -0.9415  0.4917
19063TIP3    H278681   1.853   5.962  13.452  0.5366  0.6178  0.1427
19064TIP3   OH278682   1.427   0.771   3.547  0.0513  0.7932 -0.3023
19064TIP3    H178683   1.473   0.788   3.465  0.7324  1.0785  0.1263
19064TIP3    H278684   1.366   0.700   3.526  0.6692  0.4206 -0.9021
19065TIP3   OH278685   3.270   4.184   3.500 -0.1987 -0.9144  0.1973
19065TIP3    H178686   3.272   4.089   3.495 -0.7141 -0.8729 -1.2891
19065TIP3    H278687   3.177   4.205   3.510 -0.0877 -0.5629  0.5128
19066TIP3   OH278688   1.877   0.217  16.669 -0.3293  0.0443  0.1456
19066TIP3    H178689   1.864   0.292  16.727  0.4645 -0.1456  0.5909
19066TIP3    H278690   1.860   0.140  16.724 -1.2260 -0.1132 -0.3301
19067TIP3   OH278691   3.156   3.610   2.026  0.2541 -0.0119 -0.1055
19067TIP3    H178692   3.081   3.570   1.984 -0.5338  1.2979 -0.0092
19067TIP3    H278693   3.130   3.620   2.118 -0.4550  2.6178 -0.5195
19068TIP3   OH278694   1.308   1.887   0.843  0.7814  0.4453 -0.2552
19068TIP3    H178695   1.263   1.966   0.870  1.0480  0.8371 -0.9400
19068TIP3    H278696   1.363   1.863   0.918 -0.1430  0.2625  0.3789
19069TIP3   OH278697   0.148   3.530   4.210 -0.2887  0.7230  0.4043
19069TIP3    H178698   0.068   3.570   4.177  0.4992  0.8752 -1.4131
19069TIP3    H278699   0.170   3.463   4.145  0.9376  0.5172  1.0069
19070TIP3   OH278700   2.276   0.999  14.762 -0.1606  0.2048  0.0984
19070TIP3    H178701   2.240   1.073  14.714 -0.4784  0.0385  0.0767
19070TIP3    H278702   2.203   0.939  14.771 -0.3693  0.6603  1.6579
19071TIP3   OH278703   4.644   0.739   2.045  0.2602  0.5102 -0.6493
19071TIP3    H178704   4.609   0.812   2.095 -0.3869  0.6245 -1.2602
19071TIP3    H278705   4.643   0.768   1.955  0.4317 -0.0837 -0.8514
19072TIP3   OH278706   3.528   1.938   2.240  0.0451 -0.1047 -0.1460
19072TIP3    H178707   3.489   1.878   2.176  0.2227  1.0972 -1.4232
19072TIP3    H278708   3.458   2.001   2.259  0.7739  1.0656 -1.1698
19073TIP3   OH278709   2.357   1.878   1.380  0.0067 -0.2445  0.0274
19073TIP3    H178710   2.390   1.896   1.467 -1.2348 -1.1532  0.7249
19073TIP3    H278711   2.307   1.956   1.356  1.1145  0.3922 -0.2928
19074TIP3   OH278712   6.117   6.561  17.019 -0.2614 -0.6575 -0.4659
19074TIP3    H178713   6.155   6.543  17.105 -0.3397  3.4192  0.6409
19074TIP3    H278714   6.193   6.574  16.962  0.2028  3.0794  0.7097
19075TIP3   OH278715   2.043   3.994  15.521 -0.1595  0.2784  0.2617
19075TIP3    H178716   2.122   3.951  15.554 -0.4703 -0.7350 -0.2636
19075TIP3    H278717   2.076   4.072  15.476  0.4150  0.6400  1.2696
19076TIP3   OH278718   3.572   2.667  16.527  0.2389  0.7051  0.0171
19076TIP3    H178719   3.488   2.620  16.525  0.2498  0.6509  0.6332
19076TIP3    H278720   3.618   2.630  16.603  1.8644 -1.0403 -1.7061
19077TIP3   OH278721   2.262   3.317  12.306 -0.7598 -0.0326  0.1536
19077TIP3    H178722   2.167   3.320  12.322 -0.7758 -2.1284  0.8652
19077TIP3    H278723   2.291   3.408  12.316 -2.8392  0.8657 -1.2765
19078TIP3   OH278724   1.939   4.224   5.120 -0.2440 -0.8852  0.3788
19078TIP3    H178725   1.847   4.240   5.097 -0.5913 -1.1693  1.4938
19078TIP3    H278726   1.987   4.295   5.077 -1.2440  0.6073  1.6169
19079TIP3   OH278727   6.349   4.098   4.465 -0.0056  0.1827  0.5182
19079TIP3    H178728   6.291   4.120   4.392 -2.4558 -2.3699  1.5253
19079TIP3    H278729   6.358   4.180   4.514  0.6648  1.6250 -1.8811
19080TIP3   OH278730   1.777   4.056  10.474  0.0781  0.6774 -1.0371
19080TIP3    H178731   1.835   4.058  10.551 -2.2673  1.5741  0.8343
19080TIP3    H278732   1.793   3.970  10.434  0.2131 -0.5570  1.4652
19081TIP3   OH278733   0.311   4.539  14.132  0.2543 -0.4752  0.5621
19081TIP3    H178734   0.239   4.580  14.085  0.4290  1.8327  2.1469
19081TIP3    H278735   0.327   4.596  14.207  2.4510 -1.9676  1.3519
19082TIP3   OH278736   4.231   5.472   5.825 -0.3774 -0.1202  0.0292
19082TIP3    H178737   4.302   5.514   5.775  3.6874 -3.5466  2.2412
19082TIP3    H278738   4.232   5.517   5.910 -0.9187 -0.1690  0.0653
19083TIP3   OH278739   4.360   2.877  14.793 -0.1630  0.0070  0.0180
19083TIP3    H178740   4.349   2.946  14.728  0.7865 -2.0968 -2.5706
19083TIP3    H278741   4.454   2.876  14.811 -0.1897 -0.5285  0.1340
19084TIP3   OH278742   0.527   0.302  14.722 -0.7464  0.0867  0.0711
19084TIP3    H178743   0.581   0.231  14.756  0.6112 -0.3030 -2.5999
19084TIP3    H278744   0.561   0.381  14.764 -0.7217 -0.5615  1.3104
19085TIP3   OH278745   4.036   4.114  13.018  0.0513 -0.5936  0.2294
19085TIP3    H178746   4.000   4.062  13.090  0.3155 -1.9350 -0.5748
19085TIP3    H278747   3.983   4.090  12.942  0.3061  0.1736 -0.2052
19086TIP3   OH278748   1.336   4.114  14.051  0.5634 -0.7080  0.1128
19086TIP3    H178749   1.393   4.061  14.107  1.0245 -0.4868 -0.1435
19086TIP3    H278750   1.353   4.205  14.078 -0.1874 -0.6736  0.5164
19087TIP3   OH278751   3.463   6.187  13.829 -0.0704 -0.7895 -0.1405
19087TIP3    H178752   3.491   6.107  13.784  0.5708 -0.7659  0.2050
19087TIP3    H278753   3.508   6.258  13.783  1.6260 -0.8644  1.2992
19088TIP3   OH278754   2.671   4.238   1.351 -0.2297  0.4281  0.0433
19088TIP3    H178755   2.754   4.228   1.303  0.8875 -0.2840  1.9820
19088TIP3    H278756   2.698   4.267   1.438 -2.1055  0.8101  0.5359
19089TIP3   OH278757   3.530   4.659  16.809  0.4102  0.2994  0.4825
19089TIP3    H178758   3.476   4.676  16.732  1.0683  0.9275  0.1490
19089TIP3    H278759   3.526   4.564  16.820  0.4808  0.1753 -0.4659
19090TIP3   OH278760   0.820   0.321  15.832 -0.1053  0.2999 -0.6145
19090TIP3    H178761   0.802   0.304  15.740 -0.6429  2.3183 -0.9152
19090TIP3    H278762   0.915   0.314  15.840 -0.1387 -1.0004 -1.0419
19091TIP3   OH278763   4.531   5.163   4.882  0.4130 -0.3036  0.5618
19091TIP3    H178764   4.572   5.106   4.818 -3.5547 -1.9918 -0.7419
19091TIP3    H278765   4.451   5.118   4.908 -0.0028  2.0016  4.0395
19092TIP3   OH278766   4.102   3.112  15.727  0.0461 -0.2235 -0.1642
19092TIP3    H178767   4.149   3.063  15.659 -2.5842 -1.3604 -1.3112
19092TIP3    H278768   4.124   3.066  15.809  1.0995 -0.5507 -0.6162
19093TIP3   OH278769   2.241   4.745  11.410  0.4563 -0.2389  0.1685
19093TIP3    H178770   2.292   4.758  11.330  0.1618 -1.0590 -0.1586
19093TIP3    H278771   2.179   4.676  11.388 -1.4622  1.3657  0.2447
19094TIP3   OH278772   4.642   6.527   2.909 -0.2376  0.6747  0.3669
19094TIP3    H178773   4.556   6.559   2.938  0.2572  2.2159  0.2216
19094TIP3    H278774   4.622   6.465   2.839 -1.2350  0.8832  0.4497
19095TIP3   OH278775   6.312   0.871   0.130 -0.1071  0.1943  0.1883
19095TIP3    H178776   6.293   0.904   0.043 -0.9878  2.0380  1.0208
19095TIP3    H278777   6.383   0.807   0.117 -1.4084 -0.9094 -2.0471
19096TIP3   OH278778   2.254   3.881  15.668  0.1810  0.0670 -0.2598
19096TIP3    H178779   2.317   3.898  15.738 -0.4647  1.5709 -0.0087
19096TIP3    H278780   2.220   3.793  15.687  3.3528 -1.5454 -1.3406
19097TIP3   OH278781   5.843   3.313   3.810 -0.6311  0.9752 -0.8141
19097TIP3    H178782   5.847   3.327   3.905  0.2724  0.0381 -0.6932
19097TIP3    H278783   5.881   3.391   3.772 -1.6016  1.6538 -0.4435
19098TIP3   OH278784   0.194   1.416   4.935 -0.4331  0.6678  0.6348
19098TIP3    H178785   0.239   1.411   5.019 -1.6527 -1.7419  1.2308
19098TIP3    H278786   0.111   1.459   4.953 -0.2728  1.0559  0.4546
19099TIP3   OH278787   3.057   1.350   6.584 -0.4947 -0.1804 -0.2491
19099TIP3    H178788   3.124   1.417   6.600  0.7626 -0.4375 -3.6647
19099TIP3    H278789   3.068   1.287   6.655  3.8337 -0.8670 -1.2875
19100TIP3   OH278790   6.009   3.435  16.978  0.8458  0.2238  0.6018
19100TIP3    H178791   6.035   3.511  17.030  1.8309 -1.2599  2.3818
19100TIP3    H278792   6.091   3.392  16.955  0.3095 -0.2881 -0.4114
19101TIP3   OH278793   1.207   3.113   2.289  0.6173  0.0594  0.6125
19101TIP3    H178794   1.302   3.121   2.297  0.6742  0.8796 -0.5755
19101TIP3    H278795   1.193   3.079   2.200 -0.2168  1.3907  0.1910
19102TIP3   OH278796   2.929   2.593   2.889 -0.4169  0.5450 -0.4284
19102TIP3    H178797   2.948   2.508   2.928  0.7077  0.1303 -1.8142
19102TIP3    H278798   2.862   2.575   2.822 -0.3501  0.7891 -0.5641
19103TIP3   OH278799   0.901   3.471  14.494  0.1453  0.2413  0.1480
19103TIP3    H178800   0.862   3.485  14.407 -0.8604  0.7578  0.6640
19103TIP3    H278801   0.972   3.535  14.499 -0.0945  0.5302 -0.1119
19104TIP3   OH278802   5.710   4.859  11.601  0.9265  1.1368  1.2398
19104TIP3    H178803   5.676   4.938  11.560  2.4139  1.0501 -0.2774
19104TIP3    H278804   5.801   4.880  11.621  1.4995 -0.3097  0.3505
19105TIP3   OH278805   6.079   5.524  14.263 -0.1218  0.7837 -0.3054
19105TIP3    H178806   6.098   5.530  14.357 -0.7668 -0.1420 -0.1017
19105TIP3    H278807   5.995   5.479  14.259 -0.5923  1.7112 -1.2981
19106TIP3   OH278808   4.379   2.926  16.357 -0.2460 -0.3658 -0.2459
19106TIP3    H178809   4.459   2.904  16.310  0.8428  0.2907  1.1998
19106TIP3    H278810   4.320   2.853  16.340  0.5838 -0.7722 -1.4959
19107TIP3   OH278811   0.947   0.828  16.929  0.5506  0.2220  0.3515
19107TIP3    H178812   0.995   0.746  16.915 -0.2651 -0.2600  0.2742
19107TIP3    H278813   0.988   0.867  17.005  1.7423  0.3511 -0.3341
19108TIP3   OH278814   3.267   2.202  13.559 -0.9325  0.1841  0.1276
19108TIP3    H178815   3.311   2.256  13.624 -0.3651 -1.4108  1.1397
19108TIP3    H278816   3.265   2.255  13.480  0.9724  1.0958  0.6395
19109TIP3   OH278817   2.093   5.477   2.241 -0.1022 -0.4065  0.4017
19109TIP3    H178818   2.036   5.412   2.199 -1.5885  1.3078 -0.3681
19109TIP3    H278819   2.045   5.503   2.320  0.7779 -0.6989  1.0367
19110TIP3   OH278820   3.372   0.582  15.034  0.1894 -0.4735  0.5202
19110TIP3    H178821   3.347   0.642  14.963  1.5373 -1.2183 -0.6502
19110TIP3    H278822   3.289   0.551  15.070 -0.5687 -0.9315 -1.4975
19111TIP3   OH278823   2.713   4.052  11.678  0.4651  0.3685  0.2960
19111TIP3    H178824   2.622   4.079  11.687 -0.0377 -0.7088 -1.1443
19111TIP3    H278825   2.761   4.133  11.664 -0.1745  0.9975  1.5233
19112TIP3   OH278826   3.051   5.754  12.033  0.1644 -0.5923 -0.0655
19112TIP3    H178827   2.975   5.714  12.074  0.6684 -1.0557  0.4297
19112TIP3    H278828   3.069   5.832  12.085 -0.1765 -0.2843 -0.3969
19113TIP3   OH278829   2.828   3.116  15.365  0.5732 -0.6827  0.2986
19113TIP3    H178830   2.741   3.117  15.327  0.8029  1.4400 -0.2458
19113TIP3    H278831   2.857   3.025  15.355 -0.9388 -1.0681 -0.9393
19114TIP3   OH278832   5.981   3.576  14.742  0.4438 -0.1432  0.4295
19114TIP3    H178833   5.896   3.543  14.715  0.0616  0.0451  1.3583
19114TIP3    H278834   6.044   3.529  14.686 -0.1825 -1.2682  0.6339
19115TIP3   OH278835   0.404   0.119   2.064  0.1984  0.0870  0.1121
19115TIP3    H178836   0.389   0.027   2.088 -0.4439 -0.0040 -0.6022
19115TIP3    H278837   0.423   0.163   2.147 -2.3315 -0.1365  0.8843
19116TIP3   OH278838   0.838   3.387  16.132 -0.6554  0.0348  0.0304
19116TIP3    H178839   0.877   3.470  16.105 -0.0686 -0.6535 -1.3276
19116TIP3    H278840   0.793   3.408  16.214  0.1673  1.5012  0.1557
19117TIP3   OH278841   0.530   0.882  15.011  0.5027  0.4136  0.2120
19117TIP3    H178842   0.463   0.829  14.967  0.2684  1.1523 -0.3402
19117TIP3    H278843   0.516   0.971  14.978  1.3578  0.6922  0.5725
19118TIP3   OH278844   4.562   4.924  11.853  0.4667 -0.1080 -0.2131
19118TIP3    H178845   4.600   4.903  11.768  0.9108 -0.4554  0.0656
19118TIP3    H278846   4.597   4.857  11.912 -0.8272 -0.6426 -0.0050
19119TIP3   OH278847   1.396   5.374   3.337 -0.4175 -0.0514 -0.3744
19119TIP3    H178848   1.340   5.376   3.259  0.2197  2.0778 -0.8256
19119TIP3    H278849   1.470   5.319   3.312 -0.5655  0.0422 -1.0316
19120TIP3   OH278850   3.833   5.574   3.650  0.1795 -0.4449  0.2690
19120TIP3    H178851   3.818   5.655   3.699  0.5487  0.4119 -0.9715
19120TIP3    H278852   3.924   5.552   3.667 -0.2191 -1.2425  1.4913
19121TIP3   OH278853   0.302   6.486   4.483 -0.0549 -0.1211  0.2292
19121TIP3    H178854   0.344   6.541   4.550  0.0882  1.0820 -0.8118
19121TIP3    H278855   0.220   6.532   4.462  0.0220 -0.3510 -0.6025
19122TIP3   OH278856   5.461   1.923   6.458 -0.1306  0.0294 -0.4270
19122TIP3    H178857   5.495   1.915   6.547  0.2235 -1.6784 -0.6860
19122TIP3    H278858   5.406   1.846   6.446  0.6066 -0.2767 -2.0190
19123TIP3   OH278859   4.941   1.639   0.866 -0.7072 -0.2197 -0.4085
19123TIP3    H178860   4.850   1.610   0.874 -0.6525 -0.1437  0.6878
19123TIP3    H278861   4.957   1.690   0.945  0.1253  0.2315 -0.8541
19124TIP3   OH278862   6.606   2.085  11.334 -0.2334 -0.0854 -0.2345
19124TIP3    H178863   6.565   2.031  11.267 -2.0472 -1.2216  1.6841
19124TIP3    H278864   6.697   2.053  11.337 -0.5292 -1.0781 -1.0620
19125TIP3   OH278865   6.350   0.102  17.023 -0.2855 -0.1411  0.3356
19125TIP3    H178866   6.393   0.038  16.968 -0.0682  1.1345 -1.0360
19125TIP3    H278867   6.415   0.126  17.089  0.0253 -0.4798  0.1515
19126TIP3   OH278868   6.607   2.916  11.455 -0.0289 -0.6268  0.1251
19126TIP3    H178869   6.543   2.847  11.441 -1.2400  0.4944 -0.0089
19126TIP3    H278870   6.635   2.942  11.367 -0.4600 -0.1520  0.1232
19127TIP3   OH278871   5.255   1.971   2.325  0.2710 -0.5183 -0.3294
19127TIP3    H178872   5.300   2.005   2.248  0.7090 -0.7994 -0.2014
19127TIP3    H278873   5.295   1.885   2.340  0.4314 -0.3209  0.4161
19128TIP3   OH278874   5.390   4.181  15.354  0.2032 -0.0163 -0.2877
19128TIP3    H178875   5.324   4.116  15.329  0.4971  0.2912 -1.9866
19128TIP3    H278876   5.351   4.229  15.427 -0.8732 -0.7281 -0.3771
19129TIP3   OH278877   2.423   2.132  16.061 -0.2278 -0.5795  0.1647
19129TIP3    H178878   2.424   2.083  16.143 -0.4002  0.3187  0.7114
19129TIP3    H278879   2.465   2.073  15.998 -1.3558 -1.8511  0.5525
19130TIP3   OH278880   5.024   1.081  12.057 -0.3485 -0.0324  0.1930
19130TIP3    H178881   5.119   1.091  12.049 -0.1584 -2.0917 -0.6079
19130TIP3    H278882   5.005   0.997  12.016 -2.5410  0.3512  0.3139
19131TIP3   OH278883   4.789   2.396   3.137  0.1386 -0.0879  0.4978
19131TIP3    H178884   4.846   2.465   3.102 -0.0032  0.8434  2.0217
19131TIP3    H278885   4.757   2.431   3.220 -2.5410 -0.6513 -0.2228
19132TIP3   OH278886   5.653   5.182  13.169  0.3222 -0.4904 -0.4606
19132TIP3    H178887   5.667   5.277  13.173  1.8642 -0.7214  0.3248
19132TIP3    H278888   5.572   5.168  13.220 -0.3452  0.4580 -1.2201
19133TIP3   OH278889   1.040   6.054  14.899 -0.4242 -0.2792  0.2330
19133TIP3    H178890   1.111   5.993  14.880 -0.0168  0.3248 -0.2169
19133TIP3    H278891   0.989   6.011  14.967  0.4299 -0.6769  0.6342
19134TIP3   OH278892   6.524   2.870   0.992  0.5988  0.2404  0.1939
19134TIP3    H178893   6.544   2.806   1.060  0.2675  0.2471  0.3004
19134TIP3    H278894   6.429   2.871   0.987  0.6284  0.0297 -0.4761
19135TIP3   OH278895   5.653   3.731  14.112 -0.3959  0.3986 -0.4350
19135TIP3    H178896   5.641   3.817  14.071  0.8853  0.2150 -1.2638
19135TIP3    H278897   5.593   3.731  14.186 -0.9551  1.7225 -0.8526
19136TIP3   OH278898   5.703   4.237   5.890  0.3553 -0.2462 -0.1851
19136TIP3    H178899   5.664   4.168   5.837 -0.7107 -1.2318  1.7763
19136TIP3    H278900   5.774   4.272   5.836 -1.0771 -0.7162 -2.4931
19137TIP3   OH278901   2.504   0.038  17.054  0.6194  0.4325 -0.2380
19137TIP3    H178902   2.570   0.108  17.059 -1.6061  2.7383 -0.9582
19137TIP3    H278903   2.424   0.079  17.085 -0.5735 -2.2212  0.4630
19138TIP3   OH278904   4.091   1.748  16.804  0.2915  0.0822  0.6858
19138TIP3    H178905   4.075   1.807  16.878  1.1013  0.1977  0.7760
19138TIP3    H278906   4.071   1.801  16.727  2.5307  1.0421  0.6867
19139TIP3   OH278907   0.636   4.160   3.173 -0.1610  0.5124  0.4705
19139TIP3    H178908   0.695   4.235   3.179 -0.7921  1.0648 -0.0911
19139TIP3    H278909   0.692   4.084   3.188  0.8272  0.9757 -0.7895
19140TIP3   OH278910   5.590   4.706   2.292  0.0504  0.0820 -0.1506
19140TIP3    H178911   5.666   4.666   2.250 -0.5730  0.2214 -1.4594
19140TIP3    H278912   5.544   4.633   2.334  0.0230 -0.2586 -0.7667
19141TIP3   OH278913   3.702   2.541   1.563  0.5438  0.1163 -0.5111
19141TIP3    H178914   3.725   2.452   1.537  0.6511 -0.3364  1.0397
19141TIP3    H278915   3.772   2.567   1.623 -0.1825  0.7364  0.0792
19142TIP3   OH278916   6.632   2.175  14.893 -0.1258  0.2590  0.1364
19142TIP3    H178917   6.679   2.142  14.970 -0.6049  0.3900  0.4933
19142TIP3    H278918   6.692   2.238  14.854 -0.5973  1.6048  1.4864
19143TIP3   OH278919   2.883   6.646  13.870 -0.0472 -0.5808 -0.4415
19143TIP3    H178920   2.791   6.620  13.865 -0.3962  0.8711 -2.7306
19143TIP3    H278921   2.881   6.740  13.888  0.9943 -0.5255 -0.5179
19144TIP3   OH278922   6.648   2.057   1.979  0.4636 -0.3637  0.0932
19144TIP3    H178923   6.595   2.033   2.056  0.6343 -1.6501 -0.1650
19144TIP3    H278924   6.672   1.973   1.940  0.5534  0.2717 -1.2614
19145TIP3   OH278925   2.793   0.337  15.942  0.5095  0.2711  0.3496
19145TIP3    H178926   2.863   0.365  15.883  0.1196 -0.8552 -0.6728
19145TIP3    H278927   2.712   0.365  15.899  0.1065 -2.2041 -0.6471
19146TIP3   OH278928   4.923   6.675   4.477  0.4516 -0.0651 -0.1583
19146TIP3    H178929   4.960   6.634   4.555  0.1219  0.3137  0.2022
19146TIP3    H278930   4.839   6.632   4.463  0.8120 -0.6085 -0.7121
19147TIP3   OH278931   1.562   2.466   2.752 -0.2873 -0.4412  0.2495
19147TIP3    H178932   1.520   2.539   2.797  0.4215 -1.0424  1.9554
19147TIP3    H278933   1.561   2.394   2.815  0.0801 -1.5560 -0.9701
19148TIP3   OH278934   4.024   6.396   5.712  0.2290  0.7009  0.7484
19148TIP3    H178935   3.940   6.415   5.754 -0.4476  0.5421 -0.4898
19148TIP3    H278936   4.036   6.302   5.723 -1.0143  0.2383 -1.1942
19149TIP3   OH278937   4.553   0.925   0.635 -0.0018  0.1182 -0.1134
19149TIP3    H178938   4.527   0.900   0.547 -0.2868 -0.1073  0.0300
19149TIP3    H278939   4.472   0.953   0.677  0.0343 -0.2885  0.2412
19150TIP3   OH278940   5.763   3.692  16.233 -0.6111  0.1957  0.7911
19150TIP3    H178941   5.693   3.627  16.240 -0.4909  0.1017  1.1127
19150TIP3    H278942   5.832   3.649  16.182 -1.3356  0.7544 -0.7381
19151TIP3   OH278943   1.219   4.021   1.615  0.1748 -0.0768 -0.0945
19151TIP3    H178944   1.181   3.984   1.535  0.1955 -0.8952  0.2666
19151TIP3    H278945   1.162   3.990   1.685  0.0814  0.7454  0.2005
19152TIP3   OH278946   0.557   0.950  11.514 -0.2190 -0.0447 -0.0341
19152TIP3    H178947   0.604   0.980  11.436 -0.0771  0.1489  0.1228
19152TIP3    H278948   0.624   0.905  11.566 -0.4370 -0.6811 -0.2842
19153TIP3   OH278949   3.264   1.550  13.175  0.0927  0.0457  0.2143
19153TIP3    H178950   3.219   1.505  13.247  0.1367 -0.2194  0.0745
19153TIP3    H278951   3.313   1.482  13.130 -0.6045  0.0584 -0.5836
19154TIP3   OH278952   4.324   3.577   3.601 -0.1908 -0.1567 -0.0365
19154TIP3    H178953   4.230   3.592   3.589 -0.3210  2.4271  3.0253
19154TIP3    H278954   4.329   3.490   3.641 -1.0334 -1.1559 -1.9633
19155TIP3   OH278955   5.638   5.884  14.600 -0.0320 -0.2522  0.0485
19155TIP3    H178956   5.602   5.850  14.681  1.2341 -1.6745  0.0474
19155TIP3    H278957   5.732   5.870  14.607  0.2105  0.5133 -1.2592
19156TIP3   OH278958   3.457   4.086  16.742  0.1502 -0.2426  0.4967
19156TIP3    H178959   3.458   4.034  16.662  1.0489  0.3517  0.0912
19156TIP3    H278960   3.438   4.175  16.712 -0.1736 -0.1337  1.0237
19157TIP3   OH278961   6.626   2.226  12.071 -0.5347  0.8766 -0.0242
19157TIP3    H178962   6.536   2.259  12.066 -0.8305  0.5855  2.3129
19157TIP3    H278963   6.677   2.301  12.101 -0.5598  0.2632  1.6400
19158TIP3   OH278964   3.727   4.165   6.090  0.0075  0.3727  0.3111
19158TIP3    H178965   3.673   4.092   6.121  0.8705 -0.6065 -0.4246
19158TIP3    H278966   3.793   4.176   6.157  0.7766 -0.5385 -0.2711
19159TIP3   OH278967   3.519   5.709  17.125 -0.1322  0.5779 -0.6071
19159TIP3    H178968   3.476   5.676  17.046 -1.7401  1.5338 -0.1775
19159TIP3    H278969   3.531   5.632  17.180 -1.4181  0.2824 -0.7050
19160TIP3   OH278970   5.084   4.006  14.703  0.8912 -0.1090 -0.0495
19160TIP3    H178971   5.080   4.023  14.797  2.0410 -0.4659  0.0816
19160TIP3    H278972   4.993   4.014  14.673  0.6934  1.3355  0.8459
19161TIP3   OH278973   6.668   5.507  14.406 -0.0663  0.1549  0.0100
19161TIP3    H178974   6.673   5.412  14.413  1.0163  0.2243  0.3513
19161TIP3    H278975   6.759   5.536  14.412 -0.4508  1.2625  0.7316
19162TIP3   OH278976   5.999   2.501  12.749  0.0052  0.3433  0.0255
19162TIP3    H178977   5.996   2.486  12.843 -1.6714 -1.2356 -0.2091
19162TIP3    H278978   5.930   2.566  12.733  2.4659  3.2443  0.1710
19163TIP3   OH278979   6.344   5.941   5.663  0.0106 -0.5491  0.2660
19163TIP3    H178980   6.309   5.993   5.591 -0.5775 -1.6180 -0.2285
19163TIP3    H278981   6.394   6.004   5.716 -0.2317  0.4004 -0.6184
19164TIP3   OH278982   1.567   3.815   4.722 -0.2840 -0.1136  0.5215
19164TIP3    H178983   1.501   3.878   4.753 -0.0652 -0.2986  1.3962
19164TIP3    H278984   1.588   3.762   4.799  0.9382 -0.0154  0.2859
19165TIP3   OH278985   5.543   2.865   1.112  0.3143  0.5963 -0.8362
19165TIP3    H178986   5.580   2.778   1.099  0.0089  0.6929 -2.6464
19165TIP3    H278987   5.453   2.858   1.080 -1.0850  0.6079  2.6185
19166TIP3   OH278988   0.554   0.609  13.901 -0.4392  0.2579 -0.3722
19166TIP3    H178989   0.500   0.619  13.980 -1.0415 -1.1328 -0.5760
19166TIP3    H278990   0.635   0.656  13.921 -1.2422  1.3686  0.4078
19167TIP3   OH278991   1.004   5.114  10.963 -0.3775 -0.5973  0.4657
19167TIP3    H178992   1.010   5.153  10.876 -0.6129 -0.7377  0.3861
19167TIP3    H278993   0.961   5.030  10.949  1.0757 -1.3683  0.4913
19168TIP3   OH278994   6.481   0.387   6.544 -0.5163  0.0972  0.0278
19168TIP3    H178995   6.551   0.365   6.483 -1.7262 -3.1648 -0.3995
19168TIP3    H278996   6.435   0.304   6.559 -3.2629  1.7343  1.5934
19169TIP3   OH278997   6.170   2.869  11.666  0.1810  0.9181 -0.4711
19169TIP3    H178998   6.202   2.833  11.584  0.6535  0.9471 -0.2975
19169TIP3    H278999   6.087   2.912  11.642 -0.9825 -1.1972 -0.4871
19170TIP3   OH279000   2.256   1.548   0.105  0.5613 -0.0678  0.2153
19170TIP3    H179001   2.211   1.631   0.117 -0.3389 -0.6090  0.7204
19170TIP3    H279002   2.257   1.534   0.010  0.5958  0.4444  0.1398
19171TIP3   OH279003   4.545   0.365  12.719  0.0035  0.4255  0.3008
19171TIP3    H179004   4.566   0.322  12.636  0.9697  0.8437  0.3079
19171TIP3    H279005   4.462   0.410  12.703  1.1308  2.1284 -1.0890
19172TIP3   OH279006   0.410   2.253   2.312 -0.6000 -0.0472  0.3220
19172TIP3    H179007   0.400   2.343   2.343 -1.3022  0.3238 -0.9447
19172TIP3    H279008   0.451   2.261   2.226  1.0187 -1.0498  0.9548
19173TIP3   OH279009   6.373   3.411  14.973  0.2125 -0.4249  0.2782
19173TIP3    H179010   6.442   3.377  15.028 -2.2420 -1.3132  3.0635
19173TIP3    H279011   6.299   3.351  14.986 -0.6892 -0.5343 -3.8355
19174TIP3   OH279012   3.062   3.234  11.093 -0.4157  0.2801  0.9339
19174TIP3    H179013   3.131   3.300  11.088  1.2638 -1.3716  1.4739
19174TIP3    H279014   3.066   3.201  11.183  0.0006 -1.7922  0.2057
19175TIP3   OH279015   6.232   0.116   0.096 -0.2281 -0.3453  0.4331
19175TIP3    H179016   6.181   0.056   0.150 -1.3902  1.2888  1.2495
19175TIP3    H279017   6.192   0.202   0.112  0.3707  0.4251 -1.8904
19176TIP3   OH279018   2.813   3.999  15.322  0.4478 -0.3015  0.2320
19176TIP3    H179019   2.737   3.953  15.286  0.5501 -0.7611  0.5967
19176TIP3    H279020   2.780   4.085  15.345 -0.3459 -0.9989  1.8140
19177TIP3   OH279021   3.869   4.349  12.887 -0.3209  0.5668  0.4811
19177TIP3    H179022   3.864   4.370  12.794 -1.9305  0.4418  0.5139
19177TIP3    H279023   3.878   4.254  12.890  1.7580  0.7126  0.4479
19178TIP3   OH279024   1.992   3.149  14.978  0.4285 -0.0588  0.2124
19178TIP3    H179025   1.951   3.202  15.046  2.2734  1.2812  0.3638
19178TIP3    H279026   2.000   3.062  15.017 -1.4750 -0.1593  0.4509
19179TIP3   OH279027   6.499   1.257   2.353  0.0153 -0.2206 -0.2967
19179TIP3    H179028   6.436   1.189   2.332  0.4605 -0.8089  0.2622
19179TIP3    H279029   6.584   1.215   2.344  0.3374  0.5108 -0.8377
19180TIP3   OH279030   3.661   5.309   2.137  0.1904  0.0555  0.0542
19180TIP3    H179031   3.653   5.365   2.214 -1.1705  0.2008 -0.1541
19180TIP3    H279032   3.591   5.340   2.079 -0.3876 -1.6254 -0.1982
19181TIP3   OH279033   2.293   2.941   3.909 -0.2570  0.1253 -0.2033
19181TIP3    H179034   2.381   2.978   3.905 -0.2398  0.0133 -0.8467
19181TIP3    H279035   2.306   2.853   3.944 -0.1933  0.3570  0.3704
19182TIP3   OH279036   3.805   3.280   1.402 -0.0562  0.1718 -0.1848
19182TIP3    H179037   3.759   3.233   1.472 -3.5850  2.7695 -0.4694
19182TIP3    H279038   3.866   3.338   1.447 -0.5008  0.0638  0.5735
19183TIP3   OH279039   0.954   5.613   5.085  0.1378 -0.0658  0.3365
19183TIP3    H179040   0.942   5.518   5.085  0.9142 -0.1650  0.2988
19183TIP3    H279041   0.996   5.633   5.168  0.9545  0.1130 -0.1073
19184TIP3   OH279042   3.195   0.224  16.709  0.5957  0.0426  0.4430
19184TIP3    H179043   3.226   0.199  16.622  1.9242 -1.8931  1.3902
19184TIP3    H279044   3.101   0.237  16.698  0.7399 -0.1656 -1.2723
19185TIP3   OH279045   2.988   6.203  11.636  0.0850 -0.0739  0.0426
19185TIP3    H179046   2.917   6.263  11.615  0.5396  1.1360  1.7468
19185TIP3    H279047   2.950   6.116  11.621 -0.8218  0.5750 -1.7576
19186TIP3   OH279048   5.860   3.869   0.339  0.0977 -0.0187  0.4859
19186TIP3    H179049   5.941   3.921   0.342 -0.4396  0.8021  1.3661
19186TIP3    H279050   5.889   3.779   0.353  0.8502  0.2999  1.0982
19187TIP3   OH279051   6.782   2.349   5.115  0.2737  0.5355 -0.1369
19187TIP3    H179052   6.700   2.397   5.127 -0.3495 -0.6757  0.8677
19187TIP3    H279053   6.813   2.334   5.205  0.2642 -1.1555 -0.3820
19188TIP3   OH279054   2.474   0.296   0.341 -0.1645  0.1599 -0.5667
19188TIP3    H179055   2.465   0.391   0.346  0.8548  0.2990 -1.1463
19188TIP3    H279056   2.391   0.263   0.375  0.6073  1.1841  2.6179
19189TIP3   OH279057   0.094   0.012  17.212  0.1988 -0.2030 -0.1619
19189TIP3    H179058   0.131  -0.008  17.298  1.4416 -0.7367 -0.7989
19189TIP3    H279059   0.159   0.068  17.170 -0.5048  0.2430 -0.6829
19190TIP3   OH279060   3.684   4.612   0.781 -0.6838 -0.0564  0.3895
19190TIP3    H179061   3.761   4.615   0.838 -1.2986 -0.8278  1.3002
19190TIP3    H279062   3.625   4.679   0.818 -0.8352 -0.1325  0.2845
19191TIP3   OH279063   3.555   4.968  10.520  0.4671  0.6604  0.5469
19191TIP3    H179064   3.610   4.890  10.505  0.5010  0.6382  0.7840
19191TIP3    H279065   3.614   5.032  10.558  0.5837  1.0197 -0.2144
19192TIP3   OH279066   1.205   4.639  12.118 -0.3517  0.3680 -0.1834
19192TIP3    H179067   1.296   4.615  12.101 -0.4274 -0.0381 -0.0217
19192TIP3    H279068   1.160   4.556  12.126 -0.7802  0.5687 -0.4766
19193TIP3   OH279069   5.623   4.705   4.252 -0.0680  0.4596 -0.8154
19193TIP3    H179070   5.664   4.630   4.210 -0.5201 -0.1099 -0.2759
19193TIP3    H279071   5.696   4.760   4.281  0.2758  0.0718 -0.9402
19194TIP3   OH279072   2.360   0.516   2.368 -0.2466  0.2955  0.3429
19194TIP3    H179073   2.342   0.609   2.381  1.1938  0.3939  2.1276
19194TIP3    H279074   2.396   0.510   2.280  0.3070  1.5399  0.4698
19195TIP3   OH279075   2.160   1.784  17.279 -0.3851 -0.1704 -0.2255
19195TIP3    H179076   2.173   1.740  17.195 -0.5579 -0.4820 -0.0897
19195TIP3    H279077   2.219   1.860  17.276 -1.1117  0.3771 -1.0260
19196TIP3   OH279078   1.935   2.717  15.775 -0.7121  0.5081 -0.0168
19196TIP3    H179079   1.967   2.637  15.816  1.9381  1.4245 -0.1296
19196TIP3    H279080   1.955   2.706  15.682  0.1368  1.4825  0.0391
19197TIP3   OH279081   6.662   6.028  13.118 -0.7468 -0.1769  0.7388
19197TIP3    H179082   6.677   5.978  13.198 -1.5023 -2.1568 -0.2826
19197TIP3    H279083   6.573   6.061  13.126 -0.5880  0.1872  1.0010
19198TIP3   OH279084   0.115   1.998  16.355  0.3305  0.0613 -0.3024
19198TIP3    H179085   0.191   2.030  16.404  0.3002  0.5885 -0.5952
19198TIP3    H279086   0.041   2.042  16.395  0.3520  0.8693 -1.1272
19199TIP3   OH279087   2.317   3.178  11.766  0.0373  0.3460 -0.2608
19199TIP3    H179088   2.390   3.126  11.733 -1.1622 -1.6010 -0.0342
19199TIP3    H279089   2.257   3.184  11.692  0.1187  1.3585 -0.2508
19200TIP3   OH279090   5.778   0.241   4.348 -0.1185 -0.1097  0.2406
19200TIP3    H179091   5.738   0.317   4.304  0.5982 -0.3178 -0.8153
19200TIP3    H279092   5.860   0.227   4.300  1.1035  0.1430  2.1633
19201TIP3   OH279093   4.160   1.492  12.628 -0.0754  0.0900 -0.0213
19201TIP3    H179094   4.118   1.578  12.640 -0.7976 -0.3918  1.0354
19201TIP3    H279095   4.246   1.502  12.669  0.0055  0.4155 -0.2555
19202TIP3   OH279096   4.511   2.701   3.395  0.0491 -0.0200  0.4483
19202TIP3    H179097   4.420   2.672   3.382 -0.2844  1.1381  0.1105
19202TIP3    H279098   4.511   2.747   3.479  0.4417 -0.4498  0.6904
19203TIP3   OH279099   2.552   2.682   2.314  0.2566  0.1942 -0.1961
19203TIP3    H179100   2.517   2.647   2.395 -0.9877  0.3034 -0.6677
19203TIP3    H279101   2.637   2.719   2.338  0.2162 -0.4044  0.9026
19204TIP3   OH279102   1.058   3.905  12.566 -0.5981  0.0068  0.3950
19204TIP3    H179103   1.126   3.968  12.542 -1.3518  1.4209  1.7435
19204TIP3    H279104   1.058   3.841  12.495  1.9753  0.0714  0.2647
19205TIP3   OH279105   3.055   3.882   4.767 -0.1301 -0.0053 -0.5249
19205TIP3    H179106   3.067   3.909   4.676  1.7236  0.2779 -0.2440
19205TIP3    H279107   2.976   3.928   4.796 -0.4558  0.2944 -1.8333
19206TIP3   OH279108   4.655   6.365   3.579 -0.4182  0.0180 -0.4990
19206TIP3    H179109   4.721   6.295   3.588  1.0110  1.0224 -2.4868
19206TIP3    H279110   4.628   6.361   3.488 -0.0303  2.2466 -0.7719
19207TIP3   OH279111   1.328   2.371   5.353  0.2401 -0.3798 -0.1160
19207TIP3    H179112   1.259   2.386   5.418  0.2693 -0.0321 -0.1655
19207TIP3    H279113   1.318   2.278   5.329 -0.3645 -0.2729 -0.2972
19208TIP3   OH279114   5.615   1.410  16.327  0.0101 -0.7175  0.3313
19208TIP3    H179115   5.558   1.338  16.356 -0.0302 -1.6458 -1.8676
19208TIP3    H279116   5.703   1.381  16.348 -0.0364 -1.2404 -0.1811
19209TIP3   OH279117   4.289   5.502   5.204 -0.4482 -0.7790  0.3219
19209TIP3    H179118   4.283   5.409   5.226  0.1465 -1.4690 -2.0807
19209TIP3    H279119   4.318   5.503   5.112 -2.6191  1.7478 -0.4645
19210TIP3   OH279120   4.341   4.391  16.937  0.2977  0.0952 -0.0460
19210TIP3    H179121   4.380   4.391  16.849  1.5578 -0.2619  0.4791
19210TIP3    H279122   4.310   4.481  16.949  0.9919  0.4101 -0.5033
19211TIP3   OH279123   2.731   1.626  16.052  0.3656  0.2157 -0.5238
19211TIP3    H179124   2.767   1.622  15.964  2.5936  0.1659  0.3292
19211TIP3    H279125   2.789   1.686  16.099 -2.4963  2.6284  0.1889
19212TIP3   OH279126   0.168   5.116   3.172 -0.1628  0.0829 -0.4826
19212TIP3    H179127   0.256   5.104   3.135  0.8508  0.5600  1.5942
19212TIP3    H279128   0.137   5.027   3.190 -0.0758 -0.0855 -1.1640
19213TIP3   OH279129   4.437   5.953   3.901 -0.1092 -0.1971 -0.3035
19213TIP3    H179130   4.503   5.983   3.839 -0.2760  0.9362  0.0424
19213TIP3    H279131   4.479   5.881   3.947  0.4979 -0.1860 -0.8204
19214TIP3   OH279132   1.024   1.840  13.574 -0.2215  0.4236  0.2763
19214TIP3    H179133   0.934   1.825  13.604 -1.0253  0.5103 -1.8829
19214TIP3    H279134   1.044   1.929  13.603 -0.8415  0.4151  0.7624
19215TIP3   OH279135   6.682   5.278  13.449 -0.5682 -0.2802 -0.7046
19215TIP3    H179136   6.627   5.250  13.376 -1.5019 -1.1515  0.2962
19215TIP3    H279137   6.722   5.197  13.481  0.2483  0.1654 -0.5711
19216TIP3   OH279138   5.638   1.024  12.526  1.0000 -0.0910  0.2206
19216TIP3    H179139   5.734   1.026  12.523  1.2312  0.3758  3.9320
19216TIP3    H279140   5.618   0.969  12.601 -1.7287 -0.7615 -0.9014
19217TIP3   OH279141   1.538   2.171   1.589 -0.2855  0.5894 -0.0379
19217TIP3    H179142   1.568   2.093   1.544 -0.4334 -0.3633  1.4375
19217TIP3    H279143   1.458   2.145   1.633  0.0302  1.3539  1.0506
19218TIP3   OH279144   6.164   2.602  17.109  0.3685 -0.4128  0.0132
19218TIP3    H179145   6.116   2.541  17.053 -1.9372 -0.2929  1.7059
19218TIP3    H279146   6.180   2.678  17.053 -0.1216 -1.0547 -1.0394
19219TIP3   OH279147   3.608   5.366   1.129 -0.6115  0.2962 -0.3641
19219TIP3    H179148   3.633   5.381   1.221  0.4167 -0.3422 -0.5248
19219TIP3    H279149   3.521   5.328   1.134 -0.5949  0.3321  0.3496
19220TIP3   OH279150   3.887   6.565   4.743  0.8231 -0.6508 -0.1192
19220TIP3    H179151   3.803   6.536   4.707  0.5018  0.2213 -0.0818
19220TIP3    H279152   3.873   6.567   4.838  1.9841 -3.9990  0.2711
19221TIP3   OH279153   2.502   5.194  12.919  0.2956  0.6077  0.3207
19221TIP3    H179154   2.593   5.218  12.900  0.6344 -1.2821 -0.6570
19221TIP3    H279155   2.454   5.219  12.839  0.3935 -0.5204 -0.1065
19222TIP3   OH279156   0.106   2.033   4.229  0.4452  0.0305 -0.4885
19222TIP3    H179157   0.161   2.111   4.224 -0.0553  0.5139  0.9018
19222TIP3    H279158   0.016   2.067   4.225  0.2263 -0.6499 -1.6479
19223TIP3   OH279159   3.459   6.060  12.106 -0.5024  0.2016 -1.2877
19223TIP3    H179160   3.493   5.993  12.166 -0.4817  0.8188 -0.6009
19223TIP3    H279161   3.370   6.032  12.086 -1.1848  0.9441  0.5120
19224TIP3   OH279162   3.878   0.378  14.649  0.4883  0.0996 -0.7025
19224TIP3    H179163   3.822   0.302  14.664  1.5215 -0.7872 -1.2760
19224TIP3    H279164   3.836   0.425  14.577  0.7906 -0.8817 -1.5283
19225TIP3   OH279165   0.588   0.816   5.289  0.0336  0.2245  0.1684
19225TIP3    H179166   0.619   0.870   5.361 -4.1716  0.8505  1.7550
19225TIP3    H279167   0.533   0.749   5.331 -0.9032 -0.6706 -2.2994
19226TIP3   OH279168   5.476   1.077  14.115 -0.2316 -0.7214 -0.4514
19226TIP3    H179169   5.520   1.141  14.171  0.7386 -1.1749 -0.6773
19226TIP3    H279170   5.453   1.126  14.036 -0.3214 -0.4272 -0.2414
19227TIP3   OH279171   2.651   3.415  13.297 -0.0166 -0.8881  0.4305
19227TIP3    H179172   2.613   3.501  13.312 -0.2915 -0.7192 -1.1035
19227TIP3    H279173   2.578   3.354  13.307 -0.0137 -0.8608  0.6190
19228TIP3   OH279174   5.974   3.259   5.350  0.1152  0.4721 -0.4770
19228TIP3    H179175   5.933   3.312   5.419 -1.1420 -1.3812  0.2883
19228TIP3    H279176   5.910   3.261   5.278 -0.4070 -0.7495 -0.0694
19229TIP3   OH279177   2.914   0.558   3.310  0.1379  0.1672 -0.2544
19229TIP3    H179178   2.945   0.631   3.365 -1.3341  0.8719 -0.3168
19229TIP3    H279179   2.952   0.480   3.350  0.3615  0.8164  0.8410
19230TIP3   OH279180   3.063   5.697   0.571 -0.0514  0.5615 -0.1468
19230TIP3    H179181   3.158   5.694   0.570 -0.0630 -0.6340  0.2623
19230TIP3    H279182   3.038   5.698   0.478  0.3482 -1.5908 -0.3258
19231TIP3   OH279183   6.310   3.562   2.732  0.0983  0.3530  0.7588
19231TIP3    H179184   6.374   3.621   2.692  0.1695 -0.2945 -0.1320
19231TIP3    H279185   6.335   3.557   2.824  0.2632  1.4672  0.7910
19232TIP3   OH279186   1.319   4.276   2.169 -0.1892  0.5439  0.0204
19232TIP3    H179187   1.239   4.256   2.215 -0.4319 -0.1342 -0.6781
19232TIP3    H279188   1.310   4.234   2.084  0.7428  0.7768 -0.2164
19233TIP3   OH279189   5.169   1.594  11.892 -0.7878  0.3073  0.2250
19233TIP3    H179190   5.173   1.587  11.796 -1.9671  0.5226  0.1490
19233TIP3    H279191   5.214   1.515  11.923  0.0130  0.4629 -0.4950
19234TIP3   OH279192   3.062   2.222   2.469  0.1527 -0.2479 -0.0809
19234TIP3    H179193   3.004   2.266   2.531  0.4332  0.8890 -0.5813
19234TIP3    H279194   3.071   2.285   2.396  0.1947 -1.3504 -1.0550
19235TIP3   OH279195   0.214   2.126  15.019  0.2339 -0.3444 -0.0043
19235TIP3    H179196   0.299   2.168  15.017 -0.4564  1.1743 -2.5257
19235TIP3    H279197   0.220   2.056  14.953 -0.6572  0.3082 -0.8196
19236TIP3   OH279198   5.053   4.423   1.992  0.3755 -0.0361 -0.1520
19236TIP3    H179199   4.974   4.423   1.939  0.0685 -1.5820  0.2647
19236TIP3    H279200   5.099   4.342   1.967  2.4633  1.4026 -1.2845
19237TIP3   OH279201   5.776   2.987  11.339 -0.5665  0.1194 -0.0504
19237TIP3    H179202   5.701   2.932  11.316 -0.2062 -0.4215  0.0649
19237TIP3    H279203   5.749   3.076  11.314 -1.2313 -0.0773 -0.0426
19238TIP3   OH279204   5.046   3.872  15.007 -0.6241 -0.7262 -0.1992
19238TIP3    H179205   5.069   3.814  14.934  1.4881  0.3097 -0.4420
19238TIP3    H279206   4.995   3.816  15.066  0.3749 -2.5241 -0.9435
19239TIP3   OH279207   0.139   3.047   3.531  0.1983  0.8917  0.1056
19239TIP3    H179208   0.140   2.957   3.562  1.2263  1.5652  2.2233
19239TIP3    H279209   0.218   3.056   3.479  0.0268  0.5434 -0.2181
19240TIP3   OH279210   2.473   1.842  16.487 -0.4419 -0.2304  0.5652
19240TIP3    H179211   2.395   1.790  16.467 -0.0363 -1.0380  1.0507
19240TIP3    H279212   2.447   1.896  16.561 -0.0393 -1.7456  1.8645
19241TIP3   OH279213   3.309   6.801  12.509  0.1703 -0.3644 -0.1065
19241TIP3    H179214   3.320   6.809  12.603 -1.9729 -0.7204  0.2395
19241TIP3    H279215   3.319   6.707  12.491 -1.9435 -0.7055  0.2250
19242TIP3   OH279216   6.639   1.165  13.312  0.3690 -0.3042 -0.1602
19242TIP3    H179217   6.555   1.180  13.269  0.6262  0.0289 -0.5564
19242TIP3    H279218   6.688   1.246  13.298  0.3504 -0.0578  1.0372
19243TIP3   OH279219   2.025   0.331  14.270 -0.3872  0.2129 -0.1030
19243TIP3    H179220   1.971   0.280  14.210 -1.3152 -0.3251  1.1350
19243TIP3    H279221   2.099   0.273  14.291 -0.2780  0.2436 -0.4016
19244TIP3   OH279222   4.269   0.555  15.842  0.2421  0.0534 -0.1542
19244TIP3    H179223   4.296   0.598  15.923 -0.6774  1.7362 -0.7008
19244TIP3    H279224   4.174   0.552  15.846  0.2718 -2.5090  0.1003
19245TIP3   OH279225   1.417   5.060   5.839 -0.4292  0.2132 -0.1353
19245TIP3    H179226   1.355   5.103   5.898 -0.9327 -0.1629 -0.3878
19245TIP3    H279227   1.414   5.112   5.758 -0.4084  0.1937 -0.1485
19246TIP3   OH279228   0.255   3.327   0.686 -0.0294 -0.2998 -0.5667
19246TIP3    H179229   0.171   3.291   0.659 -2.9108  4.2733  1.1450
19246TIP3    H279230   0.264   3.301   0.778 -0.8574  1.1102 -0.0597
19247TIP3   OH279231   0.962   3.216   0.007  0.2840 -0.0893  0.5726
19247TIP3    H179232   0.987   3.308  -0.005 -0.5676 -0.0743 -1.6805
19247TIP3    H279233   0.939   3.209   0.099 -0.6199  2.2630  0.5979
19248TIP3   OH279234   5.397   2.695   5.602  0.7004 -0.0838  0.6653
19248TIP3    H179235   5.380   2.758   5.532  0.8317  0.0429  0.7479
19248TIP3    H279236   5.336   2.720   5.672 -0.9630 -1.5043 -0.1971
19249TIP3   OH279237   3.067   5.297   0.615 -0.3811  0.6861  0.3141
19249TIP3    H179238   3.046   5.206   0.598 -2.6629  1.2009 -0.0437
19249TIP3    H279239   3.106   5.329   0.533  1.3834 -0.1654  0.7771
19250TIP3   OH279240   5.563   2.634   2.562 -0.4715 -0.4068 -0.0519
19250TIP3    H179241   5.509   2.710   2.543  0.1139  0.4074  1.4043
19250TIP3    H279242   5.554   2.621   2.657  1.5858 -0.4518  0.1860
19251TIP3   OH279243   3.152   5.133  13.274 -0.8359 -0.0096 -0.1027
19251TIP3    H179244   3.205   5.123  13.353 -1.1800 -0.2845  0.1002
19251TIP3    H279245   3.211   5.111  13.203 -0.0271  1.9004 -0.0723
19252TIP3   OH279246   6.585   3.208  16.135  0.1479 -0.6953  0.4187
19252TIP3    H179247   6.615   3.146  16.202  0.5661 -1.0266 -0.0644
19252TIP3    H279248   6.661   3.220  16.078  0.0702  0.2830  0.5144
19253TIP3   OH279249   6.482   2.720   3.343 -0.3440  0.0841 -0.3530
19253TIP3    H179250   6.509   2.726   3.251 -1.8452 -0.3543 -0.8460
19253TIP3    H279251   6.452   2.630   3.354 -1.6364  0.5491  0.1356
19254TIP3   OH279252   0.767   5.038   4.848 -0.1816  0.3247  1.0525
19254TIP3    H179253   0.753   4.986   4.769 -0.3695  0.4695  0.9910
19254TIP3    H279254   0.861   5.031   4.865 -0.2488 -0.2912  1.2194
19255TIP3   OH279255   1.659   2.908   1.529 -0.2334 -0.4788  0.0492
19255TIP3    H179256   1.635   3.000   1.521  0.4265 -0.2217  0.9278
19255TIP3    H279257   1.623   2.867   1.450  1.4623  0.9470 -1.5415
19256TIP3   OH279258   4.073   4.041   6.061 -0.5616  0.2074  0.8919
19256TIP3    H179259   4.030   3.986   6.126 -0.3445 -0.2801  0.6196
19256TIP3    H279260   4.166   4.030   6.078 -0.4316 -1.1589 -0.4945
19257TIP3   OH279261   5.166   2.057   1.526  0.4310  0.7199 -0.1075
19257TIP3    H179262   5.143   1.969   1.499  1.2650  0.1019  1.1101
19257TIP3    H279263   5.254   2.049   1.563  1.1616  2.3359 -1.3366
19258TIP3   OH279264   1.798   4.011  12.525 -0.4374 -0.1242  0.0647
19258TIP3    H179265   1.867   4.002  12.459  0.3194  1.3561  0.6190
19258TIP3    H279266   1.770   3.921  12.542  1.8558 -0.8640  0.3404
19259TIP3   OH279267   5.013   4.294  12.212  0.6090 -0.6829 -0.2195
19259TIP3    H179268   5.074   4.283  12.286  0.5788  1.5408  0.2216
19259TIP3    H279269   5.041   4.376  12.171  0.0190 -1.4008 -2.1250
19260TIP3   OH279270   2.760   4.689   2.967  0.2249 -0.0816  0.4568
19260TIP3    H179271   2.729   4.600   2.983  0.1947 -0.0977  0.3108
19260TIP3    H279272   2.682   4.737   2.939  0.6548 -0.6009 -1.8931
19261TIP3   OH279273   6.511   1.251   3.155 -0.2972 -0.3947 -0.0427
19261TIP3    H179274   6.486   1.216   3.069 -1.8508  0.0113  0.2001
19261TIP3    H279275   6.427   1.264   3.200  0.3572  1.3001  0.7747
19262TIP3   OH279276   4.895   1.304  15.987  0.5774 -0.0075  0.1414
19262TIP3    H179277   4.813   1.271  15.949  1.3535 -0.3991 -1.2838
19262TIP3    H279278   4.923   1.373  15.926  0.8397  0.7791  1.1253
19263TIP3   OH279279   1.161   1.105  12.641  0.3524 -0.3948 -0.6116
19263TIP3    H179280   1.254   1.112  12.664  0.2886  0.0015 -0.4725
19263TIP3    H279281   1.129   1.031  12.694  0.0271  0.9661  1.1739
19264TIP3   OH279282   1.256   1.948  12.829 -0.9823  0.5807 -0.0089
19264TIP3    H179283   1.248   2.036  12.866 -0.8683  0.5171  0.1721
19264TIP3    H279284   1.260   1.891  12.906  0.9517  0.5783 -0.0596
19265TIP3   OH279285   2.136   2.944   4.765 -0.0422 -0.1921  0.7232
19265TIP3    H179286   2.177   2.870   4.809 -0.3718 -1.2587 -0.6741
19265TIP3    H279287   2.208   3.001   4.740  0.4070 -0.9568  0.2238
19266TIP3   OH279288   0.812   0.833   4.457 -0.1443  0.4672  0.3515
19266TIP3    H179289   0.725   0.871   4.474 -0.1638  0.7524 -0.3683
19266TIP3    H279290   0.873   0.893   4.499 -0.1627  1.4212 -0.9347
19267TIP3   OH279291   4.767   4.540   4.311  0.0760  0.0429 -0.7341
19267TIP3    H179292   4.833   4.515   4.375  0.7312  1.5804 -0.7612
19267TIP3    H279293   4.723   4.615   4.350  0.9701  1.4790 -2.3308
19268TIP3   OH279294   1.471   1.969  14.815 -0.1237 -0.8277  0.2194
19268TIP3    H179295   1.541   1.972  14.880  0.4125  0.3633 -0.3857
19268TIP3    H279296   1.509   1.923  14.741  0.0275 -0.2102 -0.0954
19269TIP3   OH279297   3.621   3.180  14.711 -0.3663 -0.2059  0.1435
19269TIP3    H179298   3.689   3.246  14.697 -1.5050  0.9464 -0.0349
19269TIP3    H279299   3.539   3.228  14.710 -1.1852 -1.5250  0.7486
19270TIP3   OH279300   4.526   2.866  12.639 -0.1643 -0.8778 -0.3323
19270TIP3    H179301   4.551   2.914  12.560  0.0406 -0.6812 -0.1512
19270TIP3    H279302   4.432   2.852  12.630 -0.9278  2.3745  1.0622
19271TIP3   OH279303   4.052   2.486  12.923  0.3253 -0.7762 -0.2177
19271TIP3    H179304   3.958   2.474  12.929  0.0434 -0.2539 -2.5952
19271TIP3    H279305   4.089   2.415  12.976 -1.3609 -0.9016  0.8613
19272TIP3   OH279306   3.645   2.284   6.179 -0.1061 -0.3809 -0.3395
19272TIP3    H179307   3.626   2.198   6.215  0.3514 -0.5360 -0.4650
19272TIP3    H279308   3.723   2.313   6.225  0.4666 -0.5642 -1.1591
19273TIP3   OH279309   0.906   2.849  12.378  0.0974 -0.2839 -0.5535
19273TIP3    H179310   0.864   2.764  12.380 -0.3870 -0.0428 -0.2942
19273TIP3    H279311   1.000   2.830  12.384  0.2769 -0.9981 -3.8938
19274TIP3   OH279312   5.123   4.367   5.558  0.3560  0.8194  0.3216
19274TIP3    H179313   5.131   4.453   5.600  0.4370  0.4650  1.0547
19274TIP3    H279314   5.205   4.323   5.578 -0.3115 -0.0087  1.3140
19275TIP3   OH279315   1.231   2.802   4.512  0.0004 -0.5770 -0.2774
19275TIP3    H179316   1.152   2.822   4.561  0.0082 -0.8814 -0.1314
19275TIP3    H279317   1.298   2.786   4.579  0.2171 -0.1930 -0.4003
19276TIP3   OH279318   0.820   4.973  17.230 -0.3744  0.1009 -0.3639
19276TIP3    H179319   0.914   4.966  17.248 -0.7916  0.4782  2.4068
19276TIP3    H279320   0.798   5.064  17.251 -1.0111  0.7377 -3.2948
19277TIP3   OH279321   1.174   3.347  12.918  0.1558  0.3208 -0.3225
19277TIP3    H179322   1.193   3.303  12.836  0.0523 -0.0482 -0.1553
19277TIP3    H279323   1.087   3.313  12.943 -0.2458  1.1627 -0.5488
19278TIP3   OH279324   4.345   1.606  13.323  0.0952 -0.3405 -0.0108
19278TIP3    H179325   4.254   1.580  13.310  0.1267  0.0212 -1.0374
19278TIP3    H279326   4.369   1.569  13.408 -1.2870  0.3480  0.7118
19279TIP3   OH279327   2.794   3.203  11.067  0.2290  0.5137  0.4631
19279TIP3    H179328   2.756   3.287  11.096 -0.7079 -0.4930  2.3723
19279TIP3    H279329   2.887   3.222  11.054 -0.5215  2.7070 -2.9004
19280TIP3   OH279330   0.290   3.435   6.070 -0.0677  0.3611  0.0062
19280TIP3    H179331   0.261   3.345   6.081  0.1055  0.3256  0.1844
19280TIP3    H279332   0.228   3.486   6.123 -0.6803  0.4384 -0.7692
19281TIP3   OH279333   6.600   6.571   2.282 -0.2681  0.7652  0.0638
19281TIP3    H179334   6.580   6.572   2.375 -0.3841 -3.1280  0.2274
19281TIP3    H279335   6.694   6.552   2.278 -0.8756 -2.8018 -0.4274
19282TIP3   OH279336   1.615   4.607   1.520 -0.3980 -0.6876 -0.1665
19282TIP3    H179337   1.559   4.661   1.464  0.5842  0.0477 -0.4454
19282TIP3    H279338   1.560   4.531   1.542 -0.9846 -0.7233 -1.6735
19283TIP3   OH279339   5.185   6.074  12.234  0.7210  0.1395 -0.1160
19283TIP3    H179340   5.209   6.012  12.166  1.3456  1.1176 -0.8272
19283TIP3    H279341   5.119   6.131  12.193  0.9051  0.5705  0.1708
19284TIP3   OH279342   3.327   2.525  16.703  0.5980  0.3933 -0.7628
19284TIP3    H179343   3.260   2.593  16.694  0.5458  0.1510 -2.4460
19284TIP3    H279344   3.371   2.546  16.786 -1.3835  0.6924  0.2638
19285TIP3   OH279345   4.887   2.420   5.993  0.2917 -0.4739  0.4539
19285TIP3    H179346   4.862   2.511   5.975  2.8974  0.0309 -1.0303
19285TIP3    H279347   4.928   2.422   6.080  1.2823 -0.0113 -0.0172
19286TIP3   OH279348   2.608   2.794   4.474  0.1351 -0.1263  0.3782
19286TIP3    H179349   2.517   2.811   4.453 -0.3986 -2.6278  0.3663
19286TIP3    H279350   2.609   2.779   4.568  0.0835 -2.3086  0.0752
19287TIP3   OH279351   6.185   3.974   1.197  0.0161  0.6414  0.2117
19287TIP3    H179352   6.234   4.002   1.119 -2.4010  0.3507 -1.5396
19287TIP3    H279353   6.138   4.052   1.225 -0.1419  0.4162  0.5771
19288TIP3   OH279354   0.645   4.844  14.180 -0.1002 -0.6455  0.1031
19288TIP3    H179355   0.610   4.762  14.217 -0.1917 -0.8235 -0.3787
19288TIP3    H279356   0.641   4.906  14.253 -2.3591 -0.3731 -0.1917
19289TIP3   OH279357   3.908   6.385  16.692 -0.2750  0.5892  0.2625
19289TIP3    H179358   3.942   6.318  16.633  1.5429  2.4082 -0.8719
19289TIP3    H279359   3.818   6.356  16.711  0.2732 -1.8867 -0.5301
19290TIP3   OH279360   6.374   4.825   5.360  0.2855 -0.2600  0.2295
19290TIP3    H179361   6.423   4.751   5.325  1.8091  1.2992 -1.1180
19290TIP3    H279362   6.405   4.835   5.450  0.1301 -1.1802  0.3874
19291TIP3   OH279363   5.596   1.572  12.927 -0.5933  0.9872 -0.3534
19291TIP3    H179364   5.582   1.478  12.918  0.6628  0.8900 -1.5150
19291TIP3    H279365   5.567   1.609  12.843  3.0316  1.0862 -1.7341
19292TIP3   OH279366   0.920   3.469   0.396 -0.3699  0.0254  0.0148
19292TIP3    H179367   0.857   3.517   0.450  0.4884  3.1930 -1.5518
19292TIP3    H279368   0.867   3.411   0.342 -1.4941 -0.7542  1.8742
19293TIP3   OH279369   2.961   3.205  14.283  0.1312  0.0856  0.1086
19293TIP3    H179370   2.941   3.114  14.264  2.0852 -0.3169 -0.2550
19293TIP3    H279371   3.015   3.234  14.209 -2.6964  2.4528 -1.2790
19294TIP3   OH279372   4.625   0.490  11.354 -0.2500 -0.0697  0.1057
19294TIP3    H179373   4.560   0.452  11.413  0.8576 -0.4723  1.1083
19294TIP3    H279374   4.690   0.421  11.341 -0.8386 -0.2716 -2.2445
19295TIP3   OH279375   4.392   1.448   2.634  0.4764  0.0954 -0.2479
19295TIP3    H179376   4.394   1.357   2.663 -0.4414 -0.4629 -1.7656
19295TIP3    H279377   4.470   1.457   2.579  0.2957  0.0711 -0.5088
19296TIP3   OH279378   4.028   3.804   5.568 -0.4002 -0.0196  0.4472
19296TIP3    H179379   4.011   3.841   5.655 -1.3879  0.7328 -0.0446
19296TIP3    H279380   4.094   3.862   5.531  0.1908 -0.4735  0.7634
19297TIP3   OH279381   3.803   6.097   2.078 -0.6971  0.4951  0.0297
19297TIP3    H179382   3.871   6.039   2.043 -0.3944  1.3702 -0.8703
19297TIP3    H279383   3.726   6.079   2.023 -0.6027  0.9418 -0.2519
19298TIP3   OH279384   6.575   4.222  14.865 -0.0806  0.3757 -0.1293
19298TIP3    H179385   6.486   4.235  14.833 -0.1730  0.4745  0.1578
19298TIP3    H279386   6.571   4.249  14.957  0.5384  1.5887 -0.4420
19299TIP3   OH279387   2.827   0.564   5.412 -0.2150  0.3165 -0.4830
19299TIP3    H179388   2.868   0.584   5.328  2.9308  1.2840  1.0991
19299TIP3    H279389   2.866   0.480   5.438 -0.8242  0.2393  0.2011
19300TIP3   OH279390   5.365   1.259  15.516  0.1865  0.1516  0.6499
19300TIP3    H179391   5.371   1.220  15.603  0.3346  1.1851  1.1139
19300TIP3    H279392   5.283   1.226  15.480 -0.6359  0.8837  1.7733
19301TIP3   OH279393   6.386   6.025   2.247 -0.1115  0.1982 -0.0101
19301TIP3    H179394   6.370   5.954   2.309 -2.3855 -0.0025 -0.7264
19301TIP3    H279395   6.406   5.980   2.165  1.3750  0.4436  0.2060
19302TIP3   OH279396   1.318   0.079   1.752  0.7894 -0.2560 -0.5095
19302TIP3    H179397   1.250   0.106   1.690  0.8323  0.7305 -0.1403
19302TIP3    H279398   1.307  -0.016   1.759 -0.1533 -0.1880 -0.9127
19303TIP3   OH279399   0.953   5.051  16.966 -0.0777 -0.7270  0.0435
19303TIP3    H179400   0.911   5.004  17.038 -1.2084 -0.8831 -0.6931
19303TIP3    H279401   0.886   5.056  16.898 -0.2576  2.4477  0.2730
19304TIP3   OH279402   0.144   2.205   2.890 -0.2421  0.2854 -0.4702
19304TIP3    H179403   0.132   2.133   2.827 -0.5646 -0.7747  0.7628
19304TIP3    H279404   0.056   2.239   2.905 -0.5058 -1.0098  1.1411
19305TIP3   OH279405   2.712   1.574   0.021 -0.1915  0.5865 -0.3911
19305TIP3    H179406   2.698   1.507   0.088 -2.1308  1.6913  0.3753
19305TIP3    H279407   2.772   1.637   0.061  1.2146 -0.3468 -0.9245
19306TIP3   OH279408   2.106   5.907   3.665 -0.6170 -0.0541  0.1697
19306TIP3    H179409   2.027   5.917   3.718 -1.0500 -0.2834 -0.4209
19306TIP3    H279410   2.099   5.975   3.598 -0.6050 -0.4497 -0.2366
19307TIP3   OH279411   5.607   3.410  12.165  0.7314 -0.0452  0.1059
19307TIP3    H179412   5.598   3.491  12.116 -1.6958 -0.2563  0.0779
19307TIP3    H279413   5.674   3.361  12.119 -0.2753  0.4785 -2.0336
19308TIP3   OH279414   4.723   4.294  12.098 -0.1865  0.0060 -0.3170
19308TIP3    H179415   4.750   4.362  12.160  0.8056  0.0453 -0.7740
19308TIP3    H279416   4.724   4.213  12.149  0.6173  0.0410 -0.2652
19309TIP3   OH279417   1.115   6.336   0.579  0.1568 -0.1626  0.2450
19309TIP3    H179418   1.097   6.356   0.671 -0.4558 -2.7700  0.7632
19309TIP3    H279419   1.062   6.400   0.530  0.0845  0.9243  1.6914
19310TIP3   OH279420   3.864   4.838   3.571  0.1759  0.2810  0.4455
19310TIP3    H179421   3.842   4.909   3.630  2.0858  0.2298  1.2751
19310TIP3    H279422   3.883   4.763   3.628  3.3109  0.5695 -0.0278
19311TIP3   OH279423   0.557   1.200  14.339  0.0389  0.1617  0.2603
19311TIP3    H179424   0.469   1.233  14.357 -0.3654 -0.6155 -0.2360
19311TIP3    H279425   0.548   1.152  14.257  0.1956 -2.6687  1.8068
19312TIP3   OH279426   4.098   6.077   2.339  0.6014 -0.0823  0.1810
19312TIP3    H179427   4.188   6.106   2.353  0.4298  1.1988 -1.1585
19312TIP3    H279428   4.069   6.124   2.261 -0.9151 -1.2117  0.0081
19313TIP3   OH279429   5.705   6.590  15.802  0.6082  0.4251  0.2825
19313TIP3    H179430   5.664   6.620  15.882  0.6936  0.5924  0.2645
19313TIP3    H279431   5.792   6.559  15.829 -0.7229 -3.2945  0.9409
19314TIP3   OH279432   3.322   4.411   1.304 -0.3287 -0.6200 -0.5545
19314TIP3    H179433   3.406   4.383   1.339 -0.4787 -1.0538 -0.5387
19314TIP3    H279434   3.271   4.438   1.381 -0.2823 -0.5658 -0.5430
19315TIP3   OH279435   4.717   3.263  13.730 -0.3339 -0.2645 -0.0993
19315TIP3    H179436   4.718   3.220  13.645  0.8236 -1.2410  0.3819
19315TIP3    H279437   4.720   3.190  13.793 -0.6999  0.4587  0.7746
19316TIP3   OH279438   3.944   6.078   1.089 -0.6871  0.2911 -0.1320
19316TIP3    H179439   3.852   6.067   1.067 -0.5877 -0.2290 -0.2875
19316TIP3    H279440   3.947   6.067   1.184 -0.5049 -1.7216 -0.3321
19317TIP3   OH279441   3.969   5.785   3.125 -0.2449 -0.0699  0.0233
19317TIP3    H179442   3.993   5.861   3.178  0.8677 -0.0603 -0.4725
19317TIP3    H279443   4.044   5.772   3.066 -1.5686  0.1441 -1.7955
19318TIP3   OH279444   6.558   3.000   1.303 -0.5255 -0.3917 -0.4073
19318TIP3    H179445   6.467   2.991   1.331 -0.7766 -0.1091 -1.1089
19318TIP3    H279446   6.580   2.914   1.265 -0.8859 -0.0871 -1.3203
19319TIP3   OH279447   5.459   0.032   6.417  0.3203  0.0534  0.1596
19319TIP3    H179448   5.517   0.008   6.489 -0.5754  0.4808  1.0515
19319TIP3    H279449   5.438  -0.051   6.374  0.5446 -0.2562  0.6422
19320TIP3   OH279450   4.153   4.388   2.446 -0.2735  0.5381 -0.4019
19320TIP3    H179451   4.136   4.312   2.391 -1.0918  0.5927 -0.2329
19320TIP3    H279452   4.135   4.463   2.390 -0.9980  0.5935 -0.1039
19321TIP3   OH279453   2.432   3.343  12.890 -0.6083  0.1072 -0.0723
19321TIP3    H179454   2.374   3.277  12.927 -0.7776 -0.5879 -1.5126
19321TIP3    H279455   2.391   3.369  12.808  0.3926  0.6578 -0.4250
19322TIP3   OH279456   5.409   0.598   4.932 -1.1012  0.0042 -0.8525
19322TIP3    H179457   5.368   0.646   4.860 -3.4248 -2.0007 -0.9846
19322TIP3    H279458   5.350   0.525   4.949  0.1177 -0.4221  2.1500
19323TIP3   OH279459   1.592   5.965   1.214 -0.6792  0.2689 -0.8825
19323TIP3    H179460   1.659   5.898   1.200 -0.3301  0.1679  1.0499
19323TIP3    H279461   1.605   6.027   1.143 -0.2038 -1.0674 -2.0068
19324TIP3   OH279462   2.257   4.224   3.383  0.0054 -0.3077 -0.6057
19324TIP3    H179463   2.174   4.180   3.402  0.8593 -0.8760  2.2007
19324TIP3    H279464   2.235   4.286   3.313 -3.0064  0.2337  0.6545
19325TIP3   OH279465   4.947   5.831   2.500  0.1427 -0.1546  0.2940
19325TIP3    H179466   4.958   5.739   2.521 -0.3898 -0.3901 -0.4272
19325TIP3    H279467   5.037   5.864   2.490  0.3289 -0.6437  0.3316
19326TIP3   OH279468   0.704   6.087  17.170  0.6267  0.1232  0.3963
19326TIP3    H179469   0.626   6.138  17.148  0.5146  1.0626  2.7057
19326TIP3    H279470   0.673   5.998  17.184  0.3028  0.0835 -0.4904
19327TIP3   OH279471   3.661   3.014   6.763  0.0285  0.1349 -0.2052
19327TIP3    H179472   3.752   3.000   6.737  0.1308  0.2429  0.0803
19327TIP3    H279473   3.609   2.966   6.699  0.2390  0.9890 -1.0268
19328TIP3   OH279474   2.505   0.100  11.278 -0.3149  0.0894 -0.1935
19328TIP3    H179475   2.501   0.168  11.345 -0.9457 -1.3094  1.2208
19328TIP3    H279476   2.553   0.028  11.318  1.4815  0.1148 -2.1005
19329TIP3   OH279477   5.603   1.368   0.599  0.7649  0.2406  0.1779
19329TIP3    H179478   5.637   1.448   0.637  0.8368  0.2264  0.1435
19329TIP3    H279479   5.653   1.298   0.640 -0.1576  0.1240  1.1503
19330TIP3   OH279480   5.896   1.370  16.278  0.1739 -0.1807 -0.0614
19330TIP3    H179481   5.983   1.337  16.298  0.6227  0.7222 -0.5208
19330TIP3    H279482   5.857   1.302  16.223 -0.0883 -1.4260  1.5921
19331TIP3   OH279483   4.192   2.880   1.207  0.4786  0.5867  0.1225
19331TIP3    H179484   4.120   2.821   1.184 -0.2127  1.1129  0.8933
19331TIP3    H279485   4.241   2.832   1.273 -1.3567  1.6922  2.4147
19332TIP3   OH279486   4.873   4.262  15.602  0.2561  0.2630  0.2540
19332TIP3    H179487   4.903   4.203  15.671  2.2793  0.1403 -0.6561
19332TIP3    H279488   4.908   4.225  15.521  2.7269  3.2386 -0.2688
19333TIP3   OH279489   4.068   1.927   1.599 -0.7329  0.4500  0.4210
19333TIP3    H179490   4.104   2.012   1.573 -1.8132  1.2050  1.2858
19333TIP3    H279491   4.145   1.874   1.619 -0.0484  1.4311  0.4769
19334TIP3   OH279492   4.528   3.838   2.220 -0.0644  0.4026  0.3334
19334TIP3    H179493   4.546   3.793   2.302  2.9933 -2.1472 -1.5200
19334TIP3    H279494   4.574   3.922   2.228 -1.3850  1.0393  1.8296
19335TIP3   OH279495   4.446   0.341   3.988  0.0746  0.0281  0.2753
19335TIP3    H179496   4.387   0.266   3.991 -0.1103  0.1876  0.7583
19335TIP3    H279497   4.405   0.401   3.925  0.7381 -0.6912 -0.8744
19336TIP3   OH279498   1.084   2.612  16.614 -0.3564  0.4529  0.1072
19336TIP3    H179499   1.058   2.551  16.683 -0.1473  0.5339  0.2584
19336TIP3    H279500   1.160   2.571  16.573  0.2268  0.9594  0.6846
19337TIP3   OH279501   3.433   0.934   4.491  0.4555  0.1225  0.4033
19337TIP3    H179502   3.492   1.005   4.514  1.8850 -0.7718 -0.3661
19337TIP3    H279503   3.364   0.976   4.439 -0.1953  1.3367  2.1694
19338TIP3   OH279504   0.392   1.914   6.602 -0.6002 -0.3106 -0.5624
19338TIP3    H179505   0.481   1.886   6.625  0.3358  2.2206 -0.8095
19338TIP3    H279506   0.337   1.880   6.672  0.4727 -2.2634 -0.6045
19339TIP3   OH279507   0.389   5.412   4.985  0.3358  0.5400 -0.1777
19339TIP3    H179508   0.448   5.355   4.935 -0.0107 -2.2040  2.2593
19339TIP3    H279509   0.311   5.421   4.929  0.5720 -1.0865 -0.8347
19340TIP3   OH279510   1.060   4.994   1.405 -0.0166 -0.0981  0.3527
19340TIP3    H179511   1.141   5.033   1.436 -0.4821  0.6043  0.7216
19340TIP3    H279512   1.019   4.957   1.484  0.2850 -1.0884  0.0511
19341TIP3   OH279513   6.733   3.751   5.244  0.7015  0.0396 -0.0836
19341TIP3    H179514   6.818   3.769   5.205  0.6256  1.1962  0.2476
19341TIP3    H279515   6.752   3.734   5.336  0.5236  1.0996  0.1699
19342TIP3   OH279516   4.358   3.367  14.348 -0.3993  0.0649  0.3374
19342TIP3    H179517   4.448   3.345  14.374 -0.5625 -0.6627  0.3127
19342TIP3    H279518   4.349   3.460  14.370  0.3460  0.1383  0.3751
19343TIP3   OH279519   4.551   2.044  12.844  0.3320  0.7637 -0.4300
19343TIP3    H179520   4.536   2.012  12.934 -1.3496 -1.0463 -1.2695
19343TIP3    H279521   4.480   2.107  12.830  1.1039  1.7037 -0.2416
19344TIP3   OH279522   3.863   0.822   2.154 -0.3665 -0.1417  0.0849
19344TIP3    H179523   3.843   0.739   2.197 -3.5291  1.3079  1.7139
19344TIP3    H279524   3.819   0.818   2.070  0.1563 -0.3862 -0.1831
19345TIP3   OH279525   5.272   0.304  12.546  0.3211  0.8270  0.5416
19345TIP3    H179526   5.244   0.319  12.636 -0.3574  0.4621  0.4028
19345TIP3    H279527   5.287   0.392  12.511  1.1371  0.9431  1.1715
19346TIP3   OH279528   2.701   3.274   3.418  0.1382  0.1071 -0.0111
19346TIP3    H179529   2.793   3.276   3.444  0.5237 -1.5690 -1.0092
19346TIP3    H279530   2.653   3.309   3.492  1.4733 -0.5736  1.2263
19347TIP3   OH279531   5.035   3.458  13.317 -0.4892 -0.1610  0.7251
19347TIP3    H179532   5.014   3.479  13.408 -1.4026  1.2766  0.2084
19347TIP3    H279533   5.102   3.521  13.292 -1.2170  0.3483  0.0043
19348TIP3   OH279534   2.906   0.283  12.448 -0.4027 -0.1020  0.1069
19348TIP3    H179535   2.813   0.264  12.457 -0.1159 -1.1074  1.0193
19348TIP3    H279536   2.928   0.253  12.360 -0.4347 -2.1203  0.7412
19349TIP3   OH279537   3.275   2.845   0.976 -0.1186  0.0706  0.4637
19349TIP3    H179538   3.260   2.815   1.066 -0.5781 -0.7425  0.1246
19349TIP3    H279539   3.201   2.903   0.958 -0.2371 -0.0744  0.4784
19350TIP3   OH279540   3.001   4.691  16.162  0.1776 -0.6754  0.5485
19350TIP3    H179541   3.085   4.715  16.201  0.1789 -1.9022  1.3539
19350TIP3    H279542   2.969   4.619  16.216 -0.7234 -1.1759 -0.6065
19351TIP3   OH279543   1.200   0.001   2.836  0.0403  0.5179 -0.3459
19351TIP3    H179544   1.180   0.066   2.768 -2.7521 -1.1824 -1.3289
19351TIP3    H279545   1.190   0.048   2.918  3.1385  2.5352 -0.9314
19352TIP3   OH279546   4.251   5.817   3.222 -0.2155 -0.1492  0.3109
19352TIP3    H179547   4.258   5.785   3.132  2.6673  0.2261  0.3104
19352TIP3    H279548   4.248   5.737   3.276  0.8621 -0.4401 -0.0191
19353TIP3   OH279549   6.390   2.716   5.946 -0.2480  0.1802 -0.2977
19353TIP3    H179550   6.398   2.684   5.856  0.4255 -0.0916 -0.1489
19353TIP3    H279551   6.296   2.723   5.960 -0.3691 -0.0434 -0.9326
19354TIP3   OH279552   6.245   5.798   4.516  0.5639 -0.5295  0.1787
19354TIP3    H179553   6.222   5.732   4.582 -0.7941  1.4498  1.7873
19354TIP3    H279554   6.339   5.810   4.526  0.5128 -0.8674  1.1519
19355TIP3   OH279555   6.163   5.731  12.932 -0.0496 -0.2566 -0.4721
19355TIP3    H179556   6.207   5.755  13.014 -0.6181 -0.8071  0.0037
19355TIP3    H279557   6.233   5.732  12.866  0.6865 -1.1351  0.2662
19356TIP3   OH279558   2.039   0.905  11.139 -0.2330  0.5036 -0.6020
19356TIP3    H179559   2.097   0.830  11.126  1.6597  1.7725 -0.0766
19356TIP3    H279560   2.047   0.956  11.059 -2.2316 -0.2556 -1.3372
19357TIP3   OH279561   6.368   5.405   2.592 -0.2940  0.8074 -1.3161
19357TIP3    H179562   6.337   5.326   2.549 -0.5781  0.3859 -0.3746
19357TIP3    H279563   6.443   5.434   2.541 -0.1673 -0.0930 -1.6443
19358TIP3   OH279564   0.208   6.129  16.415  0.5689  0.3451 -0.1555
19358TIP3    H179565   0.131   6.120  16.472  0.0093 -0.1510 -0.9783
19358TIP3    H279566   0.177   6.178  16.340  0.6215 -1.2384 -1.2605
19359TIP3   OH279567   0.533   2.795  16.790 -0.1354  0.1986 -0.6464
19359TIP3    H179568   0.593   2.768  16.859  1.1770  0.5498 -1.6071
19359TIP3    H279569   0.454   2.743  16.804 -0.7112  1.6420  2.2901
19360TIP3   OH279570   0.682   3.807  11.312 -0.4339 -0.0577  0.2949
19360TIP3    H179571   0.620   3.878  11.296 -0.8026 -0.6748 -1.2004
19360TIP3    H279572   0.646   3.733  11.264 -0.5154 -1.5419  2.4952
19361TIP3   OH279573   1.312   1.237  13.201  0.1613  0.1783 -0.0117
19361TIP3    H179574   1.316   1.142  13.203  0.4724  0.1872 -0.1364
19361TIP3    H279575   1.232   1.259  13.249  0.6708 -0.1033  0.9900
19362TIP3   OH279576   0.933   0.235  11.923  0.2868  0.1339  0.4835
19362TIP3    H179577   0.880   0.254  12.001  0.1066  1.2110  0.1129
19362TIP3    H279578   1.017   0.206  11.959  0.4441  1.2983  1.0968
19363TIP3   OH279579   2.030   2.630  17.068 -0.2162  0.1148 -0.2953
19363TIP3    H179580   1.938   2.650  17.049 -0.7102 -0.0382  1.7434
19363TIP3    H279581   2.076   2.713  17.053 -0.6855  0.2351 -1.1636
19364TIP3   OH279582   6.812   6.396  15.815  0.3864 -0.0782 -0.3267
19364TIP3    H179583   6.747   6.433  15.755  0.5799  2.1839  0.7699
19364TIP3    H279584   6.875   6.352  15.757 -0.8653 -0.3344 -1.5569
19365TIP3   OH279585   5.543   5.811   4.523 -0.2993 -0.0164 -0.2133
19365TIP3    H179586   5.474   5.875   4.505 -0.3083  0.0979  0.2138
19365TIP3    H279587   5.574   5.833   4.610  1.6352  1.1699 -1.1299
19366TIP3   OH279588   6.531   2.002  11.580 -0.3308  0.2395 -0.3706
19366TIP3    H179589   6.543   2.031  11.490 -0.9954  1.7043 -0.0214
19366TIP3    H279590   6.603   2.042  11.628 -0.6994  0.5118 -0.0414
19367TIP3   OH279591   6.753   4.235   2.076  0.2109 -1.1698  0.0791
19367TIP3    H179592   6.719   4.299   2.138  1.0798 -1.3165  0.7242
19367TIP3    H279593   6.820   4.283   2.027  0.8102 -1.5640  0.5121
19368TIP3   OH279594   2.485   1.605  11.958  0.2864 -0.0023 -0.2339
19368TIP3    H179595   2.473   1.529  11.901  1.0481  0.2110 -0.6929
19368TIP3    H279596   2.547   1.575  12.025  1.4451  0.5194 -1.0429
19369TIP3   OH279597   3.482   5.652   5.181 -0.2555 -0.5561  0.8039
19369TIP3    H179598   3.424   5.581   5.206  0.0962 -1.2581 -0.3133
19369TIP3    H279599   3.518   5.626   5.096 -2.5695  2.4031 -1.2943
19370TIP3   OH279600   2.418   1.882  11.848 -0.6671 -0.4848  0.8001
19370TIP3    H179601   2.504   1.922  11.839 -1.4505  2.4959  4.2733
19370TIP3    H279602   2.436   1.795  11.884  0.9860  0.7298  3.1900
19371TIP3   OH279603   1.167   6.735  14.417 -0.1544  0.2229 -0.0998
19371TIP3    H179604   1.191   6.740  14.509 -1.1139  0.3044  0.1556
19371TIP3    H279605   1.247   6.705  14.373 -0.1542 -1.4852  0.9807
19372TIP3   OH279606   2.962   5.915   4.025 -0.2230  0.4562  0.1202
19372TIP3    H179607   2.888   5.954   4.072 -1.4501 -0.4429 -0.9877
19372TIP3    H279608   2.940   5.926   3.933  1.9835  1.9083 -0.3169
19373TIP3   OH279609   0.992   0.433  13.894  0.6089 -0.5962 -0.1749
19373TIP3    H179610   1.038   0.350  13.893  1.9960  0.1385 -1.3802
19373TIP3    H279611   0.900   0.410  13.877  1.1770 -1.7860 -1.9710
19374TIP3   OH279612   1.207   2.485   3.836 -0.0564  0.5873  0.4936
19374TIP3    H179613   1.277   2.525   3.887 -0.0515  1.2575 -0.0329
19374TIP3    H279614   1.220   2.391   3.847  1.1561  0.6947  0.0898
19375TIP3   OH279615   2.862   2.169  11.941 -0.3113 -0.7750  0.5444
19375TIP3    H179616   2.913   2.239  11.901 -0.5351 -1.0666 -0.2693
19375TIP3    H279617   2.815   2.212  12.012 -1.4526  0.2060 -0.7457
19376TIP3   OH279618   1.902   1.654  12.034 -0.3250  0.4175 -0.3311
19376TIP3    H179619   1.994   1.667  12.056 -0.5434 -1.5719  2.3333
19376TIP3    H279620   1.862   1.741  12.043  0.8293  0.8353  1.3240
19377TIP3   OH279621   0.221   4.345  12.027  0.3059 -0.2233 -0.3261
19377TIP3    H179622   0.176   4.404  12.088 -0.1929  0.1902 -1.0742
19377TIP3    H279623   0.307   4.385  12.015  0.1929  0.0168 -0.3514
19378TIP3   OH279624   5.333   0.538  15.372  0.0866  0.4448 -0.1100
19378TIP3    H179625   5.277   0.604  15.413 -1.5423 -0.1770 -1.2478
19378TIP3    H279626   5.273   0.466  15.350  1.5432 -0.7463 -0.3417
19379TIP3   OH279627   1.515   5.736  13.211 -0.7746  0.0236 -0.5818
19379TIP3    H179628   1.436   5.739  13.158 -0.8443  0.3557 -0.4630
19379TIP3    H279629   1.579   5.692  13.156 -0.4104  1.6819 -1.5523
19380TIP3   OH279630   1.936   0.224   2.085  0.4261 -0.3337 -0.3504
19380TIP3    H179631   1.975   0.253   2.168 -1.0021 -1.5596  0.7969
19380TIP3    H279632   2.009   0.186   2.037  1.8306  2.6321 -0.8218
19381TIP3   OH279633   5.130   1.008   0.287 -0.2494 -0.0539 -0.9152
19381TIP3    H179634   5.077   0.991   0.365  0.4725 -2.8723 -0.9183
19381TIP3    H279635   5.166   0.923   0.264 -0.3114  0.6929 -4.2900
19382TIP3   OH279636   1.835   0.052  15.967  0.0263 -0.5396 -0.2606
19382TIP3    H179637   1.922   0.066  16.005  0.1008  1.2770 -0.9918
19382TIP3    H279638   1.844  -0.026  15.913  0.8198 -1.1695  0.7573
19383TIP3   OH279639   3.346   4.486  17.022 -0.3040 -0.3333 -0.0997
19383TIP3    H179640   3.440   4.483  17.040 -0.2990 -0.5086 -0.1542
19383TIP3    H279641   3.308   4.524  17.101 -0.2108 -0.4752  0.0144
19384TIP3   OH279642   6.199   5.297   0.892  0.7551  0.3884  0.1763
19384TIP3    H179643   6.239   5.298   0.805  0.0494  0.5414 -0.1531
19384TIP3    H279644   6.147   5.378   0.895  1.0200  0.5412  0.8564
19385TIP3   OH279645   4.182   5.395  14.383  0.7697 -0.5794 -0.2043
19385TIP3    H179646   4.170   5.314  14.433  0.0278 -0.9524 -0.9594
19385TIP3    H279647   4.235   5.451  14.440  0.5868 -1.2780  0.6736
19386TIP3   OH279648   0.207   3.696   5.262 -0.0274  0.4829 -0.2660
19386TIP3    H179649   0.289   3.660   5.296 -0.5980  1.5544  2.6107
19386TIP3    H279650   0.188   3.770   5.321 -3.2884 -0.0386 -0.4802
19387TIP3   OH279651   0.909   6.409  15.901 -0.7487 -0.4381  0.0091
19387TIP3    H179652   0.972   6.447  15.963  0.6425  0.5300 -1.9083
19387TIP3    H279653   0.823   6.426  15.942  0.1441 -1.9818  2.7916
19388TIP3   OH279654   5.777   0.451   5.079  0.2713  0.0823  0.0693
19388TIP3    H179655   5.844   0.415   5.137  0.9832 -1.2296 -1.4907
19388TIP3    H279656   5.816   0.445   4.991 -0.8973  1.6747 -0.6118
19389TIP3   OH279657   1.052   0.515   4.209  0.0284  0.4349  0.0568
19389TIP3    H179658   1.008   0.494   4.126 -1.0704 -0.8736  0.9166
19389TIP3    H279659   0.999   0.586   4.246 -1.6143 -1.2747  1.1859
19390TIP3   OH279660   6.236   6.684  10.913 -0.1604  0.2345  0.8518
19390TIP3    H179661   6.170   6.615  10.897 -1.0077  1.5971 -2.4708
19390TIP3    H279662   6.184   6.761  10.935  0.2666  1.2191 -1.3860
19391TIP3   OH279663   0.459   3.017  16.101  0.4024 -0.0316  0.3434
19391TIP3    H179664   0.490   3.108  16.108 -0.7237  0.4107 -0.1000
19391TIP3    H279665   0.466   2.996  16.008  0.6947 -0.4185  0.4492
19392TIP3   OH279666   3.703   5.297  10.809 -0.4588 -0.3836  0.2928
19392TIP3    H179667   3.706   5.392  10.824  0.1306 -0.4924  0.9520
19392TIP3    H279668   3.778   5.263  10.858  0.3762 -1.0179 -1.3552
19393TIP3   OH279669   3.818   4.201  16.769 -0.0450 -0.5788 -0.5346
19393TIP3    H179670   3.804   4.114  16.734  0.8326 -1.6092  1.5144
19393TIP3    H279671   3.906   4.199  16.806  0.4167  1.5256 -1.3748
19394TIP3   OH279672   5.325   1.707  16.480  0.2202 -0.2466 -0.0566
19394TIP3    H179673   5.311   1.770  16.550  0.3313 -0.8694  0.5353
19394TIP3    H279674   5.254   1.725  16.417  0.1393  0.3342  0.1963
19395TIP3   OH279675   5.120   5.258   4.998 -0.4566  0.2133 -0.3659
19395TIP3    H179676   5.153   5.346   4.983  0.5597  0.1360  1.1490
19395TIP3    H279677   5.044   5.250   4.940 -0.4025  1.9747 -0.7256
19396TIP3   OH279678   3.409   1.281   3.841 -0.5825 -0.2454  0.0998
19396TIP3    H179679   3.337   1.331   3.802 -0.7400  0.2288  0.9830
19396TIP3    H279680   3.393   1.285   3.935  0.9242  0.3796  0.3545
19397TIP3   OH279681   0.410   2.003  14.276 -0.0447 -0.1593 -0.2737
19397TIP3    H179682   0.502   2.019  14.298 -0.3676  0.1578  0.8995
19397TIP3    H279683   0.398   1.909  14.289  0.3424 -0.3837 -1.3854
19398TIP3   OH279684   6.597   1.689  15.402  0.1803  0.6946  0.0253
19398TIP3    H179685   6.558   1.614  15.446  0.9130  0.4381  0.2470
19398TIP3    H279686   6.688   1.689  15.430 -0.1452  2.6266  1.3511
19399TIP3   OH279687   2.668   0.420  11.332  0.1453  0.1734 -0.1590
19399TIP3    H179688   2.649   0.472  11.410  0.4082 -1.4619  1.0525
19399TIP3    H279689   2.760   0.397  11.339 -0.0917 -0.9190 -0.3398
19400TIP3   OH279690   1.063   5.471   2.063  0.0261 -0.1506  0.1682
19400TIP3    H179691   1.112   5.442   1.986 -2.2096 -2.6030 -0.4601
19400TIP3    H279692   1.112   5.436   2.138  0.9156  0.2252 -0.2139
19401TIP3   OH279693   3.558   5.670   2.854  0.4861  0.1796 -0.2638
19401TIP3    H179694   3.579   5.739   2.917  0.3092  0.6505 -0.7217
19401TIP3    H279695   3.623   5.680   2.785 -1.4646  1.9832 -1.9612
19402TIP3   OH279696   1.735   2.349  11.219 -0.0814  0.4467  0.1133
19402TIP3    H179697   1.730   2.297  11.300  1.2950 -0.5951 -0.4397
19402TIP3    H279698   1.790   2.424  11.242  0.9163 -0.2267 -0.0318
19403TIP3   OH279699   2.445   2.031   1.634 -0.1511 -0.1495  0.3418
19403TIP3    H179700   2.356   2.061   1.652 -0.1137  0.5471 -0.5534
19403TIP3    H279701   2.484   2.101   1.582  1.5127  0.3357  2.1394
19404TIP3   OH279702   1.958   2.806   3.948  0.1670 -0.0049 -0.1580
19404TIP3    H179703   1.911   2.811   4.031  1.5341  3.2008  0.6028
19404TIP3    H279704   1.975   2.713   3.935 -0.8722 -0.6914  2.6738
19405TIP3   OH279705   2.065   5.448   1.867  0.0311  0.0657 -0.3475
19405TIP3    H179706   2.028   5.380   1.923 -3.0024  0.5776 -1.5113
19405TIP3    H279707   2.134   5.488   1.920 -0.1892 -1.8691  1.5440
19406TIP3   OH279708   4.632   3.964  11.868 -0.3979  0.1404  0.3256
19406TIP3    H179709   4.695   4.032  11.844 -0.2502 -0.0311  0.2306
19406TIP3    H279710   4.547   4.004  11.851 -0.3058 -0.5247 -1.9980
19407TIP3   OH279711   5.934   0.799  16.408 -0.9363 -0.4162  0.1665
19407TIP3    H179712   5.966   0.787  16.498 -2.5919  1.2182  1.0454
19407TIP3    H279713   5.931   0.894  16.397 -0.5242 -0.5881 -1.7486
19408TIP3   OH279714   4.391   3.746  14.973  0.1149 -0.1115 -0.6521
19408TIP3    H179715   4.413   3.794  14.893  1.3242 -1.4947 -1.2077
19408TIP3    H279716   4.381   3.813  15.040 -1.3077  1.1180 -2.0334
19409TIP3   OH279717   1.398   5.278  15.964 -0.3360  0.2418  0.2572
19409TIP3    H179718   1.438   5.324  16.038 -0.3456  0.4021  0.1632
19409TIP3    H279719   1.420   5.185  15.978  2.1207  0.5226 -1.0152
19410TIP3   OH279720   2.190   4.436   1.357 -0.1852  0.5392 -0.1442
19410TIP3    H179721   2.249   4.420   1.284 -1.6462 -0.5210 -1.1511
19410TIP3    H279722   2.157   4.525   1.342 -0.8683  0.1443 -1.1006
19411TIP3   OH279723   3.808   1.468   3.586  0.2562 -0.3138  0.4335
19411TIP3    H179724   3.830   1.392   3.640  1.8117 -0.5416 -0.5028
19411TIP3    H279725   3.762   1.432   3.510  0.5227 -0.2563  0.2465
19412TIP3   OH279726   4.777   2.724   3.357  0.0063  0.1704 -0.1786
19412TIP3    H179727   4.793   2.632   3.375 -1.8211 -0.2399 -0.4180
19412TIP3    H279728   4.682   2.730   3.344  0.3072  1.6912 -2.3371
19413TIP3   OH279729   0.023   4.390   6.517  0.2446  0.4316  0.5371
19413TIP3    H179730   0.041   4.325   6.584 -0.5469  0.2595  0.5881
19413TIP3    H279731  -0.046   4.351   6.463  2.3219 -0.3781 -1.7023
19414TIP3   OH279732   5.313   2.712  11.389  0.1480 -0.5828 -0.3809
19414TIP3    H179733   5.383   2.730  11.326  0.4462  1.8658  0.5449
19414TIP3    H279734   5.233   2.731  11.340  0.2873 -0.4881 -0.5773
19415TIP3   OH279735   0.323   1.342  16.030 -0.7752 -0.6696  0.3187
19415TIP3    H179736   0.402   1.388  16.061 -1.3586 -0.6647  1.9142
19415TIP3    H279737   0.349   1.250  16.027 -0.8794 -0.7655  1.5709
19416TIP3   OH279738   4.144   3.068  16.251  0.1986 -0.3891  0.1441
19416TIP3    H179739   4.216   3.091  16.309  0.2227  0.3967 -0.1808
19416TIP3    H279740   4.075   3.131  16.272  0.8120  1.0154 -1.8058
19417TIP3   OH279741   1.124   1.477   3.168  0.5229 -0.5551 -0.3057
19417TIP3    H179742   1.134   1.550   3.230 -0.1935 -0.3465 -0.4339
19417TIP3    H279743   1.030   1.473   3.150  0.2305 -2.9018  1.3557
19418TIP3   OH279744   1.623   5.758   3.666  0.7851 -0.5164 -0.2275
19418TIP3    H179745   1.588   5.677   3.629  1.9822 -1.1761  0.0407
19418TIP3    H279746   1.704   5.774   3.617  0.6360  0.4578 -0.1847
19419TIP3   OH279747   1.560   0.834  10.489  0.2602 -0.9007  0.5149
19419TIP3    H179748   1.516   0.752  10.466 -0.3171 -0.5088  0.1883
19419TIP3    H279749   1.521   0.858  10.573 -0.0561 -0.6213  0.2902
19420TIP3   OH279750   2.156   4.919   3.765 -0.5945 -0.4769  0.6593
19420TIP3    H179751   2.233   4.878   3.805  0.5806  0.6930 -0.2813
19420TIP3    H279752   2.088   4.913   3.831  0.8210 -0.0355  2.2243
19421TIP3   OH279753   0.157   3.306  17.141  0.1036 -0.0081 -0.1964
19421TIP3    H179754   0.179   3.286  17.050 -1.1405 -1.2186 -0.2696
19421TIP3    H279755   0.129   3.223  17.178  2.2920  0.0837  1.8606
19422TIP3   OH279756   4.684   6.796  13.449 -0.1590 -0.0666  0.1417
19422TIP3    H179757   4.693   6.729  13.517 -1.9076  0.0139  0.5130
19422TIP3    H279758   4.759   6.783  13.392 -0.4699 -2.3870  0.1723
19423TIP3   OH279759   0.836   2.895  16.042 -0.2600 -0.5306  0.1614
19423TIP3    H179760   0.818   2.989  16.042  1.6056 -0.1095 -1.0476
19423TIP3    H279761   0.817   2.866  16.131 -0.8390  0.9849  0.5600
19424TIP3   OH279762   4.112   2.410  11.376 -0.8510  0.2302 -0.2052
19424TIP3    H179763   4.173   2.416  11.303  1.3277  0.0149  1.5012
19424TIP3    H279764   4.096   2.316  11.386 -1.4366  0.2811 -0.5990
19425TIP3   OH279765   5.583   2.746  13.115 -0.6014 -0.7681  0.1579
19425TIP3    H179766   5.637   2.696  13.176 -1.7063 -3.3509 -0.8462
19425TIP3    H279767   5.632   2.745  13.033 -0.0398  0.9838  0.4374
19426TIP3   OH279768   1.823   1.578  15.079  0.4525 -0.1414  0.4046
19426TIP3    H179769   1.812   1.636  15.155  0.6388 -0.1758  0.4586
19426TIP3    H279770   1.836   1.638  15.005 -1.3731 -0.0432  0.1051
19427TIP3   OH279771   5.098   5.992  14.047  0.3195 -0.6087  0.3919
19427TIP3    H179772   5.025   5.975  14.107  0.5595  0.1696  0.9198
19427TIP3    H279773   5.155   6.052  14.095  1.5189 -1.5088  0.1416
19428TIP3   OH279774   2.605   0.745   5.000  0.5408 -0.3388 -0.2612
19428TIP3    H179775   2.604   0.717   5.092  2.9567 -1.1602 -0.4411
19428TIP3    H279776   2.688   0.713   4.965  0.6459  1.7673 -2.1798
19429TIP3   OH279777   4.787   2.165  14.406 -0.0866  0.1643  0.6015
19429TIP3    H179778   4.830   2.250  14.396  0.1586  0.1783  1.6249
19429TIP3    H279779   4.715   2.182  14.466 -1.4631  0.1019 -0.9562
19430TIP3   OH279780   5.705   3.430   4.243 -0.3952  0.3104  0.6409
19430TIP3    H179781   5.775   3.475   4.291  0.2830 -0.3273  0.2819
19430TIP3    H279782   5.624   3.468   4.277  0.1408  1.8782  0.2471
19431TIP3   OH279783   4.434   6.675   4.058 -0.4487 -0.3356 -0.5980
19431TIP3    H179784   4.382   6.630   4.124 -1.5295 -0.9686 -1.8514
19431TIP3    H279785   4.512   6.620   4.047  0.7175  0.7622  1.4890
19432TIP3   OH279786   5.196   5.760   4.953  0.3752 -0.1457  0.4600
19432TIP3    H179787   5.243   5.777   4.872  0.7745 -0.0538  0.7092
19432TIP3    H279788   5.256   5.706   5.005 -0.8057 -2.3043 -0.2836
19433TIP3   OH279789   0.240   4.372  14.447 -0.0049  0.4158  0.0447
19433TIP3    H179790   0.251   4.277  14.443  0.2367  0.4623 -0.4906
19433TIP3    H279791   0.194   4.394  14.367 -2.6789  0.4336  1.4768
19434TIP3   OH279792   4.663   2.378  15.523 -0.1164 -0.5339 -0.1080
19434TIP3    H179793   4.749   2.419  15.523 -0.6742  0.7233  1.0149
19434TIP3    H279794   4.680   2.287  15.498  1.3693 -0.0344 -1.0507
19435TIP3   OH279795   3.325   5.870  16.751  0.1194 -0.0706  0.2678
19435TIP3    H179796   3.367   5.950  16.784  0.0102  0.7882 -1.5256
19435TIP3    H279797   3.247   5.859  16.805  1.2761 -0.2462  1.9830
19436TIP3   OH279798   4.766   2.878  12.264 -0.4702  0.8677  0.3704
19436TIP3    H179799   4.722   2.954  12.302 -0.8315  0.4568  0.7877
19436TIP3    H279800   4.859   2.893  12.282 -0.3484  2.0130 -1.0031
19437TIP3   OH279801   5.477   0.242  11.797 -0.1912  0.4051  0.4568
19437TIP3    H179802   5.392   0.221  11.837 -1.0072 -0.2161 -1.4633
19437TIP3    H279803   5.507   0.321  11.842 -2.1258  1.0352  0.7090
19438TIP3   OH279804   0.995   5.744  15.856 -0.0429  0.7118  0.2674
19438TIP3    H179805   1.069   5.712  15.805 -0.7038  0.1517 -0.3685
19438TIP3    H279806   0.973   5.672  15.915  0.4410  1.1922  1.0446
19439TIP3   OH279807   5.186   2.088   6.031 -0.0705  0.2013  0.4782
19439TIP3    H179808   5.106   2.048   5.997 -0.8986  0.9472  1.5008
19439TIP3    H279809   5.157   2.142   6.104  1.6685 -1.6932  2.7442
19440TIP3   OH279810   0.353   0.135  14.361 -0.4004  0.0371 -0.1626
19440TIP3    H179811   0.335   0.042  14.348  0.6712  0.0500 -1.9932
19440TIP3    H279812   0.277   0.180  14.325 -0.0044 -0.0904 -1.1733
19441TIP3   OH279813   1.339   0.244   2.654 -0.3304  0.4631 -0.4446
19441TIP3    H179814   1.360   0.336   2.638  0.6444  0.2842 -0.2835
19441TIP3    H279815   1.420   0.207   2.691 -1.4646  0.1229  1.8946
19442TIP3   OH279816   2.487   3.946  12.662  0.2535 -0.1635  0.0382
19442TIP3    H179817   2.470   4.010  12.730 -1.7687  1.7701 -2.0970
19442TIP3    H279818   2.422   3.877  12.675  1.9189 -1.5305  1.8479
19443TIP3   OH279819   3.452   3.385  12.096 -0.4673 -0.1911  0.1726
19443TIP3    H179820   3.388   3.329  12.141 -0.0671 -1.0596 -0.3136
19443TIP3    H279821   3.417   3.393  12.007  0.2374 -0.9191 -0.1805
19444TIP3   OH279822   5.937   3.350  11.246 -0.1833 -0.6123 -0.2601
19444TIP3    H179823   5.930   3.258  11.219 -3.4899 -0.8838  0.9923
19444TIP3    H279824   5.897   3.351  11.333  2.1888  1.6408  0.9284
19445TIP3   OH279825   0.394   0.693   1.550  0.6194  0.2730 -0.2410
19445TIP3    H179826   0.314   0.641   1.558  1.6927 -1.1454  2.2229
19445TIP3    H279827   0.441   0.653   1.476  0.1811 -0.4666 -0.1333
19446TIP3   OH279828   6.611   1.118  12.806 -0.4619  0.3753  0.4164
19446TIP3    H179829   6.659   1.105  12.888 -1.3614  2.4562  1.3597
19446TIP3    H279830   6.615   1.034  12.762  0.4836 -0.6752  2.3719
19447TIP3   OH279831   6.191   2.671   2.572  0.2977 -0.1881  0.1615
19447TIP3    H179832   6.099   2.650   2.558 -0.0573  2.0738 -1.4360
19447TIP3    H279833   6.210   2.638   2.660 -1.8748 -1.1425  0.3342
19448TIP3   OH279834   6.677   2.552   1.590  0.1172 -0.0556 -0.2575
19448TIP3    H179835   6.747   2.518   1.646  0.2612 -1.1301 -1.0625
19448TIP3    H279836   6.677   2.647   1.605  1.3113 -0.1284  0.2315
19449TIP3   OH279837   4.557   6.541  12.183 -0.6043  0.1281 -0.0463
19449TIP3    H179838   4.550   6.615  12.243 -2.3028 -0.7613  0.9006
19449TIP3    H279839   4.513   6.570  12.103 -0.4109  0.4743 -0.0287
19450TIP3   OH279840   5.561   5.884   1.196 -0.6746  0.9348 -0.6562
19450TIP3    H179841   5.467   5.866   1.200 -0.3496 -1.1689 -1.4943
19450TIP3    H279842   5.602   5.798   1.185  1.4012  1.7475  0.1876
19451TIP3   OH279843   4.289   0.399   0.097  0.2800 -0.0774 -0.0317
19451TIP3    H179844   4.218   0.429   0.040 -1.3233 -1.3793  1.1530
19451TIP3    H279845   4.270   0.441   0.181  0.4572 -1.0609  0.5094
19452TIP3   OH279846   3.045   5.472  16.166  0.0513  1.0164  0.0254
19452TIP3    H179847   3.079   5.470  16.256  0.7696  1.1256 -0.2339
19452TIP3    H279848   3.015   5.562  16.154 -0.9677  0.7429  0.4821
19453TIP3   OH279849   5.255   2.978   3.878  0.3296 -0.0315  0.1444
19453TIP3    H179850   5.297   2.904   3.835 -0.1832 -2.0390  2.8887
19453TIP3    H279851   5.328   3.032   3.908  0.7309  1.9957 -3.7874
19454TIP3   OH279852   1.996   6.451  11.716 -0.1159  0.6622  0.0205
19454TIP3    H179853   1.971   6.413  11.631 -0.8971  2.7638 -0.7447
19454TIP3    H279854   1.947   6.532  11.722 -0.5555  0.2853  2.8243
19455TIP3   OH279855   4.226   2.829   3.528  0.1848  0.2201  0.5299
19455TIP3    H179856   4.227   2.742   3.488 -0.1535 -0.5622  2.1435
19455TIP3    H279857   4.169   2.881   3.472  0.7993 -0.4386 -0.7484
19456TIP3   OH279858   2.009   3.150   0.371 -0.1617  0.0425  0.7675
19456TIP3    H179859   2.091   3.119   0.332 -0.4585 -1.2921  1.1568
19456TIP3    H279860   1.960   3.071   0.389 -2.2082  0.8558 -0.8552
19457TIP3   OH279861   1.026   6.450   0.089 -0.3276 -0.0427 -0.1667
19457TIP3    H179862   1.074   6.478   0.011 -1.3448  0.5157 -0.6047
19457TIP3    H279863   1.070   6.370   0.117 -0.3125 -0.5771 -1.6490
19458TIP3   OH279864   1.990   2.880   0.421  0.5372 -0.6634 -0.4732
19458TIP3    H179865   2.034   2.821   0.359  1.8504 -0.4500  0.2365
19458TIP3    H279866   2.046   2.880   0.498  0.1030  0.8498 -0.1329
19459TIP3   OH279867   3.200   3.461  14.392 -0.0773  0.0586  0.4631
19459TIP3    H179868   3.265   3.394  14.415  1.9490  2.1467  1.2655
19459TIP3    H279869   3.148   3.422  14.322  0.2542 -2.7322  1.6584
19460TIP3   OH279870   0.954   4.207   4.144  0.1489 -0.4253 -0.3865
19460TIP3    H179871   1.002   4.283   4.110  0.1170 -1.1722 -2.2012
19460TIP3    H279872   0.866   4.216   4.107  0.1718 -1.3665 -0.6848
19461TIP3   OH279873   5.197   1.268  13.360 -0.4370  0.4227 -0.5067
19461TIP3    H179874   5.115   1.234  13.325  0.0671 -0.6609 -0.6756
19461TIP3    H279875   5.265   1.232  13.303  0.2626  0.0880  0.5031
19462TIP3   OH279876   4.800   0.470  14.520  0.0957  0.0778 -0.6559
19462TIP3    H179877   4.892   0.461  14.545  0.4274  3.9345  0.1046
19462TIP3    H279878   4.753   0.464  14.603 -0.2879 -0.9321 -0.9310
19463TIP3   OH279879   4.173   4.413   0.065 -0.2190  0.3556 -0.0035
19463TIP3    H179880   4.229   4.490   0.052 -0.8564  1.0034  0.9459
19463TIP3    H279881   4.133   4.398  -0.021  0.6801  0.4579 -0.4507
19464TIP3   OH279882   2.372   2.280   3.504 -0.2723 -0.1512 -0.0603
19464TIP3    H179883   2.302   2.304   3.443  0.6377 -0.1066 -1.1180
19464TIP3    H279884   2.392   2.361   3.551 -1.7189 -0.4348  1.0965
19465TIP3   OH279885   3.324   0.061  12.194 -0.3268  0.3311  0.1214
19465TIP3    H179886   3.321   0.157  12.200  2.0535  0.5209 -0.7024
19465TIP3    H279887   3.371   0.034  12.273  1.7965  0.1504 -1.1429
19466TIP3   OH279888   1.727   5.470  11.119 -0.4015  0.2129  0.1453
19466TIP3    H179889   1.713   5.547  11.174 -1.0641  0.2026  0.0078
19466TIP3    H279890   1.781   5.411  11.172  0.6437  1.0356  0.0026
19467TIP3   OH279891   4.006   3.627   2.456  0.1418  0.0049  0.1296
19467TIP3    H179892   4.059   3.669   2.388  0.5920 -0.9453 -0.1303
19467TIP3    H279893   3.925   3.602   2.411  0.4594 -0.6675 -0.0980
19468TIP3   OH279894   6.173   5.530   3.798 -0.0968  0.3470 -0.7253
19468TIP3    H179895   6.222   5.609   3.825 -0.6027  0.0971  1.0891
19468TIP3    H279896   6.239   5.475   3.755  0.8061  0.8248 -0.0089
19469TIP3   OH279897   6.464   3.139   1.508  0.3031 -0.6449  0.0755
19469TIP3    H179898   6.533   3.134   1.442  1.6247  0.1477  1.3334
19469TIP3    H279899   6.444   3.048   1.530  0.2016 -0.9015 -1.0342
19470TIP3   OH279900   0.195   6.052  14.946  0.0706 -0.9522  0.0873
19470TIP3    H179901   0.152   5.996  15.010 -0.3345 -1.2080 -0.3975
19470TIP3    H279902   0.127   6.114  14.919  0.3424 -0.6100  0.1750
19471TIP3   OH279903   2.151   1.538  13.691 -0.3424  0.1015 -0.1087
19471TIP3    H179904   2.071   1.539  13.639 -0.4087 -3.7506 -0.3655
19471TIP3    H279905   2.125   1.577  13.775 -0.7210  4.6015 -2.0394
19472TIP3   OH279906   2.974   0.631   0.125  0.4920  0.2470  0.2210
19472TIP3    H179907   2.989   0.640   0.031 -3.6507  0.3588 -0.6293
19472TIP3    H279908   2.971   0.721   0.158  1.2382  0.2329  0.3394
19473TIP3   OH279909   0.999   5.826  14.639  0.0844 -0.1287 -0.7361
19473TIP3    H179910   1.051   5.803  14.717 -0.3272  0.9473 -0.1212
19473TIP3    H279911   1.051   5.893  14.595 -1.3939  2.0876  0.6949
19474TIP3   OH279912   1.091   1.524  12.471 -0.3886  0.4374 -0.5435
19474TIP3    H179913   1.180   1.546  12.498 -0.9924  0.1325  1.8952
19474TIP3    H279914   1.095   1.431  12.446 -0.0402  0.4080 -0.3735
19475TIP3   OH279915   1.902   3.126  14.052  0.3606 -0.1933  0.0695
19475TIP3    H179916   1.858   3.207  14.028 -0.9892 -0.9318 -0.0694
19475TIP3    H279917   1.855   3.094  14.129 -0.6303 -1.9482 -1.1852
19476TIP3   OH279918   4.417   4.291   3.637  0.0461 -0.4467 -0.2993
19476TIP3    H179919   4.392   4.260   3.724 -2.8429 -0.9602 -1.2061
19476TIP3    H279920   4.375   4.376   3.629 -1.5303 -1.3095 -1.8901
19477TIP3   OH279921   5.554   6.459   3.850  0.2629 -0.1527  0.2540
19477TIP3    H179922   5.620   6.407   3.895  0.6420 -1.0192 -1.2360
19477TIP3    H279923   5.603   6.533   3.813  0.0602  0.2181  0.7124
19478TIP3   OH279924   5.289   6.532  12.070  0.2876  0.4155 -0.3204
19478TIP3    H179925   5.319   6.452  12.113  1.2965 -0.0720 -1.8556
19478TIP3    H279926   5.368   6.584  12.059  0.0435  0.5680 -1.4575
19479TIP3   OH279927   4.877   2.392   1.512 -0.1520 -0.1456 -0.3087
19479TIP3    H179928   4.930   2.471   1.501 -1.4659  0.8774  0.3436
19479TIP3    H279929   4.900   2.361   1.600  0.1344 -0.3142 -0.4418
19480TIP3   OH279930   1.739   2.494   5.348 -0.1372 -0.3213 -0.1398
19480TIP3    H179931   1.722   2.402   5.369  0.7206 -0.3936  0.2615
19480TIP3    H279932   1.731   2.498   5.252  0.1524 -0.8950 -0.1946
19481TIP3   OH279933   0.725   3.306  13.497  0.0865  0.0412  0.2307
19481TIP3    H179934   0.780   3.375  13.532 -0.9788  0.7551  0.5586
19481TIP3    H279935   0.664   3.285  13.568 -1.9862  1.3754 -1.0299
19482TIP3   OH279936   4.025   0.258  10.754  0.2032 -0.1757  0.4795
19482TIP3    H179937   3.950   0.221  10.707  0.0653 -1.2668  1.5010
19482TIP3    H279938   4.004   0.245  10.847  0.4979  1.8459  0.8685
19483TIP3   OH279939   0.647   3.210  16.340  0.8728 -0.6492 -0.3967
19483TIP3    H179940   0.667   3.303  16.351  1.3810 -0.9957  2.3870
19483TIP3    H279941   0.729   3.171  16.311  0.9280 -0.3559 -0.6377
19484TIP3   OH279942   3.664   4.079  15.619  0.3326 -0.4720  0.2196
19484TIP3    H179943   3.656   4.168  15.585  0.2985 -0.2367  0.8384
19484TIP3    H279944   3.669   4.024  15.541  0.4919  0.0839 -0.1661
19485TIP3   OH279945   0.960   3.244   1.973  0.1598 -0.2662 -0.0101
19485TIP3    H179946   0.872   3.234   2.010  0.4927  0.4319  1.0240
19485TIP3    H279947   0.946   3.293   1.892 -0.4275 -0.3427  0.0410
19486TIP3   OH279948   3.592   6.361  12.819  0.2006  0.5517 -0.4945
19486TIP3    H179949   3.532   6.299  12.778  0.3810  0.5357 -0.7363
19486TIP3    H279950   3.611   6.323  12.904 -0.3425  0.6882 -0.3085
19487TIP3   OH279951   1.714   2.782  11.902 -0.2023 -0.2769  0.0130
19487TIP3    H179952   1.630   2.749  11.870 -0.7302  0.8577  0.2055
19487TIP3    H279953   1.743   2.844  11.835 -0.6693  1.1035  1.0526
19488TIP3   OH279954   6.684   0.264  17.021  0.4403  0.2518 -0.3603
19488TIP3    H179955   6.753   0.199  17.010 -0.0050 -0.2535 -0.1851
19488TIP3    H279956   6.615   0.219  17.069 -0.8917  0.1281 -2.2708
19489TIP3   OH279957   5.549   0.882   5.936 -0.0840 -0.2411 -0.5598
19489TIP3    H179958   5.549   0.974   5.961 -0.5296 -0.5137  0.4971
19489TIP3    H279959   5.635   0.849   5.963 -0.2050 -0.3057 -0.2451
19490TIP3   OH279960   5.885   1.992   4.256 -0.0201  0.2124  0.4627
19490TIP3    H179961   5.799   2.034   4.261 -0.3476 -0.4965  1.0002
19490TIP3    H279962   5.931   2.039   4.186 -1.2343 -0.1082 -0.5835
19491TIP3   OH279963   4.734   1.637  15.217 -0.1233  0.0726 -0.8677
19491TIP3    H179964   4.740   1.696  15.142 -0.0564  0.4989 -0.5357
19491TIP3    H279965   4.824   1.630  15.249 -0.1956  0.1331 -0.6468
19492TIP3   OH279966   0.837   4.485   3.487 -0.2038 -0.0550 -0.3482
19492TIP3    H179967   0.821   4.473   3.580 -1.9817  0.6076 -0.5342
19492TIP3    H279968   0.870   4.575   3.480 -0.4409  0.0288 -0.3943
19493TIP3   OH279969   2.396   1.136   4.504  0.3955 -0.3598 -0.1602
19493TIP3    H179970   2.463   1.068   4.499  2.4653  1.5408 -0.0928
19493TIP3    H279971   2.344   1.125   4.424  2.1631 -0.6023 -1.3367
19494TIP3   OH279972   0.261   4.137   2.142  0.3104  0.4111  0.2431
19494TIP3    H179973   0.274   4.104   2.053 -1.0984  0.9702 -0.2085
19494TIP3    H279974   0.174   4.105   2.167 -0.0758  1.7251  0.7039
19495TIP3   OH279975   3.383   3.340   4.019  0.7709  0.5231 -0.6455
19495TIP3    H179976   3.305   3.349   3.966 -0.1029 -3.1415 -0.1998
19495TIP3    H279977   3.356   3.367   4.107 -0.4547 -1.7807 -0.2375
19496TIP3   OH279978   3.555   0.335  12.200 -0.2623 -0.2371 -0.3251
19496TIP3    H179979   3.575   0.320  12.292  2.2358 -1.3957 -0.9650
19496TIP3    H279980   3.588   0.424  12.183 -0.7973  0.0080 -0.0998
19497TIP3   OH279981   2.424   5.510   6.398 -0.1673 -0.4471  0.2886
19497TIP3    H179982   2.449   5.447   6.466  0.1817 -1.1638 -0.4999
19497TIP3    H279983   2.342   5.475   6.362  0.4711 -0.9081 -0.7300
19498TIP3   OH279984   4.529   5.780   0.533  0.0716 -0.1859  0.1717
19498TIP3    H179985   4.621   5.758   0.549  0.6169  0.4921 -1.7607
19498TIP3    H279986   4.530   5.830   0.451 -1.8494  1.2581  0.9484
19499TIP3   OH279987   4.332   2.726   0.674 -0.0337  0.2276 -0.0919
19499TIP3    H179988   4.256   2.738   0.731  0.3370  1.2566  0.2065
19499TIP3    H279989   4.342   2.631   0.667 -1.3782  0.0688 -0.1968
19500TIP3   OH279990   4.773   3.958  15.546 -0.2740 -0.3329 -0.4908
19500TIP3    H179991   4.790   4.005  15.628 -0.7961 -0.4052 -0.3372
19500TIP3    H279992   4.819   3.875  15.556 -0.3016 -0.3239 -0.2894
19501TIP3   OH279993   6.067   3.679  15.196 -0.1230 -0.6970  0.1728
19501TIP3    H179994   6.147   3.704  15.149 -0.5790  2.5098  0.8594
19501TIP3    H279995   6.096   3.658  15.285  0.0295 -0.0023  0.2905
19502TIP3   OH279996   6.517   4.113  11.172 -0.1470  0.0933  0.1245
19502TIP3    H179997   6.450   4.181  11.158  1.2088  1.0649 -2.1842
19502TIP3    H279998   6.493   4.043  11.112  1.0299  0.5930 -0.9724
19503TIP3   OH279999   0.120   1.454   2.881  0.3419 -0.3205 -0.3094
19503TIP3    H180000   0.149   1.525   2.824  0.2716  0.3425  0.4522
19503TIP3    H280001   0.125   1.491   2.969  0.3827 -1.2945  0.1111
19504TIP3   OH280002   6.307   2.829  16.180 -0.4673 -0.3635  0.1124
19504TIP3    H180003   6.401   2.814  16.181 -0.3035  0.5445 -0.5370
19504TIP3    H280004   6.296   2.920  16.210 -1.3018 -1.1182  2.3071
19505TIP3   OH280005   4.730   0.328  16.400  0.4966  0.4867 -0.3907
19505TIP3    H180006   4.715   0.299  16.490  2.7843  0.7172  0.1266
19505TIP3    H280007   4.730   0.248  16.348  0.7978  0.1740  0.0884
19506TIP3   OH280008   1.685   6.679  12.976  0.3136 -0.0196 -0.1880
19506TIP3    H180009   1.632   6.754  13.006 -2.9381 -1.5837 -1.4816
19506TIP3    H280010   1.683   6.686  12.881  1.0788 -1.0332 -0.2873
19507TIP3   OH280011   1.823   0.554   3.643  0.2102  0.0550  0.1364
19507TIP3    H180012   1.764   0.621   3.609  1.7383  1.0426 -0.6539
19507TIP3    H280013   1.904   0.564   3.593  0.5945 -2.2296  0.1495
19508TIP3   OH280014   2.043   5.470  17.161 -0.2656  0.1465  0.8878
19508TIP3    H180015   2.094   5.543  17.197 -2.1333  1.9549  0.1104
19508TIP3    H280016   2.016   5.420  17.238  0.8280  0.4432  1.4789
19509TIP3   OH280017   5.183   4.475   2.629 -0.1420 -0.3087  0.0476
19509TIP3    H180018   5.240   4.408   2.591 -0.4007 -0.5763  0.1309
19509TIP3    H280019   5.206   4.555   2.582 -0.4473 -0.6313 -0.6656
19510TIP3   OH280020   3.827   0.965  15.318  0.4664 -0.6238 -0.0548
19510TIP3    H180021   3.913   0.925  15.327  0.1905 -1.3365 -0.5234
19510TIP3    H280022   3.802   0.949  15.227  0.4108  0.7488 -0.2984
19511TIP3   OH280023   4.650   6.490  16.003 -0.8576 -0.0795  0.1725
19511TIP3    H180024   4.686   6.555  15.943 -1.9940 -1.2483 -1.8677
19511TIP3    H280025   4.722   6.428  16.017 -0.4567  0.4274  0.4043
19512TIP3   OH280026   1.857   2.491   4.734  0.6811 -0.1975 -0.5473
19512TIP3    H180027   1.891   2.555   4.796  0.5911 -0.3352 -0.3518
19512TIP3    H280028   1.928   2.428   4.723  0.9388  0.1888 -1.1018
19513TIP3   OH280029   0.629   2.566  13.763  0.0566 -0.2956 -0.3219
19513TIP3    H180030   0.702   2.509  13.739 -0.4820 -0.7065 -0.9901
19513TIP3    H280031   0.567   2.558  13.691 -0.6941 -0.0168  0.2841
19514TIP3   OH280032   1.556   3.514   5.147  0.5420 -0.1200 -0.3040
19514TIP3    H180033   1.646   3.520   5.178  0.4189 -0.0412  0.0429
19514TIP3    H280034   1.563   3.472   5.061  0.7855 -1.5344  0.3720
19515TIP3   OH280035   5.564   1.751   5.421 -0.0385  0.2413 -0.3321
19515TIP3    H180036   5.546   1.721   5.332 -0.9896  0.0531 -0.0935
19515TIP3    H280037   5.499   1.704   5.475 -0.0851  1.0534  0.3308
19516TIP3   OH280038   5.579   3.937  11.530  0.2295  0.1348  0.1346
19516TIP3    H180039   5.499   3.901  11.569  0.2805 -0.0783  0.0416
19516TIP3    H280040   5.565   3.931  11.436  1.4972 -2.5432  0.0368
19517TIP3   OH280041   1.254   2.205  12.948 -0.0392  0.1150  0.2789
19517TIP3    H180042   1.292   2.279  12.901 -0.9687  0.1142 -0.4917
19517TIP3    H280043   1.300   2.205  13.032 -0.1498  1.6892  0.3767
19518TIP3   OH280044   2.470   0.470  13.747  0.3951 -0.6131 -0.1521
19518TIP3    H180045   2.535   0.540  13.745  1.8818 -1.8916  0.8204
19518TIP3    H280046   2.435   0.467  13.658  1.1587  0.5732 -0.5155
19519TIP3   OH280047   6.356   1.120   1.614 -0.3891  0.3283 -0.2153
19519TIP3    H180048   6.316   1.041   1.650  0.7752 -0.6025 -0.8839
19519TIP3    H280049   6.284   1.166   1.571 -1.5759  0.8573  2.1447
19520TIP3   OH280050   4.245   2.124  12.243 -0.1093  0.7589  0.1043
19520TIP3    H180051   4.251   2.031  12.264  0.7308  0.8308  0.2210
19520TIP3    H280052   4.240   2.126  12.148  0.5812  0.6145  0.0570
19521TIP3   OH280053   4.918   6.585  16.847 -0.3986 -0.2394  0.3169
19521TIP3    H180054   4.871   6.501  16.843  0.0990 -0.5932  1.4930
19521TIP3    H280055   4.967   6.581  16.929  1.4228  0.2650 -0.7042
19522TIP3   OH280056   6.778   6.326   0.503 -0.2717 -0.4876 -0.4192
19522TIP3    H180057   6.728   6.399   0.539 -0.0904 -0.9631  0.8439
19522TIP3    H280058   6.836   6.366   0.438 -0.8842  0.3407 -0.4664
19523TIP3   OH280059   2.062   5.068   1.351  0.2123 -0.5641  0.3686
19523TIP3    H180060   1.995   5.136   1.337 -0.5152 -1.3240  0.0826
19523TIP3    H280061   2.100   5.089   1.436  0.9215  0.9743 -0.2881
19524TIP3   OH280062   1.604   0.906   2.232 -0.1677 -0.0896 -0.2627
19524TIP3    H180063   1.561   0.838   2.180  0.5184  0.4526 -1.6152
19524TIP3    H280064   1.695   0.905   2.202  0.2210  0.3525  0.8529
19525TIP3   OH280065   5.150   0.081   5.363 -0.4838 -1.0420  0.3899
19525TIP3    H180066   5.078   0.028   5.398 -0.7738 -1.5261 -0.8924
19525TIP3    H280067   5.107   0.146   5.307  0.0050 -0.5824  0.5380
19526TIP3   OH280068   6.107   5.076  16.228 -0.3256  0.2761  0.4710
19526TIP3    H180069   6.143   5.120  16.306 -1.6061  0.9864  0.6936
19526TIP3    H280070   6.040   5.018  16.263 -1.6856  1.4202 -0.1642
19527TIP3   OH280071   1.557   4.111  16.562  1.0097  0.2114 -0.3715
19527TIP3    H180072   1.563   4.204  16.540 -0.3011  0.6567  1.0162
19527TIP3    H280073   1.474   4.083  16.523  0.4745  0.1091  0.8204
19528TIP3   OH280074   5.605   1.376   5.489  0.1313 -0.0276 -0.4758
19528TIP3    H180075   5.523   1.394   5.443 -0.2357  1.2152  0.6166
19528TIP3    H280076   5.632   1.291   5.455 -1.8230 -0.6745 -0.5824
19529TIP3   OH280077   2.792   0.390  13.506 -0.0646 -0.1431  0.3753
19529TIP3    H180078   2.881   0.383  13.470  0.2707  0.4112  1.0840
19529TIP3    H280079   2.802   0.440  13.586 -1.1313  0.6286  0.0534
19530TIP3   OH280080   4.442   0.783  14.191 -0.2075  0.7047 -0.0410
19530TIP3    H180081   4.351   0.755  14.181 -0.3736  1.5736 -1.2804
19530TIP3    H280082   4.484   0.713  14.240 -1.2378 -0.3662 -0.6405
19531TIP3   OH280083   4.416   2.047   2.396  0.4776  0.1243  0.4333
19531TIP3    H180084   4.329   2.078   2.423  0.7941  1.3347  0.1366
19531TIP3    H280085   4.403   1.955   2.374 -0.1543 -0.4621  2.9672
19532TIP3   OH280086   0.962   2.792  15.805  0.4286 -0.0180  0.4181
19532TIP3    H180087   0.915   2.709  15.816  0.2864  0.2519  2.1196
19532TIP3    H280088   0.948   2.838  15.887  1.0016  1.4568 -0.2883
19533TIP3   OH280089   2.902   1.934  11.534 -0.1271  0.2494  0.4005
19533TIP3    H180090   2.938   2.018  11.563  0.7542  0.1564 -0.3826
19533TIP3    H280091   2.979   1.884  11.506 -0.9024  0.2661 -1.9457
19534TIP3   OH280092   3.654   0.407   1.597  0.6481 -0.1279 -0.1733
19534TIP3    H180093   3.584   0.465   1.568 -0.7250 -2.4748 -1.9937
19534TIP3    H280094   3.707   0.392   1.519  1.9298 -0.0921  0.6531
19535TIP3   OH280095   4.793   2.433  16.646  0.2416 -0.0694 -0.1531
19535TIP3    H180096   4.787   2.449  16.552 -1.7976 -0.8694 -0.2083
19535TIP3    H280097   4.780   2.519  16.686 -1.6758 -0.1086 -0.5997
19536TIP3   OH280098   1.128   3.783  17.143 -0.1196 -0.3717  0.3432
19536TIP3    H180099   1.144   3.777  17.237 -0.5349 -1.4343  0.3553
19536TIP3    H280100   1.032   3.783  17.135 -0.1034 -2.1520 -0.1711
19537TIP3   OH280101   5.014   6.236  14.556  0.2853  0.0409 -0.8714
19537TIP3    H180102   5.023   6.157  14.610  0.6632 -1.2052 -2.6735
19537TIP3    H280103   4.925   6.268  14.576  0.1158 -0.8380 -0.1247
19538TIP3   OH280104   0.682   5.601   0.669  0.1622 -0.4394  0.0491
19538TIP3    H180105   0.739   5.627   0.597  1.1192 -3.0704 -0.2401
19538TIP3    H280106   0.722   5.642   0.746 -0.4848  1.8404 -0.7532
19539TIP3   OH280107   2.835   5.564  16.415 -0.4261 -0.3135 -0.4818
19539TIP3    H180108   2.894   5.533  16.484 -0.5801 -1.1213 -0.7004
19539TIP3    H280109   2.891   5.575  16.338 -0.5240 -0.9336 -0.6477
19540TIP3   OH280110   4.249   6.259  13.835 -0.1991 -0.2003 -0.4043
19540TIP3    H180111   4.319   6.285  13.895 -0.8782 -1.0686  0.7859
19540TIP3    H280112   4.292   6.201  13.772  0.1841 -0.6630  0.2687
19541TIP3   OH280113   3.533   6.554   0.559 -0.3587  0.1886 -0.1442
19541TIP3    H180114   3.442   6.537   0.585 -0.1422 -0.1444  0.4067
19541TIP3    H280115   3.553   6.641   0.594 -0.6016  0.4423 -0.6331
19542TIP3   OH280116   5.660   3.345   3.300  0.1779 -0.0408  0.3399
19542TIP3    H180117   5.699   3.422   3.341  1.3775  0.3813 -1.4485
19542TIP3    H280118   5.600   3.380   3.234 -1.2385 -0.6853  1.2545
19543TIP3   OH280119   2.753   1.674   1.810 -1.0240  0.0701 -0.3576
19543TIP3    H180120   2.710   1.639   1.733  0.6167 -0.1834 -1.2015
19543TIP3    H280121   2.768   1.767   1.789 -1.9903  0.3914  0.3226
19544TIP3   OH280122   5.668   0.703  14.357  0.6243 -0.0328  0.2862
19544TIP3    H180123   5.580   0.691  14.324  1.2774 -0.8279 -1.2444
19544TIP3    H280124   5.657   0.718  14.451 -1.0740 -0.8354  0.2382
19545TIP3   OH280125   1.608   0.453  16.791 -0.0578  0.2821  0.2642
19545TIP3    H180126   1.547   0.487  16.857 -0.9798  1.2540 -1.0521
19545TIP3    H280127   1.689   0.439  16.840 -0.6934  1.0158  1.6017
19546TIP3   OH280128   0.350   3.026  15.588  0.1070  0.1263 -0.0688
19546TIP3    H180129   0.324   3.087  15.657 -2.9696 -0.7864 -0.2551
19546TIP3    H280130   0.339   3.075  15.506  1.6993  0.5604 -0.0407
19547TIP3   OH280131   4.670   2.634  12.342 -0.2690 -0.0178 -0.2567
19547TIP3    H180132   4.652   2.608  12.252 -0.9559  0.0555 -0.1452
19547TIP3    H280133   4.707   2.722  12.334 -0.5679  0.0929 -0.4600
19548TIP3   OH280134   4.700   0.108  16.675  0.1151 -0.3628  0.2969
19548TIP3    H180135   4.770   0.050  16.645 -1.3968 -1.4888 -1.2465
19548TIP3    H280136   4.644   0.052  16.729  0.8757  0.7879  2.4360
19549TIP3   OH280137   1.375   6.007  13.088 -0.0604 -0.2143 -0.5125
19549TIP3    H180138   1.354   5.955  13.011  0.0436 -2.4889  0.8768
19549TIP3    H280139   1.471   6.003  13.094 -0.0183  0.5073 -0.6045
19550TIP3   OH280140   0.054   2.913  14.131  0.2845 -0.3669 -0.3034
19550TIP3    H180141   0.131   2.969  14.119  0.7174 -0.6876  0.8479
19550TIP3    H280142   0.056   2.853  14.057  2.0507 -1.3882  0.5113
19551TIP3   OH280143   4.066   4.840  13.577 -0.2088  0.1899  0.4700
19551TIP3    H180144   4.046   4.912  13.518 -0.2762 -0.3214 -0.1418
19551TIP3    H280145   4.161   4.831  13.572 -0.2100  0.1752  0.4765
19552TIP3   OH280146   3.177   0.730  16.030  0.1183 -0.3536 -0.2821
19552TIP3    H180147   3.241   0.731  15.958  0.9460 -1.8207  0.3976
19552TIP3    H280148   3.183   0.642  16.066 -0.4272  0.2924  1.4718
19553TIP3   OH280149   4.893   3.400  11.442  0.9383 -0.2922 -0.0617
19553TIP3    H180150   4.816   3.344  11.448 -0.3276  1.4091  0.0893
19553TIP3    H280151   4.929   3.403  11.530  1.0431 -0.8813 -0.0814
19554TIP3   OH280152   1.635   0.149  16.474  0.1380  0.2564 -0.1931
19554TIP3    H180153   1.572   0.221  16.482  0.3555  0.4067  0.1484
19554TIP3    H280154   1.603   0.099  16.399 -0.1452  0.5782 -0.2919
19555TIP3   OH280155   3.285   0.308  12.488  0.0106 -0.7761 -0.3341
19555TIP3    H180156   3.263   0.335  12.399  1.1200  0.2597 -0.3222
19555TIP3    H280157   3.379   0.291  12.485 -0.1411 -1.7981  0.3863
19556TIP3   OH280158   6.565   6.724   1.277  0.4405  0.0750  0.5610
19556TIP3    H180159   6.528   6.645   1.237 -0.0381 -0.3175  1.7335
19556TIP3    H280160   6.536   6.796   1.220 -2.5636 -0.1494  1.6420
19557TIP3   OH280161   1.551   2.281   5.975  0.0063  0.3280  0.1455
19557TIP3    H180162   1.557   2.252   6.066  0.7743 -0.9203 -0.2833
19557TIP3    H280163   1.559   2.377   5.980 -0.9470  0.3647  1.4588
19558TIP3   OH280164   6.106   5.465  13.467  0.0707 -0.0348 -0.3472
19558TIP3    H180165   6.043   5.414  13.415 -0.2464  0.7867 -0.7813
19558TIP3    H280166   6.192   5.438  13.434 -0.1283  2.5850 -3.4474
19559TIP3   OH280167   3.404   6.692   4.417  0.2632 -0.7657  0.0653
19559TIP3    H180168   3.341   6.740   4.469  1.0069  0.4807 -0.1461
19559TIP3    H280169   3.383   6.714   4.326  2.0565  1.1343  0.0323
19560TIP3   OH280170   0.721   3.266  15.510 -0.0020  0.3490 -0.3314
19560TIP3    H180171   0.758   3.318  15.439 -1.2225 -0.0874 -1.3060
19560TIP3    H280172   0.733   3.175  15.482 -1.1301  0.1859 -0.3271
19561TIP3   OH280173   3.845   4.683   4.809 -0.1273  0.0985  0.6041
19561TIP3    H180174   3.900   4.617   4.767 -0.1057 -0.0894  0.9266
19561TIP3    H280175   3.885   4.767   4.783  0.3508 -0.0366  0.8849
19562TIP3   OH280176   3.306   6.434  14.238 -0.3923  0.1917 -0.3456
19562TIP3    H180177   3.332   6.423  14.330 -0.2024  0.1924 -0.3985
19562TIP3    H280178   3.266   6.521  14.235 -3.5850 -1.0871  0.4662
19563TIP3   OH280179   5.193   5.614  14.051 -0.4301 -0.1621 -0.7507
19563TIP3    H180180   5.249   5.573  14.118  0.0063  0.9227 -0.4144
19563TIP3    H280181   5.125   5.549  14.033 -0.2124 -0.7183  0.3147
19564TIP3   OH280182   0.541   5.085   3.531  0.4520 -0.7057  0.5624
19564TIP3    H180183   0.578   5.101   3.618  0.5087 -0.6806  0.5337
19564TIP3    H280184   0.571   5.159   3.479 -1.6640  0.6674  1.1599
19565TIP3   OH280185   2.124   5.331  16.646  0.1844 -0.3055  0.3665
19565TIP3    H180186   2.143   5.328  16.739  0.2891 -0.3967  0.3435
19565TIP3    H280187   2.115   5.239  16.620 -2.9565 -0.2579  0.9176
19566TIP3   OH280188   5.712   4.314   0.148 -0.8056  0.0867 -0.0535
19566TIP3    H180189   5.790   4.263   0.132 -0.0045  0.6413  1.7759
19566TIP3    H280190   5.644   4.272   0.095 -0.0438 -2.4367  0.8229
19567TIP3   OH280191   2.833   6.595  15.703 -0.6395 -0.1146  0.0214
19567TIP3    H180192   2.865   6.506  15.716  2.0790  0.5585 -1.3783
19567TIP3    H280193   2.854   6.640  15.785  0.8157 -0.0643 -0.3430
19568TIP3   OH280194   1.594   4.201   3.688  0.0386 -0.0780 -0.4677
19568TIP3    H180195   1.610   4.294   3.669  2.5489 -0.4674 -0.6594
19568TIP3    H280196   1.677   4.158   3.666 -0.5841 -2.1664  0.9888
19569TIP3   OH280197   6.584   5.569   3.238  0.2436  0.0156 -0.0203
19569TIP3    H180198   6.649   5.499   3.244 -0.7248 -0.8999 -0.0332
19569TIP3    H280199   6.636   5.649   3.227  1.3004 -1.0325 -3.7806
19570TIP3   OH280200   5.867   6.503  11.199  0.0338 -0.3792  0.1008
19570TIP3    H180201   5.779   6.524  11.229 -0.5548 -1.4894 -0.7626
19570TIP3    H280202   5.853   6.444  11.125  1.4781  0.3537 -0.7933
19571TIP3   OH280203   3.292   4.697  14.875  0.0005  0.4172  0.8152
19571TIP3    H180204   3.325   4.607  14.874 -0.6033  0.1889  0.0322
19571TIP3    H280205   3.288   4.722  14.782 -0.8481  0.8652  0.9645
19572TIP3   OH280206   5.559   4.297  13.545 -0.1807  0.3111 -0.5916
19572TIP3    H180207   5.610   4.326  13.469 -2.3334  0.1800 -2.2135
19572TIP3    H280208   5.480   4.351  13.542 -0.1382  0.6229  1.9004
19573TIP3   OH280209   4.177   4.122  13.381  0.2745  0.1449  0.4228
19573TIP3    H180210   4.169   4.195  13.320 -1.5055 -0.3827 -0.0543
19573TIP3    H280211   4.218   4.052  13.329 -1.2280 -0.3014 -0.2313
19574TIP3   OH280212   1.726   0.271   2.436  0.5442  0.5154  0.2571
19574TIP3    H180213   1.649   0.295   2.383 -0.2714  0.3483  1.3364
19574TIP3    H280214   1.698   0.285   2.526  0.9052 -1.9640  0.8198
19575TIP3   OH280215   5.068   3.432  15.168  0.3986 -0.0269  0.1601
19575TIP3    H180216   5.035   3.399  15.084 -0.1699  0.5293  0.1577
19575TIP3    H280217   5.040   3.367  15.232 -1.3415  0.7646  0.2577
19576TIP3   OH280218   6.300   6.807   2.635  0.3396  0.7499  0.0980
19576TIP3    H180219   6.328   6.830   2.547  1.7435  0.8789  0.5584
19576TIP3    H280220   6.368   6.749   2.668  0.4963  1.6972  1.5505
19577TIP3   OH280221   1.632   6.658   3.714  0.2161 -0.2421  0.1763
19577TIP3    H180222   1.548   6.688   3.679  0.7889  0.3374 -0.7423
19577TIP3    H280223   1.611   6.577   3.760 -1.1082  0.7116  1.3318
19578TIP3   OH280224   2.218   5.655  15.901  0.2932  0.2812  0.0821
19578TIP3    H180225   2.257   5.592  15.962  0.2714  1.3438  1.2300
19578TIP3    H280226   2.130   5.619  15.884  0.6049 -0.4648 -0.0162
19579TIP3   OH280227   5.419   6.548  15.622  0.3756 -0.2819  0.7956
19579TIP3    H180228   5.492   6.604  15.598  0.4004 -0.0025  1.5037
19579TIP3    H280229   5.430   6.470  15.568  0.9206 -0.0367  0.5461
19580TIP3   OH280230   5.228   5.639   2.138 -0.0583 -0.2254  0.5448
19580TIP3    H180231   5.150   5.686   2.109  0.3969 -0.2454 -0.7583
19580TIP3    H280232   5.202   5.597   2.220 -1.0992  0.5943  0.6467
19581TIP3   OH280233   3.349   0.095  11.816 -0.4932  0.3677  0.1630
19581TIP3    H180234   3.255   0.107  11.827 -1.1600 -0.2427 -3.5161
19581TIP3    H280235   3.358   0.007  11.778  1.4362  0.8268 -0.5744
19582TIP3   OH280236   0.270   1.172   5.091  0.1491  0.1074 -0.0457
19582TIP3    H180237   0.248   1.096   5.038 -0.3204 -0.3226  0.7515
19582TIP3    H280238   0.365   1.166   5.103 -0.0026 -0.9250  0.8422
19583TIP3   OH280239   3.210   1.238   5.080  0.0995 -0.1878  0.2236
19583TIP3    H180240   3.168   1.262   4.998 -1.5131 -0.6705  0.8576
19583TIP3    H280241   3.269   1.166   5.057 -0.1378 -0.1455 -0.5445
19584TIP3   OH280242   2.243   6.009  14.746  0.7424 -0.2742  0.2770
19584TIP3    H180243   2.162   6.018  14.796  1.5114  0.5371  1.4083
19584TIP3    H280244   2.227   5.933  14.689 -0.6747 -0.3403  0.7250
19585TIP3   OH280245   3.031   4.447   4.443 -0.5955  0.5345 -0.4382
19585TIP3    H180246   3.032   4.536   4.406 -0.7567  0.5949 -0.2997
19585TIP3    H280247   3.109   4.406   4.408 -0.2798  0.8785 -0.1519
19586TIP3   OH280248   4.832   6.211  15.790  0.2553  0.1580  0.0810
19586TIP3    H180249   4.886   6.278  15.831 -1.0357 -0.0052  2.1903
19586TIP3    H280250   4.790   6.165  15.863  0.7584 -2.7184 -1.2996
19587TIP3   OH280251   0.005   3.394   4.406 -0.3136 -0.9569 -0.3601
19587TIP3    H180252  -0.064   3.362   4.348  0.7497 -0.1203 -2.1750
19587TIP3    H280253   0.029   3.480   4.370  0.9172 -0.7484  0.8690
19588TIP3   OH280254   5.181   5.056  15.822  0.0241 -0.8660  0.6456
19588TIP3    H180255   5.123   5.117  15.777  1.7957 -0.9668 -2.0008
19588TIP3    H280256   5.128   4.977  15.835 -0.8230 -0.5230 -0.5372
19589TIP3   OH280257   6.691   5.928   0.688  0.0784  0.2312  0.0752
19589TIP3    H180258   6.686   5.972   0.603  0.9423 -0.1941 -0.2144
19589TIP3    H280259   6.760   5.862   0.676 -1.0174 -1.0415  0.5621
19590TIP3   OH280260   4.786   1.884  12.474  0.0012 -0.1022 -0.1310
19590TIP3    H180261   4.704   1.927  12.449  0.1560  0.8002  0.8498
19590TIP3    H280262   4.821   1.938  12.544  1.3946 -0.5365 -0.4650
19591TIP3   OH280263   4.176   5.991   4.986  0.1246  0.2767  0.3269
19591TIP3    H180264   4.208   5.915   5.034 -0.7455  0.5930  1.4376
19591TIP3    H280265   4.126   6.041   5.050 -0.7313  0.9295 -0.8122
19592TIP3   OH280266   2.153   2.329   3.343 -0.0404  0.1624 -0.3329
19592TIP3    H180267   2.109   2.413   3.331  1.9586  1.0211 -2.6032
19592TIP3    H280268   2.130   2.279   3.265 -1.1693 -1.4751  0.9696
19593TIP3   OH280269   3.531   1.487  11.521 -0.2985 -0.1401 -0.0203
19593TIP3    H180270   3.603   1.435  11.486  0.8308  0.1245  1.7812
19593TIP3    H280271   3.475   1.424  11.565 -1.9739 -0.5435 -2.5003
19594TIP3   OH280272   0.457   3.641  14.094  0.0174 -0.0807  0.1328
19594TIP3    H180273   0.421   3.713  14.145  1.4168  0.4768  0.3667
19594TIP3    H280274   0.535   3.613  14.142  1.1874  0.2293 -1.4776
19595TIP3   OH280275   6.366   6.388  16.217  0.3632 -0.0492  0.6524
19595TIP3    H180276   6.454   6.424  16.216  1.3780 -2.3325 -1.4445
19595TIP3    H280277   6.375   6.305  16.265 -0.4998 -0.5776 -0.0755
19596TIP3   OH280278   5.544   4.842   6.072  0.0435  0.0184 -0.8402
19596TIP3    H180279   5.569   4.929   6.039  1.8558 -0.4086 -0.7314
19596TIP3    H280280   5.568   4.845   6.165  1.2069 -0.9460 -1.0831
19597TIP3   OH280281   4.859   6.604   1.804 -0.1299  0.1890  0.6517
19597TIP3    H180282   4.814   6.536   1.853  3.2991 -2.1181  0.9656
19597TIP3    H280283   4.918   6.644   1.868  1.2879  0.1484 -0.5833
19598TIP3   OH280284   3.035   5.254  15.228  0.1373  0.4562 -0.8225
19598TIP3    H180285   3.033   5.332  15.172 -0.1257  1.1437  0.1267
19598TIP3    H280286   2.989   5.280  15.308 -0.4428 -0.8432 -0.6955
19599TIP3   OH280287   0.368   0.816   0.841 -0.0443  0.3482  0.3505
19599TIP3    H180288   0.314   0.772   0.907 -0.6015 -2.5116 -1.8107
19599TIP3    H280289   0.309   0.827   0.766  1.5270  0.0195 -0.9824
19600TIP3   OH280290   4.719   3.097   3.537 -0.5038 -0.2037  0.4927
19600TIP3    H180291   4.739   3.007   3.563  0.5215  0.0326  0.5369
19600TIP3    H280292   4.625   3.096   3.520 -0.5604 -1.2086  0.7983
19601TIP3   OH280293   0.086   1.574   5.583 -0.3705 -0.5791  0.3664
19601TIP3    H180294   0.140   1.547   5.657  1.2657  1.3534 -0.0386
19601TIP3    H280295   0.018   1.629   5.621 -0.9040 -1.4185  0.6545
19602TIP3   OH280296   3.524   1.320  16.485  0.5082  0.7108 -0.1932
19602TIP3    H180297   3.439   1.278  16.498  0.7413  0.3078  0.0510
19602TIP3    H280298   3.561   1.277  16.408  1.4880 -0.7727  1.0488
19603TIP3   OH280299   6.148   5.806  14.401 -0.0622 -0.3917  0.1537
19603TIP3    H180300   6.215   5.790  14.467  1.2641  0.1289 -1.0135
19603TIP3    H280301   6.189   5.778  14.319 -2.1880 -2.4725 -0.3249
19604TIP3   OH280302   1.243   3.858   2.630  0.2256 -0.5324  0.5157
19604TIP3    H180303   1.328   3.834   2.593  1.0605 -1.4468  2.8515
19604TIP3    H280304   1.196   3.775   2.639 -0.1671 -0.2675  0.9668
19605TIP3   OH280305   6.072   0.864   4.088 -0.0692 -0.3403  0.3340
19605TIP3    H180306   6.024   0.906   4.159 -2.1704 -3.2492  0.8009
19605TIP3    H280307   6.111   0.786   4.128  0.4734 -0.9317 -1.2697
19606TIP3   OH280308   2.663   4.242  17.089  0.0069  0.4574 -0.7922
19606TIP3    H180309   2.751   4.278  17.088 -0.1888  1.2415  1.9015
19606TIP3    H280310   2.673   4.151  17.061  1.5084  0.8051 -1.4379
19607TIP3   OH280311   2.445   6.233   1.878 -0.1228  0.0385 -0.2488
19607TIP3    H180312   2.483   6.146   1.863 -0.6381 -0.1674 -0.3691
19607TIP3    H280313   2.408   6.258   1.793 -0.0826  0.3249 -0.1829
19608TIP3   OH280314   6.162   1.597   1.242  0.3823  0.4069 -0.2640
19608TIP3    H180315   6.217   1.670   1.212 -0.3992  0.6049 -1.3100
19608TIP3    H280316   6.219   1.521   1.239  1.2707  0.9898  1.0395
19609TIP3   OH280317   1.040   2.838   0.176  0.3431 -0.4231  0.5473
19609TIP3    H180318   1.062   2.811   0.087  2.0540 -0.2766  0.9044
19609TIP3    H280319   0.964   2.895   0.165  0.2703 -0.7390 -0.7726
19610TIP3   OH280320   2.087   4.421   2.613 -0.1035  0.2058  0.4312
19610TIP3    H180321   2.161   4.404   2.555 -0.4610 -1.0505  0.3077
19610TIP3    H280322   2.021   4.461   2.557 -0.1939 -0.3779  0.1136
19611TIP3   OH280323   1.754   2.199  11.432 -1.0909 -0.5349 -0.2642
19611TIP3    H180324   1.812   2.128  11.461  0.7711  1.6898  1.8444
19611TIP3    H280325   1.686   2.203  11.499  0.2404  1.1879  1.0881
19612TIP3   OH280326   1.287   5.647  16.229  0.5725 -0.3758 -0.1773
19612TIP3    H180327   1.232   5.717  16.265  2.1257  1.4303 -1.1289
19612TIP3    H280328   1.264   5.569  16.280 -1.0276  0.8751  1.1122
19613TIP3   OH280329   6.177   1.313  16.275  0.6514 -0.0072  0.1375
19613TIP3    H180330   6.200   1.350  16.189 -1.5593 -1.9675 -1.3968
19613TIP3    H280331   6.223   1.229  16.278 -0.4012 -0.5862  0.2569
19614TIP3   OH280332   5.558   2.442  13.028 -0.0611 -0.1062  0.0432
19614TIP3    H180333   5.561   2.488  13.112  0.3798  1.1778 -0.6541
19614TIP3    H280334   5.602   2.359  13.045  1.2522  0.7062  0.7508
19615TIP3   OH280335   5.488   0.361  13.988  0.0344  0.2773 -0.1349
19615TIP3    H180336   5.540   0.285  14.016 -1.8321 -0.6157  1.1015
19615TIP3    H280337   5.539   0.399  13.917  0.9662 -2.2563 -0.9607
19616TIP3   OH280338   4.652   6.818   1.634 -0.0568  0.1304  0.1780
19616TIP3    H180339   4.707   6.770   1.573 -0.3552 -0.2803  0.2323
19616TIP3    H280340   4.690   6.802   1.720  1.4458  2.1379 -0.0216
19617TIP3   OH280341   1.726   5.556   4.141  0.5812 -0.0063  0.1620
19617TIP3    H180342   1.818   5.543   4.120  0.8905  1.6228  0.3535
19617TIP3    H280343   1.726   5.622   4.210 -0.6222 -2.0663  2.2883
19618TIP3   OH280344   3.969   2.181   4.222 -0.3965 -0.0426 -0.3661
19618TIP3    H180345   3.946   2.112   4.284 -1.3531  1.1077  0.6095
19618TIP3    H280346   4.047   2.222   4.261 -1.3576  1.0763  0.4399
19619TIP3   OH280347   0.218   3.204   0.936  0.0717  0.1296  0.5115
19619TIP3    H180348   0.231   3.127   0.881 -2.9481  0.8279 -1.4469
19619TIP3    H280349   0.293   3.205   0.995  0.3610 -4.1710  0.5103
19620TIP3   OH280350   4.451   0.909   3.934 -0.1084  0.3611  0.5099
19620TIP3    H180351   4.376   0.886   3.879 -0.8345  2.3751  0.5508
19620TIP3    H280352   4.417   0.976   3.993  0.9527 -0.9009  2.6652
19621TIP3   OH280353   4.669   0.690  12.853  0.0251 -0.3146  0.3304
19621TIP3    H180354   4.684   0.597  12.866 -1.2580 -0.6959 -0.6879
19621TIP3    H280355   4.721   0.713  12.776  1.2535  0.1002  1.2544
19622TIP3   OH280356   4.729   5.840   3.292 -0.0318 -0.3766 -0.3621
19622TIP3    H180357   4.750   5.756   3.334 -0.0166 -0.0920  0.2181
19622TIP3    H280358   4.812   5.870   3.255  0.1262 -0.2884  0.0485
19623TIP3   OH280359   5.365   1.583  17.080 -0.1568  0.1770  0.1841
19623TIP3    H180360   5.273   1.587  17.106 -0.4967  1.4392 -1.0549
19623TIP3    H280361   5.370   1.507  17.022 -0.5816  0.4996 -0.2857
19624TIP3   OH280362   5.666   4.016  15.573 -0.1059 -0.0884 -0.4951
19624TIP3    H180363   5.629   4.103  15.585  0.4482  0.2589 -1.2225
19624TIP3    H280364   5.688   3.987  15.662 -0.8789  0.2392 -0.1869
19625TIP3   OH280365   5.369   5.992  16.602  0.0490  0.8950 -0.4966
19625TIP3    H180366   5.392   5.949  16.684 -2.1885  1.2684  0.3887
19625TIP3    H280367   5.444   5.976  16.545  0.5435 -1.6674  0.7321
19626TIP3   OH280368   3.989   3.934  14.646  0.0687 -0.4062  0.1723
19626TIP3    H180369   3.934   3.884  14.707  0.0997 -2.4639 -1.3785
19626TIP3    H280370   4.057   3.973  14.702 -0.4612 -1.4046  1.5732
19627TIP3   OH280371   2.055   3.446  17.103  0.3087  0.0198 -0.0616
19627TIP3    H180372   2.119   3.398  17.049 -0.5895 -2.0831  0.6449
19627TIP3    H280373   2.066   3.410  17.191 -0.5277  1.0307  0.4778
19628TIP3   OH280374   1.958   1.636  13.263 -0.7218 -0.1199  0.3805
19628TIP3    H180375   1.880   1.619  13.210 -0.4520 -0.9963  0.2419
19628TIP3    H280376   1.952   1.574  13.336 -0.5043  0.2889  0.7525
19629TIP3   OH280377   3.108   1.914   6.012  0.0905 -0.3854 -0.4246
19629TIP3    H180378   3.056   1.836   6.028  0.1284 -0.5610 -1.1148
19629TIP3    H280379   3.161   1.892   5.935 -1.3985  1.0252 -1.9504
19630TIP3   OH280380   4.272   1.626   1.420 -0.6554 -0.5532  0.0612
19630TIP3    H180381   4.276   1.680   1.341 -0.1306 -1.4981 -0.5817
19630TIP3    H280382   4.285   1.688   1.492 -0.5427  0.2418 -0.6288
19631TIP3   OH280383   0.842   5.052   4.111  0.2760 -0.4146 -0.1911
19631TIP3    H180384   0.933   5.053   4.141  0.0522 -0.4680  0.5106
19631TIP3    H280385   0.824   4.960   4.090  0.4728 -0.3569 -0.6173
19632TIP3   OH280386   4.593   3.936  16.924 -0.0547 -0.0591 -0.0178
19632TIP3    H180387   4.621   4.007  16.982  1.8195 -1.3048  0.7212
19632TIP3    H280388   4.634   3.956  16.840 -0.4182  0.2926 -0.1104
19633TIP3   OH280389   1.000   6.227  11.582 -0.2865 -0.4204  0.5838
19633TIP3    H180390   1.058   6.151  11.578  1.8191  1.1379 -0.0879
19633TIP3    H280391   0.977   6.245  11.491  0.1907  0.4232  0.6169
19634TIP3   OH280392   4.872   3.051   1.663 -0.2151  0.2351 -0.1715
19634TIP3    H180393   4.836   3.018   1.745 -0.3818 -1.6660 -0.9444
19634TIP3    H280394   4.936   3.117   1.689 -0.3917 -0.1943  1.4571
19635TIP3   OH280395   3.075   3.804   4.312 -0.1877 -0.1439  0.3156
19635TIP3    H180396   3.138   3.735   4.290 -1.3455 -1.5328  1.1613
19635TIP3    H280397   3.046   3.838   4.227  1.3845  0.2640 -0.0917
19636TIP3   OH280398   1.202   4.561  14.202  0.0631  0.0972  0.4019
19636TIP3    H180399   1.167   4.574  14.290  3.3264  1.2388  1.6756
19636TIP3    H280400   1.167   4.634  14.151  0.0646  0.8359  1.4305
19637TIP3   OH280401   4.710   3.371   0.643  0.5620  0.5492 -0.2694
19637TIP3    H180402   4.672   3.445   0.596 -0.4703 -0.6593 -1.4487
19637TIP3    H280403   4.752   3.319   0.575  1.5779  0.2181  0.5861
19638TIP3   OH280404   2.143   5.731   1.382 -0.1540 -0.3127  0.2336
19638TIP3    H180405   2.231   5.737   1.421  0.7473 -1.1162 -1.5763
19638TIP3    H280406   2.107   5.819   1.392  0.1683 -0.3796  2.4798
19639TIP3   OH280407   1.739   3.818  15.370 -0.0052  0.4746  0.1934
19639TIP3    H180408   1.712   3.842  15.459 -2.1231  0.2517 -0.3448
19639TIP3    H280409   1.700   3.732  15.356 -0.6457  0.9931 -1.3372
19640TIP3   OH280410   0.641   0.963   0.140 -0.1314 -0.0304  0.1490
19640TIP3    H180411   0.598   0.962   0.226 -0.8297  2.2868 -0.1038
19640TIP3    H280412   0.717   1.020   0.151 -0.6973  0.9806 -0.9452
19641TIP3   OH280413   1.049   2.121  16.438 -0.0780  0.6408 -0.3299
19641TIP3    H180414   1.042   2.180  16.513 -1.2256  1.0792 -0.7662
19641TIP3    H280415   1.126   2.152  16.390  1.8366 -0.7652  1.5867
19642TIP3   OH280416   1.189   2.275   4.216 -0.4607 -0.4570  0.0653
19642TIP3    H180417   1.281   2.287   4.192 -0.5441  0.3010  0.1139
19642TIP3    H280418   1.145   2.353   4.183 -1.1010 -0.8545 -0.0253
19643TIP3   OH280419   3.799   5.623  11.867 -0.0785 -0.1625 -0.1035
19643TIP3    H180420   3.796   5.711  11.903 -1.5811 -0.5403  0.8100
19643TIP3    H280421   3.795   5.635  11.772  1.7106  0.7859 -0.0908
19644TIP3   OH280422   6.355   4.645  12.170 -0.5309 -0.2482 -0.1880
19644TIP3    H180423   6.280   4.590  12.150  0.7539 -1.7246 -1.1946
19644TIP3    H280424   6.422   4.619  12.106  0.4893  1.7726 -0.0442
19645TIP3   OH280425   5.129   2.627   0.673 -0.1354 -0.2867 -0.1384
19645TIP3    H180426   5.113   2.624   0.579 -1.5603 -0.3514  0.0806
19645TIP3    H280427   5.063   2.569   0.710  0.2268 -0.0389  0.9200
19646TIP3   OH280428   4.832   4.002   4.180  0.5907  0.7500  0.0618
19646TIP3    H180429   4.856   4.030   4.092  0.5520 -0.3742 -0.3204
19646TIP3    H280430   4.800   3.912   4.169 -0.2739  0.9150  1.0938
19647TIP3   OH280431   6.080   5.194   4.460 -0.4859 -0.4783  0.9514
19647TIP3    H180432   6.139   5.265   4.486  1.3706 -1.7317  0.3725
19647TIP3    H280433   5.998   5.213   4.506 -0.7850  3.0900 -0.6834
19648TIP3   OH280434   0.779   0.207  16.455  0.7188  0.0275  0.2447
19648TIP3    H180435   0.793   0.225  16.363  1.7036 -0.7433  0.2201
19648TIP3    H280436   0.822   0.280  16.501  0.1382  0.4647  0.1053
19649TIP3   OH280437   5.982   5.091   1.087  0.0298 -0.6588  0.2180
19649TIP3    H180438   5.977   5.166   1.147 -0.6120 -1.1066  0.7297
19649TIP3    H280439   6.051   5.116   1.024 -1.4939  1.2159 -0.8258
19650TIP3   OH280440   5.010   0.338  15.901 -0.6115 -0.2944 -0.1695
19650TIP3    H180441   4.946   0.406  15.884 -0.3629 -0.0001  0.0569
19650TIP3    H280442   4.994   0.313  15.992 -0.4984 -0.3204 -0.1567
19651TIP3   OH280443   2.247   2.134  14.056  0.4430 -0.2495 -0.2594
19651TIP3    H180444   2.268   2.158  13.966 -2.0441 -0.0281 -0.8714
19651TIP3    H280445   2.327   2.151  14.105  1.1695  1.8554 -2.0127
19652TIP3   OH280446   6.494   3.260   0.400 -0.0719 -0.1076  0.1589
19652TIP3    H180447   6.545   3.340   0.413 -1.3003  0.6915  0.2112
19652TIP3    H280448   6.488   3.251   0.304 -0.6621  0.3475  0.1506
19653TIP3   OH280449   3.398   1.322  11.694  0.0218 -0.2266 -1.0736
19653TIP3    H180450   3.396   1.241  11.745 -0.1526  1.7184  2.3320
19653TIP3    H280451   3.315   1.365  11.714  0.1868  0.9051 -2.6386
19654TIP3   OH280452   1.399   3.430  15.459 -0.2613  0.1808 -0.1570
19654TIP3    H180453   1.310   3.465  15.469 -0.1335  0.3123  0.6047
19654TIP3    H280454   1.387   3.337  15.444 -0.5209 -1.1381  5.7361
19655TIP3   OH280455   1.405   4.067   5.924  0.1614  0.0455  0.4508
19655TIP3    H180456   1.448   4.001   5.868  0.6202  1.3429 -0.7745
19655TIP3    H280457   1.335   4.102   5.870  0.4116  1.1057  0.7951
19656TIP3   OH280458   4.790   1.514  12.444 -0.2434 -0.3814 -0.2283
19656TIP3    H180459   4.854   1.453  12.410 -2.2333 -1.4056 -2.4495
19656TIP3    H280460   4.727   1.459  12.491  0.2320  0.5440  1.5649
19657TIP3   OH280461   3.474   1.297   3.529 -0.0000  0.0660 -0.0952
19657TIP3    H180462   3.448   1.356   3.600 -2.7421 -1.3612  0.1910
19657TIP3    H280463   3.534   1.235   3.571  0.5879  0.8642  0.2793
19658TIP3   OH280464   0.135   1.500  12.232 -0.3045  0.0539  0.2169
19658TIP3    H180465   0.156   1.496  12.139  0.0751  1.7933  0.1908
19658TIP3    H280466   0.097   1.415  12.252 -1.2096 -0.0509 -1.7329
19659TIP3   OH280467   4.471   4.489  11.268  0.1044  0.7051  0.4464
19659TIP3    H180468   4.387   4.526  11.292 -0.2791  0.5071 -0.5317
19659TIP3    H280469   4.459   4.460  11.177  1.0382  0.1316  0.4963
19660TIP3   OH280470   6.615   5.960  11.201 -0.3989 -0.2393  0.3408
19660TIP3    H180471   6.613   6.049  11.167 -2.5949 -0.5570 -0.5501
19660TIP3    H280472   6.550   5.960  11.271 -0.1594 -1.0619  0.5718
19661TIP3   OH280473   4.213   3.641   3.177  0.2172 -0.2995  0.4960
19661TIP3    H180474   4.168   3.558   3.192  1.5573 -0.9038  1.3850
19661TIP3    H280475   4.283   3.618   3.115  0.7910  0.0846  0.9945
19662TIP3   OH280476   6.062   2.811   5.685 -0.5160 -0.2726  0.2658
19662TIP3    H180477   6.121   2.882   5.711 -1.1315  0.0433  0.8261
19662TIP3    H280478   5.995   2.855   5.632 -1.6628 -0.1751  1.7292
19663TIP3   OH280479   0.204   6.482  11.094 -0.1396  0.2368  0.5480
19663TIP3    H180480   0.167   6.539  11.162  0.4804  0.7085  0.4993
19663TIP3    H280481   0.140   6.411  11.085 -0.1531  0.0692  1.7505
19664TIP3   OH280482   5.382   3.865   2.505 -0.1366 -0.0172  0.1986
19664TIP3    H180483   5.366   3.811   2.583  1.3413  1.2410  1.4319
19664TIP3    H280484   5.427   3.807   2.445  2.2365 -0.0161  1.8536
19665TIP3   OH280485   3.617   2.109   5.888  0.4918  0.3843  0.7803
19665TIP3    H180486   3.682   2.097   5.957 -0.9118  0.7611  2.2169
19665TIP3    H280487   3.543   2.054   5.914  0.2056 -0.0854 -0.8488
19666TIP3   OH280488   1.327   6.155  10.729 -0.2375 -0.5409 -0.0724
19666TIP3    H180489   1.267   6.143  10.656  0.4568 -2.8423 -0.3200
19666TIP3    H280490   1.399   6.095  10.712  1.3628  0.9624  1.0551
19667TIP3   OH280491   3.686   2.011   5.534 -0.2376 -0.0479  0.0206
19667TIP3    H180492   3.775   1.995   5.564  0.4993  1.6974 -1.0495
19667TIP3    H280493   3.688   2.100   5.499 -2.0622 -0.4359 -1.2575
19668TIP3   OH280494   3.482   4.902  11.467  0.3997  0.3781 -0.0742
19668TIP3    H180495   3.404   4.953  11.489  1.8966  2.5239  0.5480
19668TIP3    H280496   3.470   4.818  11.512 -0.4971  1.5377  1.9521
19669TIP3   OH280497   5.127   6.502   5.325  0.0138 -0.1675 -0.1270
19669TIP3    H180498   5.101   6.413   5.300  2.2348 -0.7645 -0.4550
19669TIP3    H280499   5.046   6.553   5.319 -1.3009 -2.1439  0.0430
19670TIP3   OH280500   5.543   1.475   4.310  0.2711 -0.3181  0.0435
19670TIP3    H180501   5.572   1.509   4.226 -1.4748  0.1387 -0.4071
19670TIP3    H280502   5.461   1.522   4.328 -1.5494 -3.2639  0.0344
19671TIP3   OH280503   1.272   0.318   0.533  0.0548  0.2512  0.4441
19671TIP3    H180504   1.293   0.377   0.460 -0.8343 -0.6179 -0.5342
19671TIP3    H280505   1.234   0.376   0.600  0.6874  1.0257  0.1495
19672TIP3   OH280506   2.681   0.668  15.677 -0.2681 -0.1348 -0.1116
19672TIP3    H180507   2.709   0.754  15.643 -0.7581  0.2225  0.3728
19672TIP3    H280508   2.652   0.621  15.599  0.2572  0.0358 -0.4194
19673TIP3   OH280509   6.261   2.827   0.882 -0.2976  0.6567 -0.2560
19673TIP3    H180510   6.209   2.870   0.814 -1.8324 -2.1754 -1.0664
19673TIP3    H280511   6.196   2.794   0.944  0.5846 -1.5175 -0.3747
19674TIP3   OH280512   2.691   2.948  15.030 -0.4537 -0.0338 -0.6170
19674TIP3    H180513   2.612   2.953  14.976 -1.4426 -1.3036  0.6531
19674TIP3    H280514   2.678   3.015  15.097  0.9991  1.8891 -2.1358
19675TIP3   OH280515   3.657   5.233  11.156 -0.3433 -0.4057  0.4261
19675TIP3    H180516   3.587   5.187  11.201  0.2043 -0.8920  0.7946
19675TIP3    H280517   3.694   5.168  11.096 -0.6801  0.0617 -0.2971
19676TIP3   OH280518   3.711   1.225  15.301 -0.1921 -0.0992  0.0202
19676TIP3    H180519   3.740   1.144  15.341 -0.4744 -0.9409 -1.4023
19676TIP3    H280520   3.617   1.213  15.286 -0.0075 -0.0716 -1.3724
19677TIP3   OH280521   3.972   3.329   3.853 -0.0256  0.6130  0.0857
19677TIP3    H180522   4.000   3.393   3.787 -0.6191  0.4588 -0.3275
19677TIP3    H280523   4.017   3.248   3.829  0.8655  0.9079  0.7131
19678TIP3   OH280524   3.519   2.234  11.008 -0.5584 -0.4769  0.3375
19678TIP3    H180525   3.473   2.305  10.963 -2.0309 -1.6807 -0.1183
19678TIP3    H280526   3.602   2.226  10.961 -0.7245  0.3952 -0.1252
19679TIP3   OH280527   1.579   0.558   4.535 -0.2073 -0.0945  0.1128
19679TIP3    H180528   1.582   0.485   4.597 -1.2479 -1.1150 -0.9957
19679TIP3    H280529   1.516   0.619   4.573 -1.7440 -1.2600 -0.4611
19680TIP3   OH280530   2.260   5.448  14.089  0.4444  0.5187  0.8295
19680TIP3    H180531   2.304   5.532  14.079  0.1589  0.4823 -1.1927
19680TIP3    H280532   2.192   5.448  14.021  0.2808 -1.2409  0.9429
19681TIP3   OH280533   4.859   4.282   0.910  0.2732  0.2060 -0.2448
19681TIP3    H180534   4.942   4.309   0.870  0.1869  2.3364  0.8832
19681TIP3    H280535   4.802   4.357   0.900 -0.7776 -0.3835  1.0472
19682TIP3   OH280536   2.446   5.002   1.515 -0.0476 -0.5649 -0.1167
19682TIP3    H180537   2.470   4.945   1.441 -1.3408 -0.3873 -0.6977
19682TIP3    H280538   2.377   4.954   1.560 -0.7563  0.2732 -0.2808
19683TIP3   OH280539   0.068   2.774  12.950 -0.2980  0.8270  0.6832
19683TIP3    H180540  -0.026   2.792  12.950 -0.6643 -0.9656  1.3634
19683TIP3    H280541   0.076   2.688  12.909  1.1234  1.2062  0.0976
19684TIP3   OH280542   6.055   5.977  12.030 -0.2644  0.3215 -0.0345
19684TIP3    H180543   5.997   5.972  12.105  1.4033  1.0845  1.3966
19684TIP3    H280544   6.012   6.038  11.970  0.3684  3.3766  2.3569
19685TIP3   OH280545   2.256   6.299  13.724  0.5026 -0.3146  0.2430
19685TIP3    H180546   2.257   6.306  13.629  0.7470 -0.5167  0.2306
19685TIP3    H280547   2.322   6.232  13.744  0.4029 -0.3228  0.5486
19686TIP3   OH280548   0.527   4.376  12.808  0.4781  0.9323  0.5549
19686TIP3    H180549   0.597   4.348  12.749 -1.5540 -0.0399 -1.5290
19686TIP3    H280550   0.549   4.467  12.830  2.3122  0.6914 -0.1203
19687TIP3   OH280551   3.039   4.154   1.492  0.1251 -0.0664 -0.0572
19687TIP3    H180552   3.107   4.130   1.429 -0.9459 -0.7370 -0.9896
19687TIP3    H280553   3.082   4.218   1.549  0.8468  1.4321 -2.1193
19688TIP3   OH280554   0.491   1.287   0.001  0.1182 -0.7232  0.3701
19688TIP3    H180555   0.462   1.247  -0.081 -1.7582 -0.2740  0.7629
19688TIP3    H280556   0.410   1.301   0.051  1.1262 -0.1921  1.9394
19689TIP3   OH280557   5.449   4.617   5.949 -0.2459  0.4443 -0.9465
19689TIP3    H180558   5.490   4.648   5.868  0.1733  0.4947 -0.7196
19689TIP3    H280559   5.467   4.686   6.013 -0.6345  0.4362 -0.8267
19690TIP3   OH280560   0.002   4.349  17.154 -0.2444  0.1483 -0.4222
19690TIP3    H180561  -0.050   4.387  17.225  0.9761 -0.5339  0.9027
19690TIP3    H280562   0.040   4.424  17.109 -0.2898  0.5745  0.2433
19691TIP3   OH280563   1.158   3.518   3.777  0.0479  0.2157  0.1517
19691TIP3    H180564   1.210   3.529   3.697  0.2892  0.2150  0.3070
19691TIP3    H280565   1.067   3.531   3.749 -0.1662 -2.3817 -0.6643
19692TIP3   OH280566   5.714   1.254   0.337 -0.0072  0.7091  0.5350
19692TIP3    H180567   5.734   1.307   0.414 -0.5634  2.1970 -0.2900
19692TIP3    H280568   5.677   1.317   0.274 -0.2248 -0.5852 -0.6796
19693TIP3   OH280569   0.786   1.329   1.922  0.3244  0.2121  0.2098
19693TIP3    H180570   0.790   1.418   1.956 -1.4521  0.4469 -0.1154
19693TIP3    H280571   0.857   1.283   1.968 -0.7087  1.0020  2.7993
19694TIP3   OH280572   6.023   2.997   0.459 -0.1391 -0.1634 -0.3364
19694TIP3    H180573   6.093   2.967   0.401  0.7235  0.2240  0.4896
19694TIP3    H280574   5.992   3.078   0.418  2.1457  1.4941  0.9534
19695TIP3   OH280575   4.362   1.174  15.479 -0.2964  0.1071  0.2325
19695TIP3    H180576   4.283   1.122  15.466  0.4100 -0.6481 -1.2855
19695TIP3    H280577   4.373   1.223  15.398  0.4440  0.7254  0.6824
19696TIP3   OH280578   0.415   2.202   6.287 -0.2664 -0.0042 -0.1762
19696TIP3    H180579   0.375   2.203   6.374  0.5972 -1.4623  0.2790
19696TIP3    H280580   0.489   2.262   6.294  1.1219 -1.7317  0.8227
19697TIP3   OH280581   6.370   3.593   5.792 -0.2132 -0.4323 -0.4616
19697TIP3    H180582   6.381   3.679   5.751 -0.1657  0.3997  1.2063
19697TIP3    H280583   6.450   3.545   5.770  1.5910  1.3490  1.7190
19698TIP3   OH280584   0.392   0.837  12.468 -0.2998 -0.1131 -0.0703
19698TIP3    H180585   0.436   0.784  12.402  0.6494 -0.2645  0.6584
19698TIP3    H280586   0.411   0.793  12.551 -1.1388  0.2863  0.3536
19699TIP3   OH280587   5.770   4.818  16.087 -0.3672 -0.2959 -0.3312
19699TIP3    H180588   5.810   4.731  16.093  0.1138  0.0216  1.3968
19699TIP3    H280589   5.775   4.854  16.175 -1.1275  1.2581 -0.8752
19700TIP3   OH280590   1.494   0.574  13.666  0.4099 -0.3954  0.6304
19700TIP3    H180591   1.488   0.590  13.761  1.0686 -0.9332  0.7692
19700TIP3    H280592   1.583   0.597  13.643  0.1267  0.1452  0.0488
19701TIP3   OH280593   0.696   3.896   0.599 -0.5489 -0.0979  0.0538
19701TIP3    H180594   0.709   3.835   0.526  0.3530 -0.9121  0.8642
19701TIP3    H280595   0.608   3.876   0.631 -0.5683 -0.4293 -0.1941
19702TIP3   OH280596   0.027   0.263   3.196  0.8616  0.1616  0.3504
19702TIP3    H180597   0.087   0.251   3.122 -2.1242  2.5195 -2.7332
19702TIP3    H280598  -0.046   0.204   3.179  0.9679 -0.7283  2.6079
19703TIP3   OH280599   5.401   2.889   3.441 -0.1100 -0.3240  0.6255
19703TIP3    H180600   5.403   2.982   3.420  1.4155 -0.3686  0.4989
19703TIP3    H280601   5.481   2.854   3.403  0.0758 -1.4165  1.9471
19704TIP3   OH280602   0.029   2.442   2.278  0.5230  0.0667 -0.3208
19704TIP3    H180603   0.014   2.392   2.358 -1.6352 -0.7187 -1.1246
19704TIP3    H280604   0.039   2.375   2.210  1.2434  0.7260 -0.8829
19705TIP3   OH280605   5.023   5.278   5.950 -0.1877  0.2341  0.2074
19705TIP3    H180606   5.074   5.312   5.876  0.9171 -2.6561 -0.5158
19705TIP3    H280607   5.085   5.222   5.998 -2.1151 -1.8746  0.4164
19706TIP3   OH280608   5.747   1.287  16.716 -0.5191  0.4297  0.2444
19706TIP3    H180609   5.756   1.367  16.768  1.6408  0.3137  0.1274
19706TIP3    H280610   5.653   1.277  16.705 -0.9409  1.7517  2.1192
19707TIP3   OH280611   0.458   6.304  14.356 -0.2724  0.2431  0.0909
19707TIP3    H180612   0.457   6.322  14.262  0.4979  0.4709  0.1166
19707TIP3    H280613   0.418   6.218  14.365  0.5047 -0.1953 -0.5493
19708TIP3   OH280614   6.399   5.131   6.685 -0.1262 -0.0946  0.0836
19708TIP3    H180615   6.381   5.178   6.604  0.8342  0.3922  0.1355
19708TIP3    H280616   6.483   5.166   6.715 -0.0187 -0.9284  0.8040
19709TIP3   OH280617   1.580   1.302   2.396  0.0311  0.6786  0.9918
19709TIP3    H180618   1.545   1.339   2.477 -0.4393  2.4110  0.0775
19709TIP3    H280619   1.671   1.331   2.393  0.2082  0.1466  1.1559
19710TIP3   OH280620   5.404   6.662  16.486  0.0646 -0.4372  0.2965
19710TIP3    H180621   5.314   6.662  16.455  0.3007  1.0685 -0.4736
19710TIP3    H280622   5.408   6.733  16.549  0.4003 -1.3834  1.3882
19711TIP3   OH280623   4.970   6.518  15.019  0.2651  0.2738 -0.3543
19711TIP3    H180624   5.030   6.524  15.094 -0.6292  0.3267  0.3738
19711TIP3    H280625   4.887   6.552  15.052  0.2846  1.9040 -1.8614
19712TIP3   OH280626   4.641   2.843  16.295 -0.6429 -0.2901  0.4933
19712TIP3    H180627   4.649   2.772  16.232  3.6865  0.2060  0.2175
19712TIP3    H280628   4.706   2.907  16.268 -1.1607  1.6606  3.3871
19713TIP3   OH280629   1.017   2.061  10.634 -0.8987  0.5687  0.2060
19713TIP3    H180630   0.960   2.018  10.570  0.5756 -1.4464  0.1424
19713TIP3    H280631   0.978   2.038  10.718 -0.1275 -0.9792  0.1730
19714TIP3   OH280632   4.164   0.386  13.037  0.4030  0.0199 -0.5634
19714TIP3    H180633   4.199   0.468  13.071  0.4299  1.2484 -3.3334
19714TIP3    H280634   4.069   0.397  13.041  0.3683 -0.5275  0.5746
19715TIP3   OH280635   3.210   2.659   5.240 -0.3771 -0.1013 -0.1048
19715TIP3    H180636   3.127   2.706   5.245 -0.5482 -0.4874  0.8709
19715TIP3    H280637   3.190   2.579   5.191  0.0751  1.1329 -2.4286
19716TIP3   OH280638   4.738   4.980   0.051 -0.6198  0.3381  0.1410
19716TIP3    H180639   4.730   4.949   0.141 -0.2447  0.7941  0.3374
19716TIP3    H280640   4.731   5.075   0.058 -0.3043  0.3956 -0.2768
19717TIP3   OH280641   1.870   6.682   2.987  0.1136 -0.5843  0.7654
19717TIP3    H180642   1.888   6.671   2.893 -1.9814  0.2411  0.1952
19717TIP3    H280643   1.921   6.759   3.012  0.0699 -0.3265  0.0931
19718TIP3   OH280644   4.965   5.492   1.069 -0.1647  0.5797  0.3155
19718TIP3    H180645   4.881   5.454   1.092 -1.5333  2.4610 -1.2418
19718TIP3    H280646   5.027   5.420   1.077 -2.4564 -1.8236 -1.7199
19719TIP3   OH280647   3.075   1.387   0.499  0.1207 -0.5700  0.1938
19719TIP3    H180648   2.997   1.352   0.540  0.1827  0.1173  0.9206
19719TIP3    H280649   3.147   1.339   0.540  0.2551  0.8819  1.7460
19720TIP3   OH280650   0.683   6.196   1.654 -0.1141 -0.2382  0.4677
19720TIP3    H180651   0.772   6.192   1.690  0.4928 -0.3247 -0.9707
19720TIP3    H280652   0.628   6.222   1.728  0.9529 -1.1443  1.6292
19721TIP3   OH280653   3.478   4.026   0.485 -0.2143 -0.3949 -0.1778
19721TIP3    H180654   3.441   4.107   0.518 -1.0032 -1.0408  0.5717
19721TIP3    H280655   3.568   4.048   0.461  0.3064  0.1950  2.1461
19722TIP3   OH280656   2.745   1.298  12.260 -0.1256 -0.3067  0.1684
19722TIP3    H180657   2.737   1.204  12.244 -0.9939 -0.1310 -0.5173
19722TIP3    H280658   2.737   1.306  12.355 -1.3287 -0.8342  0.1361
19723TIP3   OH280659   4.908   0.221   6.740 -0.0366  0.0026  0.2675
19723TIP3    H180660   4.975   0.250   6.677  0.1395  1.3793  1.0490
19723TIP3    H280661   4.938   0.255   6.824 -1.5400  0.3444  0.6976
19724TIP3   OH280662   3.689   6.611   3.512 -0.0329  0.2030 -0.1939
19724TIP3    H180663   3.703   6.702   3.485  0.0562 -0.4669 -2.5336
19724TIP3    H280664   3.660   6.618   3.603  2.2533  2.4288  0.4813
19725TIP3   OH280665   0.649   4.063  11.849 -0.3041 -0.1767  0.3908
19725TIP3    H180666   0.705   4.042  11.775  1.2648 -1.1295  1.7694
19725TIP3    H280667   0.602   3.981  11.867  0.3362 -0.3779  1.2421
19726TIP3   OH280668   2.626   3.556   2.049 -0.2327  0.2638 -0.0008
19726TIP3    H180669   2.572   3.603   1.985 -1.1395 -1.4533 -0.5428
19726TIP3    H280670   2.652   3.476   2.003  1.6585  0.4186  0.7392
19727TIP3   OH280671   6.814   2.183  16.750 -0.8511  0.6729  0.5883
19727TIP3    H180672   6.795   2.183  16.657  1.2803 -0.6071  0.0911
19727TIP3    H280673   6.880   2.251  16.761 -0.3992  0.1820  0.9789
19728TIP3   OH280674   3.864   1.273  16.141  0.4485 -0.8487  0.5148
19728TIP3    H180675   3.847   1.302  16.231 -1.6480 -1.3071  0.3339
19728TIP3    H280676   3.863   1.354  16.090  1.0007 -0.6448  0.8216
19729TIP3   OH280677   0.027   0.853  11.890  0.4073 -0.0207 -0.4610
19729TIP3    H180678  -0.013   0.917  11.949  0.2188  0.6854 -1.3247
19729TIP3    H280679   0.051   0.904  11.813 -0.0103 -1.0413 -1.2922
19730TIP3   OH280680   5.201   3.724   5.067  0.0519 -0.1594 -0.1303
19730TIP3    H180681   5.130   3.673   5.107 -0.8398  0.6249 -0.6546
19730TIP3    H280682   5.219   3.678   4.985 -0.5397  0.1737 -0.4574
19731TIP3   OH280683   0.798   0.739   1.412 -0.0394 -0.7511 -0.5535
19731TIP3    H180684   0.772   0.716   1.501  0.4733  0.4781 -0.0548
19731TIP3    H280685   0.761   0.826   1.398  1.1567 -0.2882 -0.9586
19732TIP3   OH280686   6.418   2.865  12.796  0.1772 -0.0847  0.0199
19732TIP3    H180687   6.383   2.952  12.813  0.1730 -0.2001  0.6269
19732TIP3    H280688   6.470   2.874  12.717 -0.8105  0.2084 -0.6072
19733TIP3   OH280689   4.223   3.928   0.074 -0.6154  0.3690 -0.0338
19733TIP3    H180690   4.316   3.928   0.051 -0.6763 -0.9769 -0.3825
19733TIP3    H280691   4.183   3.992   0.014 -0.0676  0.1956 -0.5932
19734TIP3   OH280692   2.301   1.961  15.025  0.2420  0.6676 -0.0111
19734TIP3    H180693   2.356   1.890  15.059 -1.1680 -0.5942 -0.2750
19734TIP3    H280694   2.362   2.035  15.013  1.8998 -0.7083 -0.4495
19735TIP3   OH280695   0.942   5.885   5.914  0.0188 -0.4097  0.4639
19735TIP3    H180696   0.994   5.908   5.991  0.7687 -2.6474  0.7180
19735TIP3    H280697   0.956   5.791   5.904 -1.8571 -0.5828 -1.0937
19736TIP3   OH280698   0.209   4.712   1.174 -0.3282  0.3300  0.0307
19736TIP3    H180699   0.256   4.661   1.240  0.7434  0.6949 -0.4236
19736TIP3    H280700   0.132   4.747   1.220 -1.2195 -1.8543  0.2880
19737TIP3   OH280701   4.964   5.424   1.584 -0.4419  0.1863  0.1643
19737TIP3    H180702   4.887   5.473   1.556 -0.6294 -0.4534 -0.4637
19737TIP3    H280703   5.014   5.486   1.637 -1.3442  0.6362  0.5152
19738TIP3   OH280704   0.117   6.255  14.202  0.0500 -0.0369  0.1161
19738TIP3    H180705   0.152   6.283  14.287  2.5272  2.7394 -1.6163
19738TIP3    H280706   0.022   6.269  14.210  0.3874  1.8339  1.9098
19739TIP3   OH280707   5.150   1.150  15.378  0.1902  0.1356  0.2929
19739TIP3    H180708   5.085   1.220  15.382  0.0469 -0.0225  0.8396
19739TIP3    H280709   5.099   1.070  15.389  0.3572 -0.0554 -0.2956
19740TIP3   OH280710   5.927   4.669  14.141 -0.2137  0.5498  0.1349
19740TIP3    H180711   5.957   4.758  14.125  0.6940 -0.1496 -2.5295
19740TIP3    H280712   5.892   4.639  14.057 -0.0539 -1.7726  0.8167
19741TIP3   OH280713   4.907   0.134   6.074  0.1743 -0.4442  0.4754
19741TIP3    H180714   4.999   0.160   6.074  0.1073 -0.2021  0.2470
19741TIP3    H280715   4.888   0.112   5.983  0.6041 -2.6525  0.8677
19742TIP3   OH280716   6.200   3.009   4.121  0.2292 -0.6170 -0.0569
19742TIP3    H180717   6.272   3.033   4.064  1.1070 -0.5127  1.0696
19742TIP3    H280718   6.129   3.069   4.098  0.6919 -0.3412 -0.7753
19743TIP3   OH280719   3.193   0.962   0.692  0.0978 -0.8063 -0.4628
19743TIP3    H180720   3.120   0.904   0.716  0.2269 -0.0813  1.8942
19743TIP3    H280721   3.154   1.049   0.692  0.5974 -0.5806 -0.9526
19744TIP3   OH280722   2.410   1.809  17.106  0.1857 -0.1360  0.4704
19744TIP3    H180723   2.381   1.773  17.022 -1.1871 -0.1970  0.9477
19744TIP3    H280724   2.472   1.744  17.139 -0.8493 -1.1552  0.4628
19745TIP3   OH280725   3.217   1.070  12.930  0.0184  0.0168  0.4271
19745TIP3    H180726   3.159   1.083  12.855  0.9298  1.2164 -0.1155
19745TIP3    H280727   3.179   1.124  12.999  0.7824  1.2946 -0.1176
19746TIP3   OH280728   5.089   4.721   0.620 -0.6108 -0.2180 -0.4853
19746TIP3    H180729   5.171   4.750   0.581 -0.1514 -0.6445  0.1327
19746TIP3    H280730   5.063   4.645   0.568 -0.3936 -0.3341 -0.4236
19747TIP3   OH280731   1.853   5.696   4.807 -0.1089 -0.0522  0.0908
19747TIP3    H180732   1.911   5.639   4.757 -0.8827 -0.9900  0.2202
19747TIP3    H280733   1.907   5.733   4.876  0.5830 -0.0256 -0.4570
19748TIP3   OH280734   4.636   3.576   3.042 -0.2941 -0.0799  0.1639
19748TIP3    H180735   4.608   3.565   3.132 -0.5119 -0.8668  0.0114
19748TIP3    H280736   4.559   3.554   2.990  0.4215 -1.7576 -0.2482
19749TIP3   OH280737   0.413   5.460  12.625 -0.2271 -0.0694 -0.2135
19749TIP3    H180738   0.384   5.442  12.536  0.0178 -0.7644 -0.1610
19749TIP3    H280739   0.484   5.524  12.615  0.5915 -1.0197 -0.6130
19750TIP3   OH280740   1.408   6.285  12.886 -0.6059  0.1765  0.3638
19750TIP3    H180741   1.401   6.209  12.944  2.8992  0.2095  1.0711
19750TIP3    H280742   1.399   6.360  12.944  2.6661  0.2073  1.0226
19751TIP3   OH280743   4.029   6.760   2.785 -0.8594  0.2199 -0.3047
19751TIP3    H180744   4.010   6.772   2.879 -0.5252  0.4484 -0.2636
19751TIP3    H280745   4.116   6.719   2.783 -1.0885 -0.2642 -0.5054
19752TIP3   OH280746   2.039   3.846   0.396 -0.1623  0.7436  0.0650
19752TIP3    H180747   2.014   3.923   0.448  3.5018  3.3771 -1.6615
19752TIP3    H280748   1.992   3.856   0.314 -0.2153  0.7706  0.0988
19753TIP3   OH280749   5.826   3.892   6.205 -0.0544 -0.1106  0.1255
19753TIP3    H180750   5.783   3.848   6.131 -0.0755 -0.6559  0.4567
19753TIP3    H280751   5.766   3.963   6.228  0.7618  1.1669 -1.4853
19754TIP3   OH280752   5.728   2.439  13.656  0.0578 -0.4690  0.1365
19754TIP3    H180753   5.777   2.359  13.673  1.5292  0.5439  0.8665
19754TIP3    H280754   5.776   2.507  13.704 -0.8213  0.9489 -0.9249
19755TIP3   OH280755   2.136   5.023  11.501  0.2857 -0.3048  0.6500
19755TIP3    H180756   2.216   5.036  11.551 -0.0766  0.8871  0.9432
19755TIP3    H280757   2.164   4.976  11.422  1.2436 -0.0400  0.8286
19756TIP3   OH280758   1.357   6.458  13.709 -0.1515  0.1931 -0.2296
19756TIP3    H180759   1.413   6.473  13.633  0.0767 -0.5501 -0.2144
19756TIP3    H280760   1.391   6.519  13.775 -1.1759  1.7763 -1.1039
19757TIP3   OH280761   0.008   3.453  15.050  0.3899 -0.1139  0.0017
19757TIP3    H180762   0.074   3.516  15.022  1.7193 -1.0036  1.0163
19757TIP3    H280763  -0.033   3.492  15.126  0.3892  0.0401 -0.0781
19758TIP3   OH280764   1.520   3.058  12.498 -0.1792 -0.0086 -0.5282
19758TIP3    H180765   1.442   3.020  12.458 -0.2144  0.2197 -0.6747
19758TIP3    H280766   1.578   3.077  12.425  1.0648 -2.4942 -0.2645
19759TIP3   OH280767   1.426   0.028  14.926 -0.5024  0.5838  0.0381
19759TIP3    H180768   1.413   0.076  15.008 -2.2178  2.1047 -1.0450
19759TIP3    H280769   1.480   0.087  14.872  2.2149 -1.1703  0.6194
19760TIP3   OH280770   1.620   3.745   3.164  0.0621  0.0059 -0.0484
19760TIP3    H180771   1.526   3.742   3.147  0.2150 -2.1456 -0.8600
19760TIP3    H280772   1.657   3.786   3.085 -0.1310  0.3649  0.0430
19761TIP3   OH280773   6.435   1.273   5.060 -0.4139  0.3176  0.1070
19761TIP3    H180774   6.517   1.248   5.017 -0.8313 -0.7569 -0.1048
19761TIP3    H280775   6.445   1.242   5.150 -0.1185  1.2719  0.4162
19762TIP3   OH280776   0.620   1.988   5.231 -0.1491 -0.5104 -0.2341
19762TIP3    H180777   0.612   1.896   5.256 -1.0815 -0.4785 -0.3650
19762TIP3    H280778   0.552   2.001   5.164  0.3329  0.1375 -0.6156
19763TIP3   OH280779   6.601   1.866  14.111  0.2963  0.0454  0.1753
19763TIP3    H180780   6.597   1.901  14.022  1.0183 -1.7686 -0.6031
19763TIP3    H280781   6.524   1.809  14.119 -0.6782  1.4269  1.3178
19764TIP3   OH280782   4.411   5.957  14.964  0.6763 -0.2121  0.1610
19764TIP3    H180783   4.491   5.907  14.953  1.5298  0.9156  0.9806
19764TIP3    H280784   4.427   6.012  15.041 -1.0621 -0.2868  0.6304
19765TIP3   OH280785   4.710   2.308  12.874  0.1226  0.0611  0.2201
19765TIP3    H180786   4.674   2.221  12.891  0.1605 -0.2926 -1.3826
19765TIP3    H280787   4.693   2.323  12.781 -0.7798  2.1931  0.6815
19766TIP3   OH280788   3.029   1.064  14.994  0.6608  0.0398  0.2180
19766TIP3    H180789   3.097   1.052  15.061 -0.1405  0.6396  1.1568
19766TIP3    H280790   2.995   1.152  15.009  0.2220  0.0535 -0.7625
19767TIP3   OH280791   6.786   4.261  14.478 -0.3199  0.4809 -0.4925
19767TIP3    H180792   6.757   4.171  14.462  0.0630  0.4305 -0.9170
19767TIP3    H280793   6.822   4.290  14.394  1.3502  0.3660  0.1631
19768TIP3   OH280794   4.400   0.802   1.220  0.0977  0.1785 -0.7018
19768TIP3    H180795   4.329   0.852   1.260  1.2635  1.0477  0.3301
19768TIP3    H280796   4.480   0.839   1.256  1.0730 -1.3139 -1.2121
19769TIP3   OH280797   1.787   4.656   1.992  0.1469  0.4685 -0.4737
19769TIP3    H180798   1.777   4.662   1.897  1.8000 -0.5631 -0.7553
19769TIP3    H280799   1.850   4.585   2.005 -1.6271 -0.8775  1.5106
19770TIP3   OH280800   3.504   2.588   5.017 -0.4877 -0.0623  0.1792
19770TIP3    H180801   3.569   2.659   5.025  0.0689 -0.6241  0.7079
19770TIP3    H280802   3.538   2.533   4.946  0.9200 -1.6870  2.0341
19771TIP3   OH280803   2.370   2.135   3.767 -0.3491 -0.5103 -0.3029
19771TIP3    H180804   2.343   2.188   3.842  1.9257  0.3104  0.0236
19771TIP3    H280805   2.359   2.193   3.692  2.9299  0.9306  0.1423
19772TIP3   OH280806   0.208   6.255  13.288  0.0448  0.4199  0.2397
19772TIP3    H180807   0.190   6.235  13.196  0.8164 -3.6915  0.7802
19772TIP3    H280808   0.137   6.214  13.336  1.5881 -0.9093  1.5416
19773TIP3   OH280809   0.727   6.617   4.406 -0.9983 -0.4078  0.7491
19773TIP3    H180810   0.707   6.559   4.480 -1.2430  0.0297  1.0297
19773TIP3    H280811   0.816   6.592   4.380 -0.2517  0.5361  2.2531
19774TIP3   OH280812   2.255   4.683  14.595 -0.0633 -0.5808  0.4892
19774TIP3    H180813   2.171   4.727  14.581  1.1542  1.7714 -0.0422
19774TIP3    H280814   2.320   4.753  14.588  2.0155 -2.4178  0.2543
19775TIP3   OH280815   4.149   6.574  13.338  0.0481  0.0427 -0.7064
19775TIP3    H180816   4.077   6.632  13.365  1.1236  1.8952 -1.5935
19775TIP3    H280817   4.228   6.625  13.354  1.0761 -1.3040 -1.3100
19776TIP3   OH280818   3.982   2.791  13.766 -0.0765 -0.7646 -0.3014
19776TIP3    H180819   3.994   2.820  13.676  1.3871 -0.6337 -0.0849
19776TIP3    H280820   4.069   2.768  13.796 -0.6099 -1.2650  0.9380
19777TIP3   OH280821   6.140   4.727  15.757 -0.2813  0.3839 -0.0657
19777TIP3    H180822   6.162   4.777  15.836  2.4533 -1.1489  0.2673
19777TIP3    H280823   6.203   4.757  15.691 -0.2668 -0.7959 -0.6107
19778TIP3   OH280824   4.123   3.886   3.196 -0.2047 -0.0780 -0.3111
19778TIP3    H180825   4.101   3.794   3.185 -0.1579 -0.0657 -0.5152
19778TIP3    H280826   4.217   3.886   3.215 -0.3226 -0.1119  0.2764
19779TIP3   OH280827   0.183   6.209  11.954  0.4592 -0.2358  0.3084
19779TIP3    H180828   0.244   6.259  11.901  1.1027 -2.9620 -1.6755
19779TIP3    H280829   0.100   6.215  11.907 -0.0209  0.6854  1.2262
19780TIP3   OH280830   2.746   4.496  11.910  0.7940 -0.1866  0.1607
19780TIP3    H180831   2.816   4.522  11.970 -0.3064  1.6922  0.7253
19780TIP3    H280832   2.666   4.528  11.951 -0.2169 -0.6553 -1.3449
19781TIP3   OH280833   2.129   1.244   4.349 -1.0651  0.1081 -0.3313
19781TIP3    H180834   2.176   1.162   4.332  0.7664  1.2470 -1.1111
19781TIP3    H280835   2.095   1.235   4.438 -0.1676 -1.1579 -0.0942
19782TIP3   OH280836   3.777   2.777  13.159 -0.3146  0.4349 -0.2600
19782TIP3    H180837   3.851   2.837  13.170  0.8784 -1.0757  0.3841
19782TIP3    H280838   3.797   2.730  13.077 -0.0521 -0.6284  0.3943
19783TIP3   OH280839   5.743   1.407  13.419 -0.0980  0.0680 -0.3499
19783TIP3    H180840   5.659   1.393  13.462 -0.5107  0.5229 -0.9803
19783TIP3    H280841   5.750   1.336  13.355 -0.5634  0.6907 -1.1143
19784TIP3   OH280842   5.705   6.717   1.043  0.1258 -0.1336  0.2790
19784TIP3    H180843   5.770   6.784   1.062  1.7996 -1.7353  0.4871
19784TIP3    H280844   5.748   6.634   1.065 -2.9959 -1.2024  3.3412
19785TIP3   OH280845   0.396   1.931  17.040  0.0967 -0.5609  0.7788
19785TIP3    H180846   0.393   1.915  17.134  1.6127  1.5078  1.2594
19785TIP3    H280847   0.338   2.005  17.026  0.3476 -0.4689  0.1800
19786TIP3   OH280848   2.799   5.460   3.719 -0.1359  0.3730  0.4758
19786TIP3    H180849   2.837   5.473   3.806  0.9402 -0.2231  0.1114
19786TIP3    H280850   2.828   5.536   3.669  0.4491  0.0009  0.2435
19787TIP3   OH280851   1.290   4.637  17.003  0.0424  0.2615 -0.0727
19787TIP3    H180852   1.302   4.549  17.039  1.4924  0.5955  0.3120
19787TIP3    H280853   1.195   4.647  16.998 -0.1937 -0.5550  1.8357
19788TIP3   OH280854   5.937   4.599  15.666 -0.0786  0.5808 -0.3813
19788TIP3    H180855   5.860   4.656  15.666 -0.8200 -0.3403  1.4445
19788TIP3    H280856   6.004   4.649  15.712  0.3068  1.1933 -1.5592
19789TIP3   OH280857   4.904   5.540   5.002  0.1108 -0.0068 -1.2108
19789TIP3    H180858   4.829   5.513   5.055 -0.0370 -1.4981 -2.1213
19789TIP3    H280859   4.970   5.569   5.066 -0.0346 -1.8109 -0.1806
19790TIP3   OH280860   6.008   4.896   1.688  0.1577  0.2198  0.2800
19790TIP3    H180861   5.938   4.940   1.736 -0.1362  1.4865 -1.2459
19790TIP3    H280862   6.086   4.948   1.708  0.5656 -0.7538  1.3761
19791TIP3   OH280863   1.238   4.917  15.793 -0.0004  0.2464  0.0655
19791TIP3    H180864   1.282   4.903  15.877  1.3451 -1.2957 -0.8638
19791TIP3    H280865   1.147   4.890  15.809  0.7692 -2.3775  0.4350
19792TIP3   OH280866   3.736   1.956  13.071 -0.3684  0.1226 -0.0193
19792TIP3    H180867   3.803   1.894  13.042 -0.4058  0.9350 -2.0251
19792TIP3    H280868   3.656   1.928  13.026 -0.5103  1.2657 -0.5190
19793TIP3   OH280869   4.760   5.247  16.346  0.0864 -0.0965 -0.2330
19793TIP3    H180870   4.819   5.320  16.366 -2.7069  1.8436  1.6340
19793TIP3    H280871   4.672   5.281  16.366 -1.3974 -3.9283  0.5699
19794TIP3   OH280872   4.369   6.419  12.726  0.4032  0.8053  0.3735
19794TIP3    H180873   4.372   6.487  12.659 -2.5417  1.4099  0.7167
19794TIP3    H280874   4.395   6.338  12.680 -0.3606  1.4079 -1.1791
19795TIP3   OH280875   6.229   5.098   3.318  0.4507 -0.3418 -0.0793
19795TIP3    H180876   6.202   5.042   3.245  0.1860  1.1649 -1.1726
19795TIP3    H280877   6.275   5.171   3.277 -0.9659  1.2980  1.1230
19796TIP3   OH280878   4.104   4.893   3.448 -0.3903  0.0383 -0.0394
19796TIP3    H180879   4.168   4.889   3.519 -0.0481  1.2096 -0.2564
19796TIP3    H280880   4.021   4.867   3.489 -0.2189  0.8089  0.8424
19797TIP3   OH280881   5.624   2.736   2.986  0.0118 -0.0620  0.0884
19797TIP3    H180882   5.694   2.796   3.013  1.4648 -2.0501  0.9759
19797TIP3    H280883   5.654   2.702   2.901 -0.5586  0.0626 -0.1673
19798TIP3   OH280884   6.575   5.101   2.961 -0.1043  0.2194  0.2382
19798TIP3    H180885   6.565   5.075   2.870 -0.6934  1.7761 -0.1775
19798TIP3    H280886   6.487   5.092   2.998  0.2913 -1.1710  0.8880
19799TIP3   OH280887   4.435   4.442  10.409  0.1449 -0.2931  0.4643
19799TIP3    H180888   4.456   4.451  10.501 -0.5475 -0.2920  0.6243
19799TIP3    H280889   4.440   4.531  10.374 -0.0919 -0.2204  0.6119
19800TIP3   OH280890   1.483   4.034   2.014 -0.6769  0.7025  0.0839
19800TIP3    H180891   1.511   3.990   1.934 -0.5473  0.8774  0.0311
19800TIP3    H280892   1.403   4.081   1.989 -1.2826 -0.1668  0.3514
19801TIP3   OH280893   6.675   0.644   3.052  0.0275 -0.2629  0.9563
19801TIP3    H180894   6.582   0.621   3.052  0.1570 -0.8107  0.5686
19801TIP3    H280895   6.677   0.736   3.079 -1.0750  1.3899 -3.7009
19802TIP3   OH280896   5.601   4.400  14.849  0.5526  0.2194  0.4398
19802TIP3    H180897   5.564   4.384  14.762  0.3680  0.5318  0.4572
19802TIP3    H280898   5.533   4.370  14.910  1.0637 -0.8808  0.4918
19803TIP3   OH280899   6.621   2.922   5.588 -0.0092  0.0520  0.3786
19803TIP3    H180900   6.619   2.987   5.658  0.5456 -1.7380  2.1740
19803TIP3    H280901   6.713   2.895   5.584  0.6005  1.9668 -2.9903
19804TIP3   OH280902   2.983   1.514  15.607 -0.3756 -0.0011  0.6285
19804TIP3    H180903   3.078   1.507  15.613 -0.1341  0.2785 -1.7374
19804TIP3    H280904   2.958   1.445  15.545 -1.3393  1.5407 -0.7918
19805TIP3   OH280905   1.733   3.658   4.173 -0.3890 -0.4358 -0.0750
19805TIP3    H180906   1.827   3.639   4.176 -0.5651 -1.2819  1.6291
19805TIP3    H280907   1.696   3.585   4.123 -0.3528 -1.3347  1.1535
19806TIP3   OH280908   2.107   6.439   2.879  0.3264  0.1886 -0.2736
19806TIP3    H180909   2.135   6.419   2.790  1.3773 -0.4127  0.1680
19806TIP3    H280910   2.171   6.503   2.910 -0.8051  1.4121 -0.3802
19807TIP3   OH280911   5.647   6.396   6.038  0.3886 -0.4574 -0.2812
19807TIP3    H180912   5.655   6.468   6.102 -1.2690  0.8253 -1.4375
19807TIP3    H280913   5.657   6.438   5.953 -0.5295 -1.6160 -0.9896
19808TIP3   OH280914   0.498   6.298  16.632 -0.0302  0.0606 -0.3014
19808TIP3    H180915   0.440   6.292  16.707 -0.5159  0.9788 -0.5816
19808TIP3    H280916   0.464   6.235  16.569  1.3842 -1.9704  0.8521
19809TIP3   OH280917   1.211   1.132  17.321 -0.6622  0.2370  0.4705
19809TIP3    H180918   1.284   1.170  17.274  0.5650 -1.0244  1.2694
19809TIP3    H280919   1.212   1.175  17.407  0.3146 -1.0291  1.1331
19810TIP3   OH280920   6.698   1.322  15.206 -0.8284 -0.0138 -0.8867
19810TIP3    H180921   6.780   1.358  15.238 -0.1881 -1.5531 -0.6978
19810TIP3    H280922   6.640   1.322  15.282 -0.3795 -0.6390 -0.5353
19811TIP3   OH280923   2.996   5.942   5.854 -0.0222  0.5281 -0.4779
19811TIP3    H180924   2.924   5.983   5.901 -0.8427 -0.6889 -0.6349
19811TIP3    H280925   3.053   5.907   5.923 -0.6815 -0.3394 -0.3648
19812TIP3   OH280926   0.371   2.880  12.399 -0.1902  0.0641 -0.2883
19812TIP3    H180927   0.436   2.945  12.426 -2.1947  1.2519  2.0620
19812TIP3    H280928   0.307   2.929  12.348 -1.4545 -0.0954  1.0795
19813TIP3   OH280929   5.273   5.690  12.603  0.0235 -0.2020 -0.1522
19813TIP3    H180930   5.302   5.778  12.629  0.8114 -0.4101 -0.2860
19813TIP3    H280931   5.221   5.705  12.523 -0.5120  0.2135  0.2670
19814TIP3   OH280932   5.416   4.951  11.033  0.0380 -1.1086  0.0659
19814TIP3    H180933   5.321   4.954  11.043  0.0114 -1.4115 -0.0781
19814TIP3    H280934   5.435   4.859  11.012  0.3492 -1.0235 -0.0297
19815TIP3   OH280935   1.901   6.319  12.621  0.3095  0.0853  0.6849
19815TIP3    H180936   1.869   6.391  12.675  0.2160  0.0028  0.7409
19815TIP3    H280937   1.900   6.352  12.532 -2.4382 -0.7699  0.3308
19816TIP3   OH280938   3.978   5.002   1.521 -0.7629 -0.5945 -0.3608
19816TIP3    H180939   4.054   5.037   1.567  0.6943 -1.7588 -1.7641
19816TIP3    H280940   3.909   5.000   1.587 -0.7711  3.8846  0.1185
19817TIP3   OH280941   4.592   0.364   4.845 -0.1216  0.7327  0.0601
19817TIP3    H180942   4.663   0.318   4.800  0.5232  0.5080  1.2659
19817TIP3    H280943   4.533   0.393   4.775  0.5235 -0.1519 -0.8669
19818TIP3   OH280944   0.987   4.753   1.243 -0.1180  0.2051  0.2455
19818TIP3    H180945   0.968   4.694   1.316  1.2256  0.3543  0.7415
19818TIP3    H280946   0.998   4.838   1.284  1.2314  0.1822 -0.0490
19819TIP3   OH280947   2.870   5.139   4.582 -0.4016 -0.0359  0.2823
19819TIP3    H180948   2.904   5.163   4.496  0.1190  0.2714  0.5659
19819TIP3    H280949   2.827   5.055   4.568  2.2312 -1.4974  0.2723
19820TIP3   OH280950   4.228   2.731   0.368  0.4812  0.3154 -0.3098
19820TIP3    H180951   4.212   2.672   0.442 -0.0352  1.7467  0.7698
19820TIP3    H280952   4.152   2.718   0.311  0.8691 -0.7802 -0.6098
19821TIP3   OH280953   1.769   2.295   5.014 -0.3841  0.1659 -0.2673
19821TIP3    H180954   1.771   2.389   4.993  0.6436  0.3561  0.5871
19821TIP3    H280955   1.676   2.273   5.016 -0.6365  1.1741 -0.4921
19822TIP3   OH280956   0.609   6.365   4.650 -0.0622  0.0454 -0.2775
19822TIP3    H180957   0.541   6.321   4.599 -1.9916  1.5916  0.8247
19822TIP3    H280958   0.667   6.294   4.678 -1.9665 -1.5666 -0.1561
19823TIP3   OH280959   2.561   0.491  16.239  0.0159 -0.0982 -0.2919
19823TIP3    H180960   2.647   0.450  16.227  0.5619  0.5720  1.0990
19823TIP3    H280961   2.505   0.421  16.273  0.1491 -0.4038 -0.6991
19824TIP3   OH280962   0.116   0.644  13.748  0.0609  0.1225  0.1365
19824TIP3    H180963   0.073   0.729  13.739  0.4974  0.4643  1.2028
19824TIP3    H280964   0.045   0.583  13.769 -0.0370  0.5103  0.9367
19825TIP3   OH280965   4.057   3.953   4.763  0.1036 -0.2765  0.1820
19825TIP3    H180966   4.088   3.946   4.673 -0.0592  0.0500  0.1003
19825TIP3    H280967   4.071   3.865   4.800 -0.0696 -0.4828 -0.2393
19826TIP3   OH280968   2.226   5.894   1.948 -0.0960 -0.4894 -0.4525
19826TIP3    H180969   2.134   5.918   1.954  0.1248  0.4838 -0.7566
19826TIP3    H280970   2.257   5.893   2.038 -0.7485 -2.2919 -0.2219
19827TIP3   OH280971   5.060   1.241  16.836 -0.3476 -0.1497 -0.0674
19827TIP3    H180972   4.978   1.286  16.818  0.0650  0.7960  0.3540
19827TIP3    H280973   5.119   1.310  16.867  1.1939 -0.4716 -2.1302
19828TIP3   OH280974   2.588   0.060  14.122  0.1143  0.1389  0.1567
19828TIP3    H180975   2.557  -0.023  14.085 -1.3597 -0.3314  2.2347
19828TIP3    H280976   2.542   0.128  14.073 -0.0212 -0.3463 -0.3911
19829TIP3   OH280977   0.810   6.726   1.946 -0.3405 -0.1323 -0.3078
19829TIP3    H180978   0.858   6.743   2.027 -1.3594  2.3642 -0.1302
19829TIP3    H280979   0.809   6.631   1.938  0.5315 -0.4175  2.1602
19830TIP3   OH280980   6.414   3.275  13.615  0.4002  0.3962  0.0894
19830TIP3    H180981   6.419   3.309  13.704 -0.5523 -0.0429  0.3307
19830TIP3    H280982   6.323   3.245  13.606  0.9424 -1.2030 -0.4248
19831TIP3   OH280983   1.969   2.963  16.073 -0.6474  0.3603  0.1065
19831TIP3    H180984   1.899   2.939  16.013  0.5302 -1.0166 -0.7803
19831TIP3    H280985   1.974   2.889  16.134 -0.8745  1.0858  1.0202
19832TIP3   OH280986   2.704   4.293  14.792  0.0747  0.1021  0.2145
19832TIP3    H180987   2.776   4.259  14.739 -0.7723 -1.9806  0.3234
19832TIP3    H280988   2.638   4.320  14.729 -0.5583 -1.5193  0.1474
19833TIP3   OH280989   3.781   3.462   2.406  0.1454 -0.7941 -0.5140
19833TIP3    H180990   3.823   3.398   2.464  0.9837 -0.5751 -0.8541
19833TIP3    H280991   3.720   3.411   2.353 -0.5910 -1.0073  0.5060
19834TIP3   OH280992   3.295   0.276   0.792  0.1285 -0.0047  0.5291
19834TIP3    H180993   3.261   0.214   0.728  0.6938 -1.3344  1.4830
19834TIP3    H280994   3.223   0.288   0.854 -0.2757  0.9639 -0.1160
19835TIP3   OH280995   2.757   5.763  11.853 -0.2463  0.1868 -0.0145
19835TIP3    H180996   2.703   5.766  11.932  0.5155 -1.1545  0.5878
19835TIP3    H280997   2.695   5.742  11.783 -0.8285  0.7650  0.3069
19836TIP3   OH280998   3.902   5.977  13.572  0.2750 -0.2947  0.2104
19836TIP3    H180999   3.961   5.974  13.497  1.6777  0.4697  1.2117
19836TIP3    H281000   3.818   6.003  13.536  1.0799  0.7490 -1.0185
19837TIP3   OH281001   4.089   1.159  16.230  0.4673  0.4940  0.4530
19837TIP3    H181002   4.008   1.201  16.201 -0.2583 -0.2783  1.2873
19837TIP3    H281003   4.145   1.158  16.152 -0.8685 -0.2479 -0.5415
19838TIP3   OH281004   6.078   3.089  16.065 -0.4485  0.0860  0.4596
19838TIP3    H181005   6.052   3.153  16.131  0.7079  2.1578 -0.9766
19838TIP3    H281006   6.173   3.102  16.055 -0.2219 -1.6602 -0.1174
19839TIP3   OH281007   1.325   3.226   5.376  0.2997  0.4742 -0.4543
19839TIP3    H181008   1.326   3.226   5.280 -1.7530 -0.5244 -0.5277
19839TIP3    H281009   1.252   3.168   5.399  1.2781  0.0115  1.7351
19840TIP3   OH281010   1.206   6.014  15.743 -0.7152  0.0547 -0.5397
19840TIP3    H181011   1.293   5.990  15.775 -0.6760  0.4453 -0.3418
19840TIP3    H281012   1.205   6.109  15.746 -1.0430  0.0628 -0.8366
19841TIP3   OH281013   2.884   0.719  16.456 -0.7280 -0.4202 -0.6839
19841TIP3    H181014   2.843   0.653  16.399  0.0967 -0.6847 -0.9835
19841TIP3    H281015   2.972   0.730  16.420 -0.1730 -0.6242  0.5622
19842TIP3   OH281016   6.599   3.634  15.948 -0.0490  0.1871  0.3663
19842TIP3    H181017   6.601   3.706  15.885 -0.2494  0.2451  0.4248
19842TIP3    H281018   6.691   3.611  15.961  0.0379  0.6555  0.6018
19843TIP3   OH281019   5.824   4.884   4.328  0.5097 -1.2884 -0.2554
19843TIP3    H181020   5.780   4.957   4.370 -0.1129 -0.8823 -1.5487
19843TIP3    H281021   5.914   4.888   4.360  0.5848  0.3010 -0.5881
19844TIP3   OH281022   2.940   3.638  12.947 -0.1608 -0.6945  0.0456
19844TIP3    H181023   3.010   3.608  12.889  0.0098  1.1745 -0.8071
19844TIP3    H281024   2.859   3.617  12.900 -0.0764 -0.6394 -0.1276
19845TIP3   OH281025   1.838   1.388  15.252  0.2838  0.3957 -0.0246
19845TIP3    H181026   1.857   1.429  15.336 -2.8916  1.3112  0.3757
19845TIP3    H281027   1.828   1.461  15.191 -3.3474  0.2619  0.2299
19846TIP3   OH281028   5.927   6.259  11.595 -0.0820 -0.4119 -0.0517
19846TIP3    H181029   5.974   6.341  11.611 -1.4714  0.6695 -1.1297
19846TIP3    H281030   5.917   6.219  11.681 -1.3335  1.7017  0.8586
19847TIP3   OH281031   0.861   5.803   4.760 -0.0671 -0.4162  0.4897
19847TIP3    H181032   0.872   5.729   4.700 -0.8551  0.4098 -0.7504
19847TIP3    H281033   0.827   5.873   4.704  0.9734  0.9917  1.5526
19848TIP3   OH281034   3.642   1.852  14.892 -0.8866 -0.6213 -0.1030
19848TIP3    H181035   3.668   1.933  14.848 -1.6503  0.2773  1.0409
19848TIP3    H281036   3.648   1.785  14.824  1.5948  0.0175 -0.6357
19849TIP3   OH281037   3.308   0.416  14.783  0.1099  0.9888  0.5830
19849TIP3    H181038   3.397   0.454  14.782  0.2985  0.5632 -0.6822
19849TIP3    H281039   3.314   0.342  14.844  0.3618  1.5440  1.2438
19850TIP3   OH281040   3.180   3.002   1.609  0.0673 -0.0016 -0.5283
19850TIP3    H181041   3.221   2.975   1.691 -0.5399 -0.4116 -0.3473
19850TIP3    H281042   3.143   3.088   1.627 -1.6080 -0.8245  0.2075
19851TIP3   OH281043   2.228   6.526   3.506 -0.6080  0.2105  0.0667
19851TIP3    H181044   2.155   6.532   3.568 -0.8743 -0.2354 -0.2036
19851TIP3    H281045   2.290   6.466   3.547 -0.5988  0.2363  0.0908
19852TIP3   OH281046   0.348   5.583   5.521  0.4852 -0.0423 -0.0386
19852TIP3    H181047   0.393   5.544   5.446 -0.4041 -3.7254  1.1465
19852TIP3    H281048   0.417   5.606   5.582  1.1385  2.0050 -1.4246
19853TIP3   OH281049   1.813   2.402   0.917 -0.1765 -0.5166 -0.7690
19853TIP3    H181050   1.889   2.364   0.960 -1.7119 -1.5689  1.1602
19853TIP3    H281051   1.785   2.336   0.854 -1.6237 -1.7891  1.1323
19854TIP3   OH281052   3.237   1.857   0.234  0.2924 -0.3759  0.4676
19854TIP3    H181053   3.200   1.771   0.214  0.3893 -0.3822  0.3191
19854TIP3    H281054   3.172   1.919   0.202  0.8705 -0.3649 -0.7256
19855TIP3   OH281055   3.524   6.797   5.283 -0.1788 -0.5332  0.2807
19855TIP3    H181056   3.587   6.764   5.348  0.3472 -1.6898 -0.7880
19855TIP3    H281057   3.573   6.861   5.233  0.2856 -1.6719 -0.7657
19856TIP3   OH281058   1.066   2.490  11.741 -0.4998  0.1813 -0.0067
19856TIP3    H181059   1.047   2.428  11.671 -0.9434  1.6984 -1.2853
19856TIP3    H281060   1.018   2.569  11.717 -0.3191  0.8903  1.8022
19857TIP3   OH281061   1.697   6.282   4.423 -0.0017  0.4052  0.0979
19857TIP3    H181062   1.738   6.367   4.439  0.7767  0.5874 -2.4374
19857TIP3    H281063   1.626   6.277   4.487  0.7204  2.3943  1.1295
19858TIP3   OH281064   2.413   1.513   0.349  0.5536 -0.2389 -0.1613
19858TIP3    H181065   2.347   1.545   0.410  0.7482  2.1750 -1.1156
19858TIP3    H281066   2.372   1.518   0.263  1.6063  0.2737 -0.6575
19859TIP3   OH281067   1.889   1.878  10.683 -0.0363  0.2601 -0.1245
19859TIP3    H181068   1.945   1.819  10.733 -1.0241  0.3235  1.1217
19859TIP3    H281069   1.945   1.952  10.661  0.4881  0.1301  0.7225
19860TIP3   OH281070   3.572   4.756  12.090 -0.1890  0.2339  0.4026
19860TIP3    H181071   3.588   4.850  12.096 -1.9613  0.8341 -2.3025
19860TIP3    H281072   3.644   4.722  12.037 -1.2841  0.7427 -1.4922
19861TIP3   OH281073   6.101   6.097  13.555 -0.3849  0.1199  0.5565
19861TIP3    H181074   6.141   6.114  13.640  1.6446  0.9491 -0.5184
19861TIP3    H281075   6.023   6.153  13.554 -0.4722  0.0551  1.8656
19862TIP3   OH281076   2.591   1.231  14.118 -0.1944 -0.1452 -0.5958
19862TIP3    H181077   2.618   1.318  14.150 -2.0034  0.0237  0.6157
19862TIP3    H281078   2.630   1.170  14.181 -1.8893  0.0535  0.7141
19863TIP3   OH281079   2.323   0.708  12.360  0.0345 -0.0714  0.0518
19863TIP3    H181080   2.413   0.709  12.394 -0.0651  0.4844  0.3019
19863TIP3    H281081   2.319   0.783  12.301 -0.7958  1.0022  1.4387
19864TIP3   OH281082   3.241   1.069   4.391  0.2078 -0.4611 -0.1148
19864TIP3    H181083   3.162   1.040   4.345  1.4096 -1.1238 -1.9241
19864TIP3    H281084   3.220   1.061   4.484 -0.7888 -3.8266 -0.4832
19865TIP3   OH281085   0.615   1.253  16.787 -0.4161  0.4128  0.8202
19865TIP3    H181086   0.627   1.326  16.727 -0.1090 -0.0795  0.2707
19865TIP3    H281087   0.666   1.277  16.865  0.9895  0.0823  0.0268
19866TIP3   OH281088   6.492   6.655   3.248 -0.3293  0.2076 -0.9921
19866TIP3    H181089   6.449   6.639   3.332 -0.1840 -0.9620 -1.1200
19866TIP3    H281090   6.439   6.722   3.206 -0.5273  0.6538 -0.0697
19867TIP3   OH281091   3.817   4.453   4.080 -0.3731  0.1713 -0.0934
19867TIP3    H181092   3.898   4.404   4.067 -0.4914  0.1317 -0.6876
19867TIP3    H281093   3.773   4.407   4.152 -0.2737 -0.3200 -0.3436
19868TIP3   OH281094   6.536   5.655   4.337  0.2598  0.3159 -0.2360
19868TIP3    H181095   6.597   5.617   4.400 -0.5671 -0.7988 -0.0764
19868TIP3    H281096   6.463   5.594   4.334 -0.1743  0.8483 -1.5414
19869TIP3   OH281097   2.312   4.601  12.554 -0.2896  0.6420  0.4801
19869TIP3    H181098   2.226   4.638  12.576 -1.1075 -0.5103 -0.6572
19869TIP3    H281099   2.304   4.508  12.575 -0.0620  0.1061 -1.6015
19870TIP3   OH281100   4.510   6.078   5.167  0.4826  0.4502 -0.2203
19870TIP3    H181101   4.495   6.151   5.227  0.8121  0.4713 -0.1574
19870TIP3    H281102   4.551   6.011   5.222  3.2856  1.4303 -0.9135
19871TIP3   OH281103   5.827   1.621  13.296  0.3537 -0.3958 -0.3327
19871TIP3    H181104   5.820   1.536  13.338 -0.0458  0.4318  1.3591
19871TIP3    H281105   5.774   1.679  13.350  0.9139  1.0091 -1.2372
19872TIP3   OH281106   2.547   4.309  12.478 -0.1503  0.0304 -0.3474
19872TIP3    H181107   2.622   4.327  12.535 -0.3549 -0.9247  0.2446
19872TIP3    H281108   2.508   4.395  12.463 -0.5601  0.2520  1.6314
19873TIP3   OH281109   0.148   5.453   2.078 -0.2148 -0.1771  0.1246
19873TIP3    H181110   0.171   5.504   2.156 -1.4889  2.1176 -0.8888
19873TIP3    H281111   0.119   5.369   2.113 -0.1334  0.5450  2.0887
19874TIP3   OH281112   1.022   1.305  16.705 -0.4595  0.2281  0.2786
19874TIP3    H181113   0.972   1.224  16.710 -0.2898  0.2308  3.0438
19874TIP3    H281114   1.113   1.279  16.717 -0.5561  0.8968  3.2449
19875TIP3   OH281115   5.822   2.823   2.542  0.1368 -0.3503 -0.0360
19875TIP3    H181116   5.785   2.754   2.487  0.9151  1.6285 -3.2871
19875TIP3    H281117   5.760   2.896   2.533  1.5615  0.8603 -0.3776
19876TIP3   OH281118   4.291   2.678   5.943  0.0279 -0.0617  0.2662
19876TIP3    H181119   4.361   2.743   5.954  1.2153 -0.3951 -3.7827
19876TIP3    H281120   4.331   2.595   5.971  0.4477  0.0869  0.1061
19877TIP3   OH281121   1.443   3.886   4.010 -0.0077  0.5428 -0.3396
19877TIP3    H181122   1.455   3.922   4.098 -3.7937 -0.2856  0.7135
19877TIP3    H281123   1.387   3.950   3.966 -1.4912 -0.9015 -0.6598
19878TIP3   OH281124   4.138   2.844   4.891  0.2171 -0.2687 -0.0708
19878TIP3    H181125   4.049   2.831   4.859 -0.2603 -0.3776  1.2161
19878TIP3    H281126   4.134   2.926   4.940  1.0164  0.1076 -0.6098
19879TIP3   OH281127   4.364   3.280  11.711  0.0594  0.4153 -0.6004
19879TIP3    H181128   4.398   3.278  11.801 -1.7732 -2.0915  0.1478
19879TIP3    H281129   4.376   3.191  11.679 -1.8570  0.5511 -1.8220
19880TIP3   OH281130   0.606   2.065  15.530  0.1127 -0.2021  0.1116
19880TIP3    H181131   0.533   2.016  15.491  0.7672 -2.0548  1.0899
19880TIP3    H281132   0.683   2.035  15.481  0.8183 -1.8701  2.1126
19881TIP3   OH281133   1.642   3.274   3.693 -0.4146 -0.0624 -0.6699
19881TIP3    H181134   1.629   3.369   3.685 -1.0137 -0.0167  0.6039
19881TIP3    H281135   1.658   3.244   3.603  0.7988  1.3806 -0.9837
19882TIP3   OH281136   2.784   3.585  12.719  0.2139  0.1589  0.5041
19882TIP3    H181137   2.847   3.590  12.647 -1.2486  0.8808 -0.7830
19882TIP3    H281138   2.699   3.589  12.676 -0.7264  2.2944  2.3835
19883TIP3   OH281139   0.133   2.097  14.626 -0.0049  0.3098 -0.0613
19883TIP3    H181140   0.123   2.140  14.541  0.6110 -0.9236 -0.7942
19883TIP3    H281141   0.085   2.153  14.687 -1.1703  0.7920 -1.3585
19884TIP3   OH281142   2.861   5.532   5.643  0.3391 -0.3383  0.2159
19884TIP3    H181143   2.863   5.534   5.547  1.2535 -0.9399  0.2137
19884TIP3    H281144   2.797   5.600   5.667  1.8243  1.4905 -0.7462
19885TIP3   OH281145   5.009   6.355   2.082 -0.3593  0.1010 -0.5760
19885TIP3    H181146   5.046   6.267   2.086 -1.5455 -0.4268 -0.6466
19885TIP3    H281147   5.050   6.395   2.006 -0.9811 -0.9813 -1.5197
19886TIP3   OH281148   4.891   0.573   4.557  0.3309  0.3510  0.0890
19886TIP3    H181149   4.934   0.657   4.543  1.0710  0.0402  0.4154
19886TIP3    H281150   4.860   0.547   4.471 -0.3366  1.1772  0.0667
19887TIP3   OH281151   4.570   5.265  11.943  0.0699 -0.5640  0.6237
19887TIP3    H181152   4.505   5.208  11.902 -1.0144 -0.0394  1.5847
19887TIP3    H281153   4.652   5.244  11.897 -0.9250 -0.5497 -1.2662
19888TIP3   OH281154   4.476   2.306   2.568  0.4727  0.0710 -0.1076
19888TIP3    H181155   4.492   2.275   2.479 -1.3103  0.4874 -0.6104
19888TIP3    H281156   4.508   2.396   2.569  0.6622  0.0038 -0.2725
19889TIP3   OH281157   0.990   1.867   0.234  0.6317  0.1390 -0.0513
19889TIP3    H181158   0.958   1.781   0.261  2.7546 -0.7681 -0.2187
19889TIP3    H281159   1.041   1.898   0.309  0.7881  0.7564 -0.4077
19890TIP3   OH281160   1.678   5.834  11.014 -0.1441 -0.1999 -0.6438
19890TIP3    H181161   1.681   5.902  10.947  1.2808 -1.5222 -2.0030
19890TIP3    H281162   1.702   5.754  10.968 -1.6170 -1.6236  0.9310
19891TIP3   OH281163   3.579   1.024  16.955 -0.0766  0.2642  0.3010
19891TIP3    H181164   3.554   0.951  17.011 -3.0017  1.5906  0.9000
19891TIP3    H281165   3.616   1.090  17.014  1.3813 -0.1771 -0.0686
19892TIP3   OH281166   0.452   6.713  12.668  0.0796 -0.1576 -0.3595
19892TIP3    H181167   0.479   6.722  12.759 -0.3447 -1.7308 -0.0420
19892TIP3    H281168   0.361   6.742  12.666 -0.1674 -0.8804 -0.0888
19893TIP3   OH281169   3.995   6.365  13.379  0.3385 -0.8544  0.0232
19893TIP3    H181170   3.990   6.360  13.474 -2.1488  0.5654  0.0398
19893TIP3    H281171   4.064   6.430  13.362  0.8630 -1.1933  0.8155
19894TIP3   OH281172   1.972   1.123  11.749  0.1851 -0.3444  0.6044
19894TIP3    H181173   2.003   1.045  11.795  0.6015 -0.2967  0.4100
19894TIP3    H281174   2.041   1.143  11.686 -0.5739 -0.6637 -0.3582
19895TIP3   OH281175   2.382   2.408   0.765  0.4465  1.0757 -0.0379
19895TIP3    H181176   2.475   2.402   0.745  0.2261 -0.2285 -0.7884
19895TIP3    H281177   2.360   2.500   0.751  1.4377  1.2286 -0.6972
19896TIP3   OH281178   5.361   4.958  14.653 -0.4801  0.5220  0.4478
19896TIP3    H181179   5.372   4.957  14.557  0.6394  1.4520  0.5421
19896TIP3    H281180   5.410   4.882  14.683  0.5693  1.1556  0.3857
19897TIP3   OH281181   3.874   1.198   6.647  0.4066 -0.2479  0.0036
19897TIP3    H181182   3.957   1.245   6.660 -0.6821  1.2940  2.1326
19897TIP3    H281183   3.878   1.125   6.708  1.3172 -1.9289 -1.9641
19898TIP3   OH281184   4.702   2.234   0.364 -0.0986 -0.2750  0.0107
19898TIP3    H181185   4.723   2.327   0.369  0.1905 -0.2581 -1.2118
19898TIP3    H281186   4.787   2.191   0.354 -0.3390 -0.5210 -1.0877
19899TIP3   OH281187   1.257   5.391   3.075  0.0794  0.0868  0.5016
19899TIP3    H181188   1.243   5.485   3.067  0.4579  0.1903  1.0016
19899TIP3    H281189   1.200   5.352   3.008  0.1239  0.6810  0.1152
19900TIP3   OH281190   4.574   0.981   3.680  0.5195 -0.1074 -0.6068
19900TIP3    H181191   4.528   1.011   3.758  1.2508  1.5691 -0.7765
19900TIP3    H281192   4.509   0.990   3.610  0.1927 -0.5971 -0.3701
19901TIP3   OH281193   4.402   0.745  15.594  0.1230  0.1770 -0.5548
19901TIP3    H181194   4.427   0.837  15.590  1.4371 -0.1192  0.3102
19901TIP3    H281195   4.431   0.708  15.511 -0.4837  0.5429 -0.9398
19902TIP3   OH281196   1.487   1.290  13.778  0.5920  0.1607  0.3591
19902TIP3    H181197   1.419   1.270  13.712  1.1465 -1.4302  0.2137
19902TIP3    H281198   1.460   1.373  13.816  0.9933  1.9350 -2.8671
19903TIP3   OH281199   3.388   6.263   1.841  0.1629 -0.1713  0.8402
19903TIP3    H181200   3.313   6.213   1.874  1.0724 -0.6917  2.2104
19903TIP3    H281201   3.406   6.225   1.755 -1.9137  0.8291 -0.1121
19904TIP3   OH281202   4.502   2.493   4.609  0.0754 -0.6728 -0.1547
19904TIP3    H181203   4.432   2.428   4.620 -0.1656 -0.2802  0.6545
19904TIP3    H281204   4.463   2.560   4.552  0.1763 -1.0113 -0.6285
19905TIP3   OH281205   3.661   0.039   4.947 -0.1862  0.2311  0.4948
19905TIP3    H181206   3.753   0.063   4.936 -0.2804  0.6886  0.6476
19905TIP3    H281207   3.642  -0.021   4.875  0.2019  0.2239  0.3990
19906TIP3   OH281208   2.458   5.736   1.493  0.3788 -0.0253  0.2484
19906TIP3    H181209   2.521   5.727   1.422  0.2851 -0.0126  0.1628
19906TIP3    H281210   2.504   5.786   1.560  0.1010  0.9252 -0.2538
19907TIP3   OH281211   1.817   5.762   1.275  0.0059 -0.2975 -0.5200
19907TIP3    H181212   1.837   5.703   1.348 -0.4412 -0.1998 -0.3167
19907TIP3    H281213   1.902   5.796   1.248  0.0730  0.5799  0.7208
19908TIP3   OH281214   5.564   2.195   3.325  0.1442 -0.2155  0.3597
19908TIP3    H181215   5.604   2.177   3.239  1.6855  1.6049  0.6224
19908TIP3    H281216   5.497   2.262   3.306 -0.4988 -0.8328  0.4049
19909TIP3   OH281217   3.912   0.886  11.879  0.0966  0.2055  0.1209
19909TIP3    H181218   3.827   0.841  11.882 -0.0547  0.4887  0.1553
19909TIP3    H281219   3.966   0.832  11.821 -1.1777  1.8429 -2.7777
19910TIP3   OH281220   4.512   2.715  15.898 -1.1954  0.0401 -0.5516
19910TIP3    H181221   4.485   2.803  15.873 -0.8110  0.0459 -0.9618
19910TIP3    H281222   4.568   2.685  15.827  2.5256  1.2383  1.5906
19911TIP3   OH281223   0.091   6.167   1.934 -0.2372  0.0310  0.0443
19911TIP3    H181224   0.164   6.197   1.987  0.6841 -0.8629 -0.6807
19911TIP3    H281225   0.126   6.092   1.885 -1.8397 -0.8977  0.2345
19912TIP3   OH281226   3.053   3.303  15.307 -0.1696 -0.1043 -0.1752
19912TIP3    H181227   3.055   3.241  15.234 -0.1705 -0.6978  0.3178
19912TIP3    H281228   2.961   3.307  15.332 -0.1526 -0.0003 -0.1295
19913TIP3   OH281229   5.159   4.205  14.423 -0.5459 -0.0537 -0.5760
19913TIP3    H181230   5.237   4.187  14.475 -0.4894 -2.0355 -1.2563
19913TIP3    H281231   5.086   4.174  14.477 -0.7937  0.8463 -0.3709
19914TIP3   OH281232   5.454   3.509  16.452  0.0805  0.4899  0.2224
19914TIP3    H181233   5.517   3.493  16.382  0.6377  1.0326  0.5959
19914TIP3    H281234   5.416   3.423  16.470 -0.5828  0.4531 -1.2241
19915TIP3   OH281235   3.335   2.302   3.352  0.2246  0.2438  0.1468
19915TIP3    H181236   3.263   2.357   3.383  0.1239 -0.3529  1.0082
19915TIP3    H281237   3.408   2.362   3.340  0.1900  0.5466  1.3241
19916TIP3   OH281238   4.366   4.085   3.843  0.0189  0.0058 -0.9974
19916TIP3    H181239   4.339   4.003   3.802  0.4509 -0.1141 -1.0452
19916TIP3    H281240   4.411   4.059   3.923 -0.4061  0.2243 -0.6754
19917TIP3   OH281241   2.118   6.285   3.342  0.4162 -0.6321 -0.0641
19917TIP3    H181242   2.158   6.244   3.418 -2.4142 -2.5168  0.5649
19917TIP3    H281243   2.164   6.248   3.267  0.0585 -2.5858  0.6192
19918TIP3   OH281244   4.076   3.060   4.191 -0.5817 -0.1195  0.1688
19918TIP3    H181245   4.113   3.039   4.277 -1.6945 -0.8087  0.5002
19918TIP3    H281246   3.989   3.019   4.191 -0.7757  0.2316 -1.1248
19919TIP3   OH281247   4.650   0.518   3.793 -0.3497 -0.2035  0.2428
19919TIP3    H181248   4.721   0.495   3.733 -0.9578 -0.7677 -0.2705
19919TIP3    H281249   4.610   0.435   3.816 -0.8899  0.1172  0.4674
19920TIP3   OH281250   3.478   5.374  16.473 -0.1576 -0.6588 -0.2514
19920TIP3    H181251   3.405   5.376  16.411 -1.0122 -0.6642  0.7240
19920TIP3    H281252   3.497   5.281  16.485 -0.0621 -0.6610 -0.4166
19921TIP3   OH281253   0.759   1.991  11.553  0.1493  0.3268  0.6582
19921TIP3    H181254   0.777   1.901  11.579  0.1574 -0.4601 -1.8494
19921TIP3    H281255   0.699   2.024  11.621 -0.0011 -1.5921  1.5296
19922TIP3   OH281256   2.550   4.100  14.991  0.0505  0.1005 -0.2153
19922TIP3    H181257   2.479   4.082  15.052  1.1121 -1.6644  0.5806
19922TIP3    H281258   2.611   4.155  15.040  0.2578 -0.1967 -0.1354
19923TIP3   OH281259   5.154   1.806   1.445  0.2068  0.3343 -0.1931
19923TIP3    H181260   5.237   1.762   1.424  0.6259  0.5086  1.0005
19923TIP3    H281261   5.092   1.734   1.459  1.2889 -0.0728  3.4149
19924TIP3   OH281262   1.569   5.166  16.141  0.2932  0.4189  0.3228
19924TIP3    H181263   1.642   5.142  16.197 -0.1500  0.7904  1.0666
19924TIP3    H281264   1.492   5.157  16.196 -0.2915 -0.4920 -0.6113
19925TIP3   OH281265   6.261   3.068  16.315  0.2570 -0.2591 -0.8203
19925TIP3    H181266   6.199   3.044  16.384  0.1524 -0.7609 -1.0846
19925TIP3    H281267   6.219   3.141  16.269  0.9667  1.0812  0.5482
19926TIP3   OH281268   6.484   4.548   2.474 -0.6647 -0.2191  0.0888
19926TIP3    H181269   6.497   4.454   2.481 -0.3587 -0.2836 -1.1605
19926TIP3    H281270   6.402   4.558   2.427 -0.3408  0.1303 -0.4106
19927TIP3   OH281271   4.923   0.584   1.546  0.0801 -0.0068 -0.1136
19927TIP3    H181272   4.900   0.666   1.588 -1.8126 -0.3157 -0.4629
19927TIP3    H281273   4.868   0.518   1.589 -0.8128 -0.5592 -1.9560
19928TIP3   OH281274   1.975   4.454   1.979  0.3013 -0.7820 -0.5480
19928TIP3    H181275   1.973   4.423   1.889  1.6854 -0.8792 -0.5675
19928TIP3    H281276   2.039   4.398   2.023  1.7020  1.0038 -0.1975
19929TIP3   OH281277   3.054   0.570   6.008  0.0577  0.4982  0.4520
19929TIP3    H181278   3.054   0.505   6.078 -2.7302 -0.3263 -0.2038
19929TIP3    H281279   3.053   0.654   6.053 -1.6863 -0.0186  1.4515
19930TIP3   OH281280   5.439   6.439   0.754  0.3834 -0.3883  0.4006
19930TIP3    H181281   5.534   6.450   0.753  0.7420 -2.7346  1.6547
19930TIP3    H281282   5.426   6.345   0.764 -2.1223 -0.3422 -1.6215
19931TIP3   OH281283   1.250   5.941   3.297 -0.0656 -0.0366 -0.2375
19931TIP3    H181284   1.340   5.912   3.311 -0.7114 -1.0966  2.1488
19931TIP3    H281285   1.253   6.036   3.305  0.8425 -0.0584 -0.2678
19932TIP3   OH281286   1.902   6.206  12.201 -0.1214  0.1620  0.2830
19932TIP3    H181287   1.934   6.200  12.291  3.3745 -2.2262 -0.9162
19932TIP3    H281288   1.848   6.127  12.190  0.5125 -0.2284 -0.0556
19933TIP3   OH281289   4.027   2.170   5.319 -0.0178  0.1431 -0.1530
19933TIP3    H181290   4.076   2.252   5.322 -1.6686  1.1388  0.2906
19933TIP3    H281291   3.946   2.188   5.366 -0.9435 -1.3926 -1.0758
19934TIP3   OH281292   3.713   1.186   0.671 -0.0546 -0.4236  0.4834
19934TIP3    H181293   3.727   1.221   0.583 -0.6599  1.2519  1.0057
19934TIP3    H281294   3.745   1.255   0.729  1.8997 -2.1844  1.6208
19935TIP3   OH281295   2.834   0.004   1.237  0.7068 -0.1668  0.3996
19935TIP3    H181296   2.859  -0.084   1.211  1.5839  0.4519 -0.9932
19935TIP3    H281297   2.771   0.032   1.171 -1.6412 -0.6415  2.2802
19936TIP3   OH281298   2.935   4.215  13.980 -0.1732  0.0539 -0.2585
19936TIP3    H181299   2.981   4.265  14.048  0.2146 -0.3504 -0.2161
19936TIP3    H281300   2.982   4.132  13.976 -1.6415 -0.8374  0.6065
19937TIP3   OH281301   0.322   2.271   1.396 -0.2471 -0.1891 -0.5166
19937TIP3    H181302   0.360   2.328   1.462 -0.2527 -1.0193  0.2125
19937TIP3    H281303   0.230   2.262   1.422 -0.3371 -0.2307 -0.8419
19938TIP3   OH281304   0.604   1.202   5.920  0.2751  0.3660 -0.0587
19938TIP3    H181305   0.680   1.251   5.889  0.6736 -0.3303 -0.2023
19938TIP3    H281306   0.573   1.155   5.843 -1.4651  2.0730 -0.4929
19939TIP3   OH281307   6.643   5.753   0.929  0.0335  0.3452 -0.0882
19939TIP3    H181308   6.605   5.786   0.847 -1.0116 -3.2869 -1.2683
19939TIP3    H281309   6.692   5.827   0.964  0.3387  2.1829 -3.8594
19940TIP3   OH281310   3.726   0.919   4.815  0.2237 -0.3509 -0.4055
19940TIP3    H181311   3.637   0.947   4.797  0.3046 -0.0581 -0.3509
19940TIP3    H281312   3.778   0.999   4.812  0.1398 -0.1222  1.9118
19941TIP3   OH281313   3.965   2.069   2.747  0.1493  0.1659 -0.7803
19941TIP3    H181314   3.911   2.124   2.803 -0.5029 -1.9214  0.7719
19941TIP3    H281315   4.003   2.004   2.806 -1.0437 -2.5200 -2.7501
19942TIP3   OH281316   4.246   1.498  14.338  0.2546  0.0979  0.0930
19942TIP3    H181317   4.255   1.557  14.263  2.4101  1.1787  1.1149
19942TIP3    H281318   4.309   1.428  14.322  0.0806 -0.1473  0.4605
19943TIP3   OH281319   3.143   6.527   1.618 -0.1376  0.0029  0.3814
19943TIP3    H181320   3.237   6.545   1.609 -0.4896  1.4948 -0.5929
19943TIP3    H281321   3.115   6.502   1.530 -0.6075 -0.7186  0.7318
19944TIP3   OH281322   2.079   3.025   4.426 -0.4832  0.0760 -0.0334
19944TIP3    H181323   2.086   2.996   4.335  1.4444  1.9339 -0.5543
19944TIP3    H281324   2.031   3.108   4.421 -1.0402 -0.1849  0.7588
19945TIP3   OH281325   5.492   3.310   3.730  0.1403 -0.1219 -0.4956
19945TIP3    H181326   5.398   3.302   3.712  0.3550 -0.2436 -1.6757
19945TIP3    H281327   5.511   3.403   3.713  0.2683 -0.1427 -0.4622
19946TIP3   OH281328   1.104   0.742  13.388 -0.3360  0.1867 -0.0494
19946TIP3    H181329   1.096   0.669  13.326  0.9827  0.8423 -1.0482
19946TIP3    H281330   1.132   0.701  13.470 -0.9073 -0.5612 -0.2138
19947TIP3   OH281331   1.106   6.081  15.246  0.0988 -0.6875 -0.1317
19947TIP3    H181332   1.090   6.151  15.184 -0.7725 -1.1802 -0.4680
19947TIP3    H281333   1.132   6.126  15.327 -2.1501  0.1248  0.1988
19948TIP3   OH281334   1.449   0.932  13.820  0.3669  0.0697 -0.3278
19948TIP3    H181335   1.454   0.841  13.848  0.7012  0.3224  0.4385
19948TIP3    H281336   1.535   0.952  13.785 -0.3701 -0.5928 -2.6976
19949TIP3   OH281337   3.536   6.552   0.284 -0.4036  0.0868 -0.0061
19949TIP3    H181338   3.526   6.562   0.378 -0.1565  1.9955 -0.1282
19949TIP3    H281339   3.518   6.640   0.249  0.0705 -0.4404 -1.6857
19950TIP3   OH281340   2.082   0.591  12.389  0.7615  0.4334 -0.3684
19950TIP3    H181341   2.081   0.558  12.479 -0.2655  2.2707  0.3452
19950TIP3    H281342   2.167   0.632  12.379  0.2942  1.6168  0.3365
19951TIP3   OH281343   1.077   1.432   0.899  0.0739  0.1541 -0.2594
19951TIP3    H181344   1.156   1.416   0.848  0.0001 -0.1164 -0.2930
19951TIP3    H281345   1.092   1.388   0.982 -0.2311 -0.3073 -0.4428
19952TIP3   OH281346   1.205   6.347  10.891 -0.5811 -0.4171  0.5717
19952TIP3    H181347   1.245   6.283  10.832  2.1566  0.7266  1.0185
19952TIP3    H281348   1.196   6.426  10.837 -1.9547 -0.5310  0.6005
19953TIP3   OH281349   4.153   2.697  16.358 -0.2312 -0.4935 -0.1452
19953TIP3    H181350   4.099   2.770  16.387 -0.8939 -1.3729  0.9305
19953TIP3    H281351   4.095   2.645  16.302 -0.0684 -0.7192 -0.1056
19954TIP3   OH281352   6.194   4.446  14.010  0.3511  0.2583  0.2957
19954TIP3    H181353   6.191   4.542  14.008  0.6040  0.2569 -1.1027
19954TIP3    H281354   6.253   4.425  14.081 -1.1133  1.0925  1.8251
19955TIP3   OH281355   5.686   3.850  12.728 -0.0728  0.0825 -0.3706
19955TIP3    H181356   5.771   3.859  12.771  0.5376  0.8269 -1.6861
19955TIP3    H281357   5.697   3.778  12.666 -0.9341 -0.9581  0.6434
19956TIP3   OH281358   4.832   6.645   4.866 -0.0870 -0.4301 -0.6736
19956TIP3    H181359   4.902   6.685   4.815 -1.1410  1.2376 -0.8729
19956TIP3    H281360   4.785   6.718   4.905 -0.4018 -1.5963  1.2805
19957TIP3   OH281361   3.346   6.262  10.651 -0.1644 -0.1914 -0.3900
19957TIP3    H181362   3.396   6.343  10.639 -0.2292 -0.1977 -0.7133
19957TIP3    H281363   3.330   6.230  10.562  0.4617 -0.9293 -0.2491
19958TIP3   OH281364   4.735   4.891   2.883 -0.6980  0.0806  0.0420
19958TIP3    H181365   4.810   4.832   2.890  0.9327  1.7844 -1.7291
19958TIP3    H281366   4.715   4.894   2.789 -1.0922  1.8382  0.1377
19959TIP3   OH281367   3.610   3.499  16.645  0.1845  0.0408  0.5391
19959TIP3    H181368   3.601   3.507  16.550  2.0623  0.0352  0.3253
19959TIP3    H281369   3.606   3.589  16.678  2.6121  0.3729  0.0912
19960TIP3   OH281370   1.507   3.742  11.613  0.4879  0.3070  0.5967
19960TIP3    H181371   1.544   3.818  11.567  1.8397 -1.3415 -1.2445
19960TIP3    H281372   1.412   3.749  11.598  0.5695  1.6624  0.5636
19961TIP3   OH281373   0.286   4.475   0.010 -0.1251  0.0068 -0.2919
19961TIP3    H181374   0.324   4.490   0.096  0.0882  1.6325 -0.6429
19961TIP3    H281375   0.293   4.380  -0.003 -0.5322 -0.3247  1.6240
19962TIP3   OH281376   6.652   6.507  10.999  0.5733  0.3370  0.7145
19962TIP3    H181377   6.598   6.554  10.935 -0.6145  1.8374  2.6700
19962TIP3    H281378   6.616   6.418  10.999 -0.5190  0.7565  0.4677
19963TIP3   OH281379   1.020   6.552  10.917 -0.4649  0.3938  0.1724
19963TIP3    H181380   0.936   6.581  10.881 -0.1240  1.6293  0.3609
19963TIP3    H281381   0.997   6.498  10.992 -1.1301  4.1701  2.9573
19964TIP3   OH281382   4.633   0.419   2.458 -0.1652 -0.0888 -0.1119
19964TIP3    H181383   4.667   0.430   2.369  2.6752  2.4085  1.0753
19964TIP3    H281384   4.644   0.506   2.498 -2.5467 -0.7779  2.3314
19965TIP3   OH281385   4.345   6.224   3.622  0.0161  0.7870  0.6152
19965TIP3    H181386   4.281   6.236   3.552  0.4364 -0.6626 -0.0596
19965TIP3    H281387   4.402   6.301   3.617 -0.1929  0.8827 -0.3922
19966TIP3   OH281388   2.925   0.032   0.392  0.5304 -0.2853  0.3163
19966TIP3    H181389   2.843   0.040   0.343  1.0625 -1.6756 -0.8873
19966TIP3    H281390   2.922   0.103   0.455 -0.5395  1.1234 -1.2361
19967TIP3   OH281391   6.370   6.265   0.770  0.0335 -0.2707 -0.6052
19967TIP3    H181392   6.350   6.195   0.708  0.5980 -0.7101 -0.2951
19967TIP3    H281393   6.463   6.256   0.788 -0.1668 -0.3395  0.5310
19968TIP3   OH281394   1.835   5.821  12.902  0.1412 -0.0903  0.4080
19968TIP3    H181395   1.838   5.741  12.954  1.4468 -0.2309  0.1472
19968TIP3    H281396   1.879   5.799  12.820 -1.3037  0.3201 -0.5062
19969TIP3   OH281397   0.084   6.745   5.589  0.1420 -0.1120 -0.4999
19969TIP3    H181398   0.033   6.752   5.670  1.5507 -0.3370  0.4421
19969TIP3    H281399   0.091   6.651   5.573  0.4673 -0.0930 -0.4781
19970TIP3   OH281400   4.369   0.936  14.582 -0.1471 -0.2660 -0.7287
19970TIP3    H181401   4.341   0.846  14.561 -0.8536  0.5094 -3.5220
19970TIP3    H281402   4.294   0.990  14.560  0.3397  1.0607  0.7494
19971TIP3   OH281403   2.933   5.021   1.657 -0.2066  0.6656  0.2229
19971TIP3    H181404   2.977   4.946   1.696  0.4894  1.0687  0.2212
19971TIP3    H281405   2.933   5.002   1.563 -0.2743  0.5435  0.2469
19972TIP3   OH281406   5.937   0.082  12.004  0.2002 -0.4235  0.8336
19972TIP3    H181407   5.972   0.066  11.917 -0.4551  0.4515  0.3960
19972TIP3    H281408   5.980   0.017  12.060  0.8527 -0.7898 -0.0795
19973TIP3   OH281409   1.511   0.757  14.249 -0.4773 -0.1737  0.0074
19973TIP3    H181410   1.548   0.682  14.296  0.0714 -0.8063 -1.3867
19973TIP3    H281411   1.579   0.781  14.186 -0.5183  1.7103  0.6380
19974TIP3   OH281412   4.837   2.251  13.599  0.0809  0.5273 -0.4037
19974TIP3    H181413   4.757   2.224  13.554  1.9024 -1.5584 -2.6967
19974TIP3    H281414   4.858   2.176  13.656  1.2840  0.2487 -1.1759
19975TIP3   OH281415   1.292   5.189  13.663 -0.3491 -0.1232  0.3333
19975TIP3    H181416   1.197   5.191  13.651 -0.3833 -1.6212  0.1472
19975TIP3    H281417   1.314   5.096  13.665  1.4227  0.1678 -1.9416
19976TIP3   OH281418   6.796   5.157  12.919  0.5076  0.3315  0.5728
19976TIP3    H181419   6.802   5.080  12.975  0.6998  0.7414  1.1153
19976TIP3    H281420   6.807   5.122  12.830 -2.3762 -0.7076  0.5111
19977TIP3   OH281421   5.704   5.955  13.431 -0.4394 -0.1222 -0.1581
19977TIP3    H181422   5.660   6.022  13.379 -1.0230 -0.6982 -0.4225
19977TIP3    H281423   5.669   5.966  13.519 -1.0835 -0.5330 -0.3533
19978TIP3   OH281424   0.886   3.764  13.785 -0.4779 -0.0261  0.2547
19978TIP3    H181425   0.928   3.693  13.834 -0.0140  0.0432 -0.0312
19978TIP3    H281426   0.866   3.830  13.851  1.5175  0.7310  0.1931
19979TIP3   OH281427   3.830   4.769  12.553 -0.7177 -0.0258  0.2010
19979TIP3    H181428   3.751   4.767  12.500 -1.1620  1.7788  0.7011
19979TIP3    H281429   3.833   4.684  12.596 -0.9313 -1.1061 -1.8274
19980TIP3   OH281430   5.749   0.144   6.053  0.5013  0.6132 -0.3212
19980TIP3    H181431   5.727   0.219   6.108  0.3130 -0.7935  1.6396
19980TIP3    H281432   5.840   0.158   6.028  0.2083  1.9044 -0.6992
19981TIP3   OH281433   5.745   3.256  15.408 -0.3401  0.1775  0.0696
19981TIP3    H181434   5.678   3.297  15.353 -0.0772 -0.5457 -0.8124
19981TIP3    H281435   5.818   3.239  15.349  0.1427 -0.1859  0.7507
19982TIP3   OH281436   4.026   1.170   2.596  0.1936 -0.1509 -0.0214
19982TIP3    H181437   4.043   1.093   2.542 -2.1404  0.1037 -1.2781
19982TIP3    H281438   3.952   1.213   2.553 -0.6573  1.0374  2.4316
19983TIP3   OH281439   2.403   6.026   4.734 -0.5641  0.0332 -0.0449
19983TIP3    H181440   2.320   6.025   4.783 -0.4894 -1.2823  0.0888
19983TIP3    H281441   2.454   6.096   4.776 -0.7372 -0.6624  1.3788
19984TIP3   OH281442   0.592   2.831   5.300 -0.5223  0.2146  0.5238
19984TIP3    H181443   0.568   2.894   5.233  0.8800  0.1496 -0.0789
19984TIP3    H281444   0.687   2.825   5.294 -0.6686 -3.1939 -0.6156
19985TIP3   OH281445   4.818   3.183   2.227 -0.1014 -0.1864 -0.4025
19985TIP3    H181446   4.830   3.278   2.234 -2.6737  0.2189 -0.5065
19985TIP3    H281447   4.725   3.169   2.244  0.4360 -2.8583  0.9201
19986TIP3   OH281448   1.824   2.043  15.846  0.7134  0.0685  0.4794
19986TIP3    H181449   1.785   2.121  15.885 -0.8690 -0.3241 -0.2531
19986TIP3    H281450   1.806   1.973  15.909 -0.1847 -0.1992 -0.0606
19987TIP3   OH281451   3.690   3.890   2.671 -0.6154 -0.1448 -0.0589
19987TIP3    H181452   3.685   3.941   2.590  0.5342 -1.2463 -0.8589
19987TIP3    H281453   3.674   3.800   2.644  2.7549 -1.0064  0.3359
19988TIP3   OH281454   0.761   1.890   3.831 -0.0856  0.3490 -0.4741
19988TIP3    H181455   0.728   1.972   3.793 -0.6440  0.2254 -0.2720
19988TIP3    H281456   0.683   1.834   3.836  0.0147  0.2925  0.6865
19989TIP3   OH281457   0.437   2.833  13.701  0.2508  0.1573  0.0204
19989TIP3    H181458   0.450   2.739  13.703 -0.0016 -0.0076 -2.6111
19989TIP3    H281459   0.501   2.865  13.639  2.4363  2.2324  3.0391
19990TIP3   OH281460   4.028   4.273   1.703 -0.7090 -0.7182  0.2183
19990TIP3    H181461   4.001   4.215   1.775  0.3613 -1.5508 -0.0306
19990TIP3    H281462   4.093   4.222   1.655 -1.4417 -0.2018 -1.3807
19991TIP3   OH281463   3.269   3.989  16.313  0.2357  0.3828 -0.3391
19991TIP3    H181464   3.267   4.013  16.220 -0.7763  0.1656 -0.3766
19991TIP3    H281465   3.279   4.073  16.358 -1.8259  0.7910 -0.5432
19992TIP3   OH281466   4.208   0.102   3.321  0.0004 -0.0259 -0.2939
19992TIP3    H181467   4.191   0.184   3.367  0.5260  0.4992 -1.0036
19992TIP3    H281468   4.162   0.035   3.372  2.4528  0.1425  2.3958
19993TIP3   OH281469   5.307   5.200   1.212  0.3611 -0.0021  0.0113
19993TIP3    H181470   5.258   5.224   1.134 -0.5578  0.2732  0.6597
19993TIP3    H281471   5.264   5.248   1.283  1.9144  0.6941  0.5231
19994TIP3   OH281472   6.469   2.446  15.927 -0.2803  0.0170  0.0573
19994TIP3    H181473   6.424   2.369  15.962  0.3983 -0.6876 -0.6084
19994TIP3    H281474   6.510   2.486  16.004 -1.7135  0.4833  0.6241
19995TIP3   OH281475   6.658   5.835  11.635 -0.0016  0.2767 -0.0377
19995TIP3    H181476   6.580   5.848  11.581 -0.0277 -0.7432 -0.2722
19995TIP3    H281477   6.722   5.897  11.599 -0.7675  1.3023  0.3272
19996TIP3   OH281478   3.755   4.883  13.572  0.0077  0.1148 -0.0507
19996TIP3    H181479   3.773   4.958  13.629  0.3683  1.0094 -1.2963
19996TIP3    H281480   3.672   4.905  13.529  0.1585 -0.1432 -0.4875
19997TIP3   OH281481   4.458   1.364  12.302  0.0918  0.1005  0.1818
19997TIP3    H181482   4.529   1.402  12.353  1.7218 -2.6854  0.1598
19997TIP3    H281483   4.412   1.306  12.363 -0.4347 -0.2327 -0.5116
19998TIP3   OH281484   3.349   0.535   3.888 -0.2385 -0.4207  0.8469
19998TIP3    H181485   3.254   0.549   3.882 -0.0397  1.3440  1.3856
19998TIP3    H281486   3.387   0.620   3.866  1.3549 -1.7292 -2.0913
19999TIP3   OH281487   3.187   2.184   0.400 -0.3454  0.0254  1.1586
19999TIP3    H181488   3.282   2.198   0.405 -0.0526  0.1353 -2.3554
19999TIP3    H281489   3.171   2.108   0.456  2.4694 -2.3159 -0.9099
20000TIP3   OH281490   5.609   1.254  12.944  0.0315  0.2142 -0.2620
20000TIP3    H181491   5.572   1.166  12.934  0.7260 -0.3155  1.4846
20000TIP3    H281492   5.703   1.242  12.928  0.6828 -0.0741  3.0841
20001TIP3   OH281493   4.782   1.131   4.301 -0.0723  0.0124 -0.3774
20001TIP3    H181494   4.871   1.110   4.330 -0.2856 -0.5462 -0.0948
20001TIP3    H281495   4.783   1.115   4.207  0.3843  0.9597 -0.5426
20002TIP3   OH281496   5.822   4.474   4.201 -0.1481 -0.5945 -0.3280
20002TIP3    H181497   5.883   4.526   4.254 -0.4577  0.8340 -1.3220
20002TIP3    H281498   5.866   4.465   4.117 -1.7315  1.4737 -1.4589
20003TIP3   OH281499   0.286   6.590  13.434  0.0998  0.5357 -0.4253
20003TIP3    H181500   0.355   6.524  13.431  0.2665  0.7235 -0.7278
20003TIP3    H281501   0.204   6.539  13.437  0.2781  0.2024  3.2589
20004TIP3   OH281502   0.391   0.510  17.107 -0.4393  0.2784  0.2156
20004TIP3    H181503   0.304   0.544  17.130  0.2966  1.6255  1.1717
20004TIP3    H281504   0.441   0.515  17.189  0.3835 -1.0094 -0.1885
20005TIP3   OH281505   6.801   1.689  14.000  0.1195 -0.2599  0.6232
20005TIP3    H181506   6.744   1.737  14.060  1.8496  0.3891  1.8186
20005TIP3    H281507   6.793   1.598  14.028  0.8926  0.0363  1.8593
20006TIP3   OH281508   5.709   0.990  15.297  0.3519  0.0843  0.2810
20006TIP3    H181509   5.741   1.028  15.215  1.7282 -0.6358  0.4600
20006TIP3    H281510   5.684   1.066  15.350  3.9205  0.9354  0.9903
20007TIP3   OH281511   6.228   4.981  16.928  0.0057 -0.2339 -0.1789
20007TIP3    H181512   6.230   4.930  17.009 -1.4689  0.3473  0.2588
20007TIP3    H281513   6.274   4.926  16.864  1.5193 -0.5420  1.1105
20008TIP3   OH281514   3.235   0.185  16.458  1.0436 -0.2137  0.3479
20008TIP3    H181515   3.181   0.172  16.380  0.4748  0.7401  0.5654
20008TIP3    H281516   3.296   0.254  16.434  0.4515  0.5289  0.9434
20009TIP3   OH281517   5.251   3.580   3.894  0.4653 -0.1583 -0.7973
20009TIP3    H181518   5.272   3.649   3.830  1.0015 -0.2821 -0.7628
20009TIP3    H281519   5.315   3.511   3.877  0.8419 -0.0441  0.1002
20010TIP3   OH281520   1.368   6.536   0.814  0.7606  0.4685 -0.6171
20010TIP3    H181521   1.305   6.539   0.742 -1.2193  1.6837  1.0567
20010TIP3    H281522   1.385   6.442   0.827 -1.3935  0.0302 -0.5958
20011TIP3   OH281523   2.827   1.435  11.917  0.0395 -0.4582 -0.9285
20011TIP3    H181524   2.880   1.505  11.956  0.0019 -0.1441 -1.4336
20011TIP3    H281525   2.798   1.471  11.833 -0.9235 -0.6509 -0.6889
20012TIP3   OH281526   5.428   1.366   3.208  0.2252 -0.3465  0.3980
20012TIP3    H181527   5.396   1.427   3.141 -0.7196 -1.0252  0.1966
20012TIP3    H281528   5.491   1.311   3.162 -0.8454 -1.1880 -0.1352
20013TIP3   OH281529   2.325   2.652  14.031 -0.6565 -0.2358  0.0231
20013TIP3    H181530   2.309   2.603  13.950 -0.2111  0.2336 -0.3482
20013TIP3    H281531   2.420   2.659  14.037 -0.7145  1.7786 -0.6638
20014TIP3   OH281532   5.393   1.316   6.114 -0.0784  0.4408  0.2672
20014TIP3    H181533   5.328   1.364   6.062 -0.4386 -0.5888 -0.2544
20014TIP3    H281534   5.381   1.349   6.203 -0.3101  1.3189 -0.0766
20015TIP3   OH281535   6.112   1.438  12.382  0.8495 -0.3639  0.0671
20015TIP3    H181536   6.058   1.475  12.311  1.3524 -0.7323 -0.5170
20015TIP3    H281537   6.131   1.348  12.352  1.4805 -0.3539  0.4393
20016TIP3   OH281538   0.479   3.361  14.960 -0.4984 -0.1354 -0.6170
20016TIP3    H181539   0.525   3.281  14.933 -0.2308 -1.0358  2.1643
20016TIP3    H281540   0.400   3.329  15.005 -1.5321  1.2649 -1.3570
20017TIP3   OH281541   0.880   2.674  13.959  0.0140 -0.2846 -0.3309
20017TIP3    H181542   0.822   2.638  14.026 -0.2778  1.3593  0.3461
20017TIP3    H281543   0.821   2.697  13.887  0.0827 -0.3939 -0.4213
20018TIP3   OH281544   0.199   6.173  15.312  0.2936 -0.4104  0.0492
20018TIP3    H181545   0.129   6.109  15.299 -0.6174  0.4888  0.4176
20018TIP3    H281546   0.157   6.258  15.298  1.0500  0.2022  1.3264
20019TIP3   OH281547   1.485   1.670  10.992  0.2427  1.2362 -0.6948
20019TIP3    H181548   1.436   1.593  10.964  0.3395 -0.7071  3.6285
20019TIP3    H281549   1.556   1.679  10.928 -0.8399 -1.0948 -2.3471
20020TIP3   OH281550   3.689   5.616   1.529 -0.1879  0.1906  0.2377
20020TIP3    H181551   3.619   5.662   1.483  0.9022  0.9291 -0.7636
20020TIP3    H281552   3.686   5.526   1.495  0.1192  0.5380 -0.7474
20021TIP3   OH281553   5.004   0.584  15.333 -0.4909 -0.2329 -0.5804
20021TIP3    H181554   5.032   0.576  15.424  0.9009 -0.1767 -0.9808
20021TIP3    H281555   5.065   0.647  15.295 -1.0004 -0.3261 -1.5729
20022TIP3   OH281556   6.202   6.005  17.078 -0.0629 -0.0712  0.0156
20022TIP3    H181557   6.290   6.006  17.116  0.6027 -2.1290 -1.3301
20022TIP3    H281558   6.148   5.965  17.146  0.6249 -1.4008 -0.1853
20023TIP3   OH281559   6.765   2.573  10.840  0.6007 -0.0936 -0.4200
20023TIP3    H181560   6.756   2.666  10.861 -2.0928 -0.3216 -0.1837
20023TIP3    H281561   6.710   2.561  10.763 -1.8894 -2.0381  1.4877
20024TIP3   OH281562   1.995   4.338  16.701  0.3158 -0.2420  0.2269
20024TIP3    H181563   1.974   4.391  16.625 -0.2776 -0.0828  0.4974
20024TIP3    H281564   1.945   4.257  16.689 -0.4675  0.1289  0.8600
20025TIP3   OH281565   0.296   2.421  13.185 -0.1451 -0.6309 -0.7124
20025TIP3    H181566   0.358   2.433  13.257 -0.9502  0.2655 -0.1517
20025TIP3    H281567   0.277   2.509  13.154 -1.0184 -0.8957 -0.9696
20026TIP3   OH281568   2.493   0.838   0.406 -0.4093 -0.2547 -0.2084
20026TIP3    H181569   2.550   0.841   0.482  0.7854  1.1036 -1.1090
20026TIP3    H281570   2.502   0.923   0.364 -0.6638 -1.0950 -2.1217
20027TIP3   OH281571   5.059   0.908   0.544  0.0741  0.0817  0.0670
20027TIP3    H181572   5.107   0.826   0.553 -0.1079 -0.0866 -0.4278
20027TIP3    H281573   5.025   0.926   0.631 -1.9205 -1.6412 -0.2789
20028TIP3   OH281574   1.515   2.061   5.820 -0.3078 -0.1321  0.0380
20028TIP3    H181575   1.515   2.145   5.864 -1.3240  0.8211 -1.6716
20028TIP3    H281576   1.431   2.057   5.774  0.8702 -0.7680 -2.2511
20029TIP3   OH281577   5.028   4.793  15.320  0.1088  0.0872 -0.8183
20029TIP3    H181578   4.986   4.840  15.392 -1.1627 -1.2995 -0.6109
20029TIP3    H281579   5.042   4.704  15.354  3.8305  0.5928 -0.6658
20030TIP3   OH281580   0.858   5.455  12.808  0.0207 -0.1375 -0.2187
20030TIP3    H181581   0.944   5.493  12.790  0.7481  0.4462  3.6944
20030TIP3    H281582   0.797   5.528  12.798  0.5594  0.5012  1.0149
20031TIP3   OH281583   4.462   3.392  12.557 -0.3048 -0.0229 -0.1970
20031TIP3    H181584   4.501   3.435  12.633 -2.1412 -0.8766  1.3043
20031TIP3    H281585   4.491   3.301  12.564 -0.8550 -0.2035 -0.2785
20032TIP3   OH281586   4.619   2.274   1.490 -0.0064 -0.3781 -0.3919
20032TIP3    H181587   4.635   2.313   1.404 -0.3422 -1.4067 -0.9348
20032TIP3    H281588   4.702   2.286   1.537  0.3582 -0.2967 -1.0491
20033TIP3   OH281589   4.813   2.334   5.352  0.2756  0.4366  0.0619
20033TIP3    H181590   4.838   2.268   5.417 -0.9659 -2.3551 -2.0743
20033TIP3    H281591   4.727   2.306   5.321 -0.4988  3.3574 -0.7324
20034TIP3   OH281592   1.493   2.291   6.625  0.2995  0.2292 -0.7126
20034TIP3    H181593   1.516   2.272   6.716 -0.5840 -0.4218 -0.6162
20034TIP3    H281594   1.567   2.343   6.592  2.3270 -2.3842 -0.6521
20035TIP3   OH281595   4.672   3.217  11.982  0.2144 -0.4491 -0.0975
20035TIP3    H181596   4.747   3.160  11.963 -0.0700 -0.5278 -1.0513
20035TIP3    H281597   4.706   3.306  11.977  0.2721 -0.4887 -0.4340
20036TIP3   OH281598   1.510   0.455   1.301 -0.0498  0.3965  0.2227
20036TIP3    H181599   1.438   0.515   1.319 -0.4368  0.0831 -0.2750
20036TIP3    H281600   1.578   0.481   1.363 -0.9272  0.0928  1.3619
20037TIP3   OH281601   3.517   2.595  11.432  0.0128 -0.4218  0.3471
20037TIP3    H181602   3.604   2.599  11.391  1.6534  1.7949  3.5379
20037TIP3    H281603   3.462   2.551  11.368  2.7074  0.9400 -3.2389
20038TIP3   OH281604   0.765   5.022   5.619 -0.6266  0.3031  0.0945
20038TIP3    H181605   0.738   5.069   5.540 -0.3421  0.4044  0.0555
20038TIP3    H281606   0.696   5.040   5.683 -0.7448  0.4057 -0.0615
20039TIP3   OH281607   2.723   4.316  15.337 -0.0823  0.1837 -0.3033
20039TIP3    H181608   2.728   4.383  15.269  1.1648  2.3160  1.7487
20039TIP3    H281609   2.640   4.333  15.381 -1.1750 -1.5700 -1.5374
20040TIP3   OH281610   3.110   1.883  15.727 -0.8556 -0.1865  0.7873
20040TIP3    H181611   3.040   1.938  15.764 -1.1305  0.1163 -0.1365
20040TIP3    H281612   3.139   1.932  15.650 -1.5374 -1.6230 -0.4303
20041TIP3   OH281613   6.547   4.452   5.502 -0.0605  0.7288 -0.2341
20041TIP3    H181614   6.486   4.491   5.564 -0.1198  0.8607 -0.3753
20041TIP3    H281615   6.501   4.374   5.469  0.0369  0.5670  0.0081
20042TIP3   OH281616   4.736   3.738   5.164 -0.4870 -0.0361  0.5757
20042TIP3    H181617   4.784   3.787   5.232  0.2123 -0.0607  0.1115
20042TIP3    H281618   4.652   3.717   5.205  0.4018 -1.1874  1.9125
20043TIP3   OH281619   1.580   6.796  14.220  0.2788 -0.5065  0.4562
20043TIP3    H181620   1.595   6.702  14.222  2.2136 -0.3977 -2.5096
20043TIP3    H281621   1.534   6.811  14.137  2.2205  1.3028 -0.3998
20044TIP3   OH281622   5.709   3.503  14.647 -0.0861 -0.2760 -0.3343
20044TIP3    H181623   5.738   3.422  14.690  0.8174  0.3257  0.2352
20044TIP3    H281624   5.633   3.477  14.595 -1.5923 -0.9350  2.0477
20045TIP3   OH281625   4.694   2.650  15.478  1.0307  0.2248  0.3811
20045TIP3    H181626   4.738   2.659  15.562  2.0148 -0.3937 -0.0544
20045TIP3    H281627   4.646   2.567  15.484 -1.0308  1.3986  1.2514
20046TIP3   OH281628   0.515   2.848   2.649  0.4473 -0.5979 -0.3293
20046TIP3    H181629   0.579   2.812   2.711 -2.6925 -2.5912  2.0880
20046TIP3    H281630   0.502   2.939   2.678  1.0850 -0.6558  0.1488
20047TIP3   OH281631   2.023   4.278  13.458 -0.1728 -0.4688  0.0325
20047TIP3    H181632   2.078   4.309  13.530  0.2044 -0.5037 -0.2406
20047TIP3    H281633   2.008   4.355  13.403 -2.0275  0.0251  1.1263
20048TIP3   OH281634   5.993   3.807   3.631  0.0394  0.3434 -0.0804
20048TIP3    H181635   6.042   3.739   3.585  2.0338  0.2448  2.0646
20048TIP3    H281636   5.904   3.800   3.595  0.2903 -2.9981 -0.3509
20049TIP3   OH281637   0.438   0.597   5.949  0.0922  0.2286 -0.0456
20049TIP3    H181638   0.521   0.597   5.997 -0.0050 -0.9641  0.1464
20049TIP3    H281639   0.461   0.563   5.862 -0.0576  0.6790 -0.2654
20050TIP3   OH281640   3.337   1.328   4.428 -0.2404 -0.1077 -0.1789
20050TIP3    H181641   3.324   1.239   4.395  0.3994  0.5022 -2.2232
20050TIP3    H281642   3.415   1.321   4.484 -0.7952 -1.0005  0.5107
20051TIP3   OH281643   1.451   6.351  15.458  0.2798  0.0258 -0.2233
20051TIP3    H181644   1.474   6.370  15.367 -4.1922  0.1743 -1.5662
20051TIP3    H281645   1.470   6.258  15.469 -0.9208 -0.4812 -2.0299
20052TIP3   OH281646   0.557   4.038  12.852 -0.5432 -0.4452 -0.4526
20052TIP3    H181647   0.563   3.945  12.872  0.5438 -0.1579  0.6991
20052TIP3    H281648   0.640   4.058  12.807 -0.2628  0.1929  0.3345
20053TIP3   OH281649   6.500   3.181  11.307  0.0973 -0.0499  0.2534
20053TIP3    H181650   6.589   3.145  11.300 -0.2586 -0.9324  0.2675
20053TIP3    H281651   6.487   3.228  11.225  0.6291  0.2116  0.3107
20054TIP3   OH281652   4.295   5.505   1.379  0.3848 -0.2238 -0.4169
20054TIP3    H181653   4.240   5.487   1.303  0.3922 -0.9221 -0.2675
20054TIP3    H281654   4.381   5.467   1.356  1.1525  1.7867 -1.0887
20055TIP3   OH281655   2.788   2.815   2.375 -0.0420 -0.0874 -0.2543
20055TIP3    H181656   2.828   2.778   2.296 -0.9202  0.4266 -0.9631
20055TIP3    H281657   2.833   2.898   2.389 -0.4005  0.1789 -0.6648
20056TIP3   OH281658   0.235   1.214  15.562  0.2387 -1.0031 -0.3921
20056TIP3    H181659   0.199   1.179  15.644  0.7460  0.4335  0.4830
20056TIP3    H281660   0.232   1.140  15.501 -0.3609 -2.0481  0.8560
20057TIP3   OH281661   6.071   4.336   3.549 -0.0678  0.2527  0.9026
20057TIP3    H181662   6.032   4.253   3.523 -1.4579  1.1524 -0.0055
20057TIP3    H281663   6.115   4.317   3.632 -3.3711 -0.6315  2.6034
20058TIP3   OH281664   4.027   4.471   0.674 -0.4992 -0.1084 -0.3817
20058TIP3    H181665   4.095   4.424   0.627 -0.6713 -0.0923 -0.6491
20058TIP3    H281666   3.951   4.468   0.615 -1.4752 -2.1546  0.8314
20059TIP3   OH281667   4.300   6.652   2.808 -0.0047 -0.5028 -0.6547
20059TIP3    H181668   4.309   6.744   2.832  0.4303 -0.9619  1.1185
20059TIP3    H281669   4.324   6.604   2.888 -0.3880 -2.1493 -1.4813
20060TIP3   OH281670   0.203   3.537  16.817  0.0196 -0.4922  0.5165
20060TIP3    H181671   0.257   3.616  16.816 -0.3042 -0.2682  0.1795
20060TIP3    H281672   0.120   3.565  16.776 -0.0755 -1.0202  0.3444
20061TIP3   OH281673   2.953   2.978   6.104 -0.7008 -0.6494  0.8628
20061TIP3    H181674   3.037   3.006   6.069 -0.3327 -1.6342  0.9234
20061TIP3    H281675   2.969   2.961   6.197 -1.0190 -0.6344  0.9224
20062TIP3   OH281676   3.121   3.904   3.040 -0.5332 -0.1288  0.1914
20062TIP3    H181677   3.204   3.927   3.082  0.5187  0.3381 -1.9707
20062TIP3    H281678   3.081   3.988   3.018 -0.0445 -0.2945 -1.5052
20063TIP3   OH281679   0.220   1.669  11.593 -0.2811 -0.5495 -0.1937
20063TIP3    H181680   0.145   1.672  11.534  1.4802 -1.1314 -2.6354
20063TIP3    H281681   0.296   1.669  11.535  1.7907  2.8487  2.1279
20064TIP3   OH281682   5.337   3.683   4.740 -0.0484 -0.2897  0.3065
20064TIP3    H181683   5.312   3.609   4.796 -1.7378 -0.4184 -0.5378
20064TIP3    H281684   5.326   3.650   4.651  0.5204  0.5604 -0.0860
20065TIP3   OH281685   0.790   5.137  11.883  0.5292 -0.1541 -0.5854
20065TIP3    H181686   0.875   5.180  11.896  0.5363 -0.5123  0.7318
20065TIP3    H281687   0.748   5.188  11.814  1.9889 -0.2437 -1.5853
20066TIP3   OH281688   2.629   4.678  13.625 -0.2411  0.0960  0.1699
20066TIP3    H181689   2.578   4.759  13.629  0.4059  0.4493  2.1507
20066TIP3    H281690   2.585   4.619  13.686 -0.6233 -1.0487 -1.1444
20067TIP3   OH281691   2.555   4.589   0.746 -0.0247  0.2300 -0.7483
20067TIP3    H181692   2.586   4.655   0.808 -0.4303 -0.9625  0.7879
20067TIP3    H281693   2.479   4.630   0.704  0.7023  1.3363 -1.0338
20068TIP3   OH281694   2.440   1.216  11.505 -0.1123  0.4959 -0.5775
20068TIP3    H181695   2.492   1.191  11.429  0.8729  0.0941  0.2027
20068TIP3    H281696   2.463   1.152  11.572 -0.3572  1.2995  0.3071
20069TIP3   OH281697   5.167   0.654  10.569 -0.1658  1.0340 -0.8415
20069TIP3    H181698   5.181   0.574  10.619  1.2495 -0.3674 -3.2876
20069TIP3    H281699   5.075   0.650  10.543 -0.5720  1.1417  0.4823
20070TIP3   OH281700   5.741   2.873  15.279 -0.5431  0.1082 -0.1833
20070TIP3    H181701   5.761   2.798  15.335 -0.2473  1.7149  2.0320
20070TIP3    H281702   5.824   2.921  15.274 -1.5985  2.3430  1.8640
20071TIP3   OH281703   2.422   6.342  14.791  0.3094  0.0450 -0.1419
20071TIP3    H181704   2.453   6.252  14.806 -0.7153 -0.2393  0.4394
20071TIP3    H281705   2.326   6.334  14.795  0.2148  1.5134  2.2185
20072TIP3   OH281706   5.060   3.624  16.422  0.1408  0.5636 -0.1566
20072TIP3    H181707   5.097   3.612  16.509  0.4554 -2.0762 -0.5594
20072TIP3    H281708   4.973   3.584  16.427 -0.5333  1.9039 -0.6429
20073TIP3   OH281709   2.553   1.819  14.206  0.6384  0.2266 -0.1609
20073TIP3    H181710   2.633   1.802  14.254  0.4879 -0.6253 -0.1876
20073TIP3    H281711   2.488   1.761  14.245  0.3261  0.0667 -0.8863
20074TIP3   OH281712   3.004   2.706  16.291  0.4081  0.1671 -0.2419
20074TIP3    H181713   2.955   2.757  16.227  0.1265  0.5558  0.2785
20074TIP3    H281714   2.954   2.624  16.301  0.2184  0.2890 -0.1965
20075TIP3   OH281715   1.218   5.805  12.607  0.7711  0.1954  0.5163
20075TIP3    H181716   1.209   5.877  12.545 -0.4800  0.2605  0.7428
20075TIP3    H281717   1.158   5.828  12.679 -1.0377 -1.9033 -0.2125
20076TIP3   OH281718   3.802   5.832   3.705  0.1756 -0.1282  0.4308
20076TIP3    H181719   3.852   5.895   3.651 -0.2124 -1.0615 -1.0796
20076TIP3    H281720   3.726   5.882   3.735  0.0303  0.2394 -0.4926
20077TIP3   OH281721   5.881   1.964   6.807 -0.2512 -0.1708 -0.5633
20077TIP3    H181722   5.858   1.875   6.834 -1.1114  0.7161  1.9409
20077TIP3    H281723   5.976   1.961   6.793 -0.0526 -1.2015  0.7829
20078TIP3   OH281724   3.235   6.170   4.438  0.3441  1.1458  0.6871
20078TIP3    H181725   3.156   6.212   4.472  1.2956  0.9434  3.3590
20078TIP3    H281726   3.216   6.076   4.445  0.2917  1.0878 -0.0983
20079TIP3   OH281727   2.648   4.506   3.444  0.2879 -0.3089  0.0363
20079TIP3    H181728   2.612   4.591   3.416  1.4235  0.3711  0.5487
20079TIP3    H281729   2.586   4.474   3.509 -0.8029 -0.4743 -1.0588
20080TIP3   OH281730   5.190   3.831   5.960  0.1479  0.2117  0.0901
20080TIP3    H181731   5.283   3.817   5.945  0.3681 -0.6687  1.9783
20080TIP3    H281732   5.147   3.796   5.883  1.3331 -0.3162 -0.3440
20081TIP3   OH281733   0.960   4.968  11.719  0.3447  0.7777 -0.0350
20081TIP3    H181734   0.915   5.015  11.790  0.7246 -0.2035  0.8798
20081TIP3    H281735   1.038   5.022  11.701 -1.5561  3.0345 -2.3180
20082TIP3   OH281736   1.635   1.118  13.433  0.6499  0.4783  0.7012
20082TIP3    H181737   1.601   1.159  13.353 -0.3576 -0.0530  0.8413
20082TIP3    H281738   1.647   1.191  13.494 -0.0033  0.7101  0.5558
20083TIP3   OH281739   0.250   1.362   5.881 -0.2472  0.5603  0.2538
20083TIP3    H181740   0.247   1.335   5.789 -0.0097  0.1320  0.3677
20083TIP3    H281741   0.185   1.307   5.925  0.2570  0.1362  0.4920
20084TIP3   OH281742   5.457   5.425   6.467  0.3809 -0.4196 -0.0320
20084TIP3    H181743   5.397   5.351   6.471 -1.0247  0.6131 -1.1085
20084TIP3    H281744   5.463   5.455   6.558 -4.1669  2.0147 -0.2744
20085TIP3   OH281745   6.054   1.485  17.087 -0.0086  0.5217 -0.2543
20085TIP3    H181746   5.972   1.462  17.043 -0.2451 -1.2118  1.0014
20085TIP3    H281747   6.089   1.402  17.118  2.9386  1.0384 -1.8638
20086TIP3   OH281748   3.815   2.872   2.212 -0.3070 -0.3828  0.4061
20086TIP3    H181749   3.906   2.851   2.231  0.0307  0.8719  0.2898
20086TIP3    H281750   3.775   2.788   2.188  0.6756 -1.0336  0.9830
20087TIP3   OH281751   1.449   2.921  11.731  0.1908  0.3172  0.5540
20087TIP3    H181752   1.395   2.933  11.809 -0.8374  0.0721 -0.0993
20087TIP3    H281753   1.430   2.997  11.677 -0.4200 -0.3376 -0.1884
20088TIP3   OH281754   1.565   2.160  12.791 -0.2286  0.6616  0.3607
20088TIP3    H181755   1.532   2.071  12.780 -1.9014  0.7554  3.4711
20088TIP3    H281756   1.657   2.149  12.813  0.0687 -0.1205 -1.1436
20089TIP3   OH281757   3.129   3.678   3.377 -0.0516 -0.5664  0.2384
20089TIP3    H181758   3.224   3.681   3.367 -0.1626  1.1136 -0.7232
20089TIP3    H281759   3.107   3.585   3.374  1.3081 -0.9084 -2.5123
20090TIP3   OH281760   1.410   4.912  16.046  0.3874  0.9626  0.2162
20090TIP3    H181761   1.504   4.931  16.042  0.4394  0.8947  0.9882
20090TIP3    H281762   1.405   4.818  16.064  0.2037  1.2571  1.8276
20091TIP3   OH281763   4.203   0.876  12.348  0.7099  0.3737 -0.0273
20091TIP3    H181764   4.222   0.895  12.440  2.2043 -3.9690  0.7710
20091TIP3    H281765   4.289   0.862  12.309  0.1869  3.1531 -2.5391
20092TIP3   OH281766   5.282   4.383  13.619 -0.6595  0.0348  0.4207
20092TIP3    H181767   5.282   4.287  13.618 -1.5838  0.0043  1.6876
20092TIP3    H281768   5.213   4.407  13.557  0.6330 -0.0642 -1.1055
20093TIP3   OH281769   6.646   0.751   2.257  0.4839  0.4679  0.0828
20093TIP3    H181770   6.559   0.782   2.283  0.4997 -0.9806  2.1487
20093TIP3    H281771   6.628   0.670   2.209  0.6811 -0.2144  1.1296
20094TIP3   OH281772   2.989   4.202  16.273  0.7607 -0.3332  0.4684
20094TIP3    H181773   2.961   4.201  16.364 -0.1262 -0.4986  0.2017
20094TIP3    H281774   3.049   4.277  16.267 -1.5397  1.6480  0.5177
20095TIP3   OH281775   3.127   4.380   1.628 -0.5939  0.1670  0.1714
20095TIP3    H181776   3.121   4.473   1.607  0.7425  0.1469 -0.4200
20095TIP3    H281777   3.219   4.366   1.649 -0.5421 -1.2319 -0.8459
20096TIP3   OH281778   4.256   5.204  12.962  0.4861 -0.6421  0.5099
20096TIP3    H181779   4.174   5.192  12.914  0.1588  2.3875  0.0872
20096TIP3    H281780   4.323   5.204  12.894  0.5888 -0.9415  0.6094
20097TIP3   OH281781   1.230   2.234   1.711 -0.2345 -0.1916 -0.1872
20097TIP3    H181782   1.264   2.324   1.720  0.2684 -0.1698 -1.9407
20097TIP3    H281783   1.178   2.236   1.631  2.7323 -2.2437 -2.3798
20098TIP3   OH281784   4.817   6.561  11.637 -0.0684 -0.0464 -0.1866
20098TIP3    H181785   4.804   6.576  11.544  0.8589  0.8051 -0.1946
20098TIP3    H281786   4.902   6.518  11.643  1.2489  2.4262  0.4046
20099TIP3   OH281787   5.705   2.409   1.430 -0.1508 -0.0733 -0.6763
20099TIP3    H181788   5.766   2.476   1.398 -1.7590  1.6663 -0.2541
20099TIP3    H281789   5.669   2.445   1.511  1.4888 -3.0088  1.5786
20100TIP3   OH281790   6.452   3.935  13.837  0.0696 -0.4485  0.2496
20100TIP3    H181791   6.425   4.027  13.840 -1.6211 -0.9362  0.9030
20100TIP3    H281792   6.458   3.915  13.743 -0.9456 -0.0506  0.0926
20101TIP3   OH281793   5.560   2.359   4.387 -0.0035 -0.0299  0.2531
20101TIP3    H181794   5.519   2.443   4.410 -0.3164  0.1345 -0.8136
20101TIP3    H281795   5.490   2.295   4.401  0.3345 -0.1583  1.3724
20102TIP3   OH281796   5.665   3.560   5.346  0.1668  0.0911 -0.4807
20102TIP3    H181797   5.717   3.600   5.277  0.6760  0.5608  0.1727
20102TIP3    H281798   5.729   3.526   5.409 -0.2600 -1.1808 -0.6869
20103TIP3   OH281799   3.286   0.983  12.612  0.0039 -0.0026 -0.2557
20103TIP3    H181800   3.257   0.957  12.700 -0.3323  2.5129  0.4616
20103TIP3    H281801   3.360   1.042  12.629  0.7857 -0.5094 -1.7576
20104TIP3   OH281802   0.061   4.685   0.103 -0.1205 -0.4454 -0.3348
20104TIP3    H181803   0.018   4.735   0.034  0.1624  0.8816  0.4216
20104TIP3    H281804   0.120   4.626   0.056  0.5948  0.9220 -1.2292
20105TIP3   OH281805   3.070   4.351   1.919 -0.1028 -0.5571 -0.6317
20105TIP3    H181806   3.056   4.268   1.964 -0.7378 -0.2713 -0.2818
20105TIP3    H281807   3.145   4.336   1.862 -0.2854 -1.3999 -0.6550
20106TIP3   OH281808   2.648   6.665  16.008  0.5319 -0.2566  0.0020
20106TIP3    H181809   2.713   6.623  15.952 -0.8843  0.9577 -2.7699
20106TIP3    H281810   2.691   6.745  16.039  1.4999 -1.1805  1.1053
20107TIP3   OH281811   3.071   3.275   5.464 -0.2588  0.0511 -0.3676
20107TIP3    H181812   3.067   3.242   5.554  0.9162 -0.2579 -0.4119
20107TIP3    H281813   3.143   3.338   5.464  0.5147 -0.7915 -1.3313
20108TIP3   OH281814   5.124   4.550  12.476  0.0978  0.5726  0.5048
20108TIP3    H181815   5.135   4.470  12.425  0.8169  0.4042  0.9042
20108TIP3    H281816   5.213   4.575  12.500 -0.1966  0.9138  1.2652
20109TIP3   OH281817   5.901   6.072   1.469 -0.5623  0.3138 -0.1274
20109TIP3    H181818   5.871   6.013   1.537  0.7885  1.2450  1.3461
20109TIP3    H281819   5.936   6.014   1.401 -2.9564 -0.6687 -0.6325
20110TIP3   OH281820   0.278   5.304  11.476  0.1047 -0.1493 -0.2587
20110TIP3    H181821   0.303   5.213  11.460 -0.5481 -0.3486 -0.1561
20110TIP3    H281822   0.340   5.334  11.542  0.2021 -0.5762 -0.1527
20111TIP3   OH281823   1.192   3.831   3.681 -0.0816 -0.0611 -0.0788
20111TIP3    H181824   1.278   3.808   3.645 -0.7557 -1.4828 -0.8647
20111TIP3    H281825   1.202   3.921   3.712  1.8182 -0.3587  0.2822
20112TIP3   OH281826   4.127   2.452  15.579 -0.0520  0.4391 -0.1390
20112TIP3    H181827   4.212   2.479  15.613 -1.0605  1.5286  1.6624
20112TIP3    H281828   4.098   2.383  15.639 -0.6504  0.4150 -0.4467
20113TIP3   OH281829   3.604   5.264   6.094  0.0009 -0.0652  0.1822
20113TIP3    H181830   3.656   5.303   6.165  1.2043 -0.2381 -0.5722
20113TIP3    H281831   3.533   5.218   6.138 -0.9384  2.1475  1.1653
20114TIP3   OH281832   3.525   0.021   5.976 -0.5818 -0.3965  0.3097
20114TIP3    H181833   3.545   0.030   5.883 -0.0057  2.9345  0.6296
20114TIP3    H281834   3.597  -0.031   6.011  0.6649  0.5948 -0.6960
20115TIP3   OH281835   2.066   6.616  10.979 -0.0251 -0.4037  0.1834
20115TIP3    H181836   2.027   6.699  10.951 -1.7566 -0.8999  1.0032
20115TIP3    H281837   2.054   6.558  10.904  1.2253  0.0628 -0.4073
20116TIP3   OH281838   0.891   5.247   0.787  0.1620  0.0343 -0.0382
20116TIP3    H181839   0.854   5.166   0.821 -0.3036  0.7764  1.2994
20116TIP3    H281840   0.936   5.287   0.861  0.7255  0.8141 -0.7728
20117TIP3   OH281841   5.819   5.902  13.830  0.1226 -0.1607  0.0542
20117TIP3    H181842   5.816   5.991  13.864  1.5845 -0.3719  0.8073
20117TIP3    H281843   5.908   5.891  13.797 -1.3565  0.4036 -5.0334
20118TIP3   OH281844   5.168   2.223  16.198  0.1715 -0.1166 -0.9557
20118TIP3    H181845   5.237   2.285  16.176  0.2211 -0.2613 -1.2087
20118TIP3    H281846   5.204   2.137  16.174  0.4424 -0.3339  0.1840
20119TIP3   OH281847   6.238   0.826  14.117 -0.5586 -1.0350  0.2281
20119TIP3    H181848   6.187   0.899  14.151  0.0453 -0.9040  0.8765
20119TIP3    H281849   6.288   0.794  14.193 -0.0693 -1.4829 -0.2729
20120TIP3   OH281850   5.211   0.780  15.283  0.3270  0.1448 -0.1854
20120TIP3    H181851   5.304   0.797  15.302 -0.1764 -0.0941  2.9364
20120TIP3    H281852   5.168   0.863  15.300 -0.1758 -0.0164 -0.6527
20121TIP3   OH281853   0.727   0.022  16.979 -0.2841  0.5026 -0.1183
20121TIP3    H181854   0.661   0.070  17.029 -0.5380  0.3142 -0.2681
20121TIP3    H281855   0.798   0.085  16.965 -0.4007  0.6841  0.1060
20122TIP3   OH281856   5.876   0.554   3.929  0.4265  0.9776 -0.5202
20122TIP3    H181857   5.886   0.646   3.951  2.5077  0.6846 -0.0290
20122TIP3    H281858   5.781   0.539   3.930  0.0096  3.2285 -1.2682
20123TIP3   OH281859   0.246   2.229   5.440  0.1271 -0.2224  0.0441
20123TIP3    H181860   0.306   2.282   5.492 -0.4975  0.0472  0.5020
20123TIP3    H281861   0.292   2.146   5.429  0.6608  0.0421  0.2389
20124TIP3   OH281862   4.324   4.554  11.553 -0.1287 -0.0897 -0.0924
20124TIP3    H181863   4.280   4.574  11.471 -0.4934 -0.5999 -0.0218
20124TIP3    H281864   4.369   4.471  11.537 -0.8391 -0.5887  0.4631
20125TIP3   OH281865   5.334   0.550   4.555 -0.0002 -0.7414 -0.0675
20125TIP3    H181866   5.284   0.621   4.515  2.0498  1.1664  0.5351
20125TIP3    H281867   5.268   0.491   4.591 -1.8242 -0.4232 -2.6673
20126TIP3   OH281868   0.944   0.403  10.786 -0.2622 -0.1930 -0.4273
20126TIP3    H181869   1.019   0.343  10.789  2.0444  2.4133 -1.6216
20126TIP3    H281870   0.917   0.402  10.694 -2.4334 -1.8219  0.1550
20127TIP3   OH281871   5.133   1.781  14.094  0.2874 -0.6861 -0.1205
20127TIP3    H181872   5.137   1.691  14.061  0.5881 -0.5037 -0.5738
20127TIP3    H281873   5.153   1.772  14.187  0.4969 -1.0681 -0.1978
20128TIP3   OH281874   3.852   2.099   0.683 -0.4172  1.3631  0.2847
20128TIP3    H181875   3.933   2.094   0.633 -0.7061  2.3609 -0.3201
20128TIP3    H281876   3.792   2.039   0.637 -0.4828  1.7820 -0.1840
20129TIP3   OH281877   0.711   2.187  16.189  0.4881 -0.4953 -0.0923
20129TIP3    H181878   0.754   2.250  16.247  1.1732  0.3513 -1.4475
20129TIP3    H281879   0.652   2.241  16.135  0.1837 -1.1852 -0.4571
20130TIP3   OH281880   2.838   0.702  11.775  0.4528  0.0589 -0.2631
20130TIP3    H181881   2.899   0.776  11.774  0.3837  0.1070 -1.3780
20130TIP3    H281882   2.751   0.741  11.769  0.2722 -0.0077  1.3762
20131TIP3   OH281883   1.307   5.516  15.352 -0.2469 -0.0141  0.5470
20131TIP3    H181884   1.271   5.448  15.409  0.3255  2.0813  3.6487
20131TIP3    H281885   1.242   5.586  15.353 -0.6192 -0.1930 -2.2117
20132TIP3   OH281886   0.569   6.141   2.957  0.3444  0.1751 -0.1663
20132TIP3    H181887   0.656   6.113   2.928  0.0226 -0.9439 -0.1017
20132TIP3    H281888   0.510   6.073   2.924 -0.3359  0.1847  0.9757
20133TIP3   OH281889   6.486   6.670  10.837 -0.4309 -0.1370  0.4213
20133TIP3    H181890   6.398   6.700  10.861  0.0977  1.3108  0.6202
20133TIP3    H281891   6.490   6.683  10.742  0.0860  1.2869  0.6146
20134TIP3   OH281892   2.917   0.823  12.919  0.1118  0.0748 -0.1026
20134TIP3    H181893   2.982   0.851  12.983  0.7065 -0.0971 -0.6245
20134TIP3    H281894   2.846   0.787  12.972 -0.1658  1.4755  0.5450
20135TIP3   OH281895   2.862   0.586  10.808 -0.2447 -0.1636  0.7075
20135TIP3    H181896   2.907   0.503  10.798 -1.7436 -0.7874 -1.5575
20135TIP3    H281897   2.905   0.644  10.745 -0.5396  0.1902  0.8275
20136TIP3   OH281898   6.181   0.180   5.599 -0.4606  0.0106 -0.0134
20136TIP3    H181899   6.106   0.210   5.547  0.9991 -0.1512 -2.4076
20136TIP3    H281900   6.203   0.094   5.562  1.0636  0.1899  0.3917
20137TIP3   OH281901   2.914   3.410   0.468 -0.8228 -0.1338 -0.0974
20137TIP3    H181902   2.882   3.443   0.384 -1.3368 -1.5976 -0.5020
20137TIP3    H281903   2.936   3.489   0.518  0.3093  0.7564 -1.8983
20138TIP3   OH281904   1.447   2.876  15.668  0.4322 -0.0297  0.4431
20138TIP3    H181905   1.527   2.826  15.654  0.2754 -0.8683  2.1800
20138TIP3    H281906   1.407   2.836  15.746 -1.5249  0.5598 -0.1927
20139TIP3   OH281907   2.717   4.761   1.638  0.4600 -0.3772  0.0577
20139TIP3    H181908   2.703   4.679   1.592 -1.4735  0.3192 -0.7200
20139TIP3    H281909   2.750   4.821   1.570 -0.5849  0.1394 -0.0215
20140TIP3   OH281910   3.844   3.658  17.321 -0.4047  0.0228 -0.4280
20140TIP3    H181911   3.802   3.707  17.391  0.5017 -1.6121  1.3708
20140TIP3    H281912   3.937   3.683  17.326 -0.2555 -0.4404 -0.7559
20141TIP3   OH281913   2.830   6.288  15.907  0.0701  0.4759 -0.5699
20141TIP3    H181914   2.750   6.263  15.955  0.9946  0.5729  1.1184
20141TIP3    H281915   2.838   6.221  15.839 -2.1008  1.1801 -1.5943
20142TIP3   OH281916   1.308   0.607   1.465 -0.4145 -0.0366 -0.0582
20142TIP3    H181917   1.325   0.638   1.554  1.2006  0.0397 -0.3464
20142TIP3    H281918   1.302   0.687   1.413 -0.0949 -0.0985 -0.1957
20143TIP3   OH281919   6.051   4.190   1.284 -0.3868  0.1651 -0.3033
20143TIP3    H181920   5.969   4.234   1.306 -0.2650  0.4202 -0.3627
20143TIP3    H281921   6.116   4.260   1.279 -0.4137  0.1276 -1.4716
20144TIP3   OH281922   2.952   0.785   0.457  0.1980 -0.1470 -0.1623
20144TIP3    H181923   3.008   0.779   0.380  1.2907 -0.0945  0.6084
20144TIP3    H281924   2.932   0.879   0.465  1.0603  0.0033  0.2910
20145TIP3   OH281925   3.613   6.446   4.164  0.0725  0.1433 -0.4772
20145TIP3    H181926   3.591   6.417   4.075 -0.4864  0.5995 -0.4955
20145TIP3    H281927   3.647   6.535   4.151 -0.6933  0.4870 -0.1652
20146TIP3   OH281928   6.625   2.383  13.892  0.5904  0.1687 -0.2222
20146TIP3    H181929   6.684   2.323  13.847  0.0054 -0.2632 -0.4254
20146TIP3    H281930   6.668   2.401  13.976  0.2938 -1.3326  0.2668
20147TIP3   OH281931   1.706   0.599  12.016  0.3675  0.0203  0.0983
20147TIP3    H181932   1.800   0.616  12.011  0.6779 -1.7473 -3.9477
20147TIP3    H281933   1.698   0.505  12.029 -0.9511  0.2753  1.5274
20148TIP3   OH281934   5.781   0.724  11.302  0.0630  0.5721  0.0240
20148TIP3    H181935   5.810   0.784  11.234  1.9995  1.6351  1.6820
20148TIP3    H281936   5.747   0.780  11.371  0.9125 -0.2530  1.1650
20149TIP3   OH281937   6.728   6.327  13.947 -0.1791  0.2697  0.4791
20149TIP3    H181938   6.823   6.318  13.943 -0.0258  0.4069  2.5768
20149TIP3    H281939   6.713   6.399  14.008 -1.6335  0.5619 -0.1774
20150TIP3   OH281940   2.011   4.816  14.526  0.0047 -0.2957 -0.6172
20150TIP3    H181941   1.957   4.785  14.598  0.2843 -1.0661 -0.7361
20150TIP3    H281942   2.028   4.908  14.547  0.7936 -0.7316  0.7333
20151TIP3   OH281943   4.489   0.786  16.341 -0.6751 -0.6684  0.2885
20151TIP3    H181944   4.535   0.706  16.315  2.4266  1.4080 -1.2411
20151TIP3    H281945   4.502   0.790  16.436  0.8038 -1.0953  0.1381
20152TIP3   OH281946   0.626   6.771   3.132  0.2753 -0.0217 -0.0079
20152TIP3    H181947   0.647   6.681   3.105  1.1932  0.3485 -0.6006
20152TIP3    H281948   0.696   6.824   3.093  0.0444  0.8885  0.7828
20153TIP3   OH281949   2.713   5.096  17.256  0.0288 -0.0384 -0.0768
20153TIP3    H181950   2.750   5.089  17.167 -1.7055 -0.5679 -0.8033
20153TIP3    H281951   2.645   5.029  17.258  0.1135 -0.1046  1.7176
20154TIP3   OH281952   4.251   0.837  13.327  0.2897 -0.3407 -0.2476
20154TIP3    H181953   4.217   0.832  13.417  0.9210 -1.9462 -0.0588
20154TIP3    H281954   4.185   0.791  13.275  0.0689  0.3309 -0.5670
20155TIP3   OH281955   6.288   4.924  13.392  0.2780  0.0629  0.4018
20155TIP3    H181956   6.376   4.914  13.355 -1.0404 -1.6900 -2.5680
20155TIP3    H281957   6.257   4.834  13.405 -1.2312  0.6538  1.1018
20156TIP3   OH281958   0.930   4.537   1.430 -0.7275 -0.1170 -0.1141
20156TIP3    H181959   0.850   4.486   1.421 -0.4846 -0.7605  1.1664
20156TIP3    H281960   0.999   4.480   1.396 -0.5667 -0.3522  0.5781
20157TIP3   OH281961   3.716   1.123  13.645 -0.2880  0.0957 -0.4094
20157TIP3    H181962   3.768   1.157  13.718 -0.7640 -1.0037  0.4670
20157TIP3    H281963   3.659   1.196  13.620 -0.1193  0.4907  0.3261
20158TIP3   OH281964   5.762   0.965   2.761  0.2326  0.1113 -0.0605
20158TIP3    H181965   5.734   0.936   2.848 -1.6950  2.3328  0.1760
20158TIP3    H281966   5.816   1.043   2.778  0.1777  0.3195 -0.8102
20159TIP3   OH281967   1.741   6.538  13.227 -0.0882 -0.3751 -0.1719
20159TIP3    H181968   1.722   6.581  13.144 -0.7367  1.0406  0.6901
20159TIP3    H281969   1.833   6.561  13.245 -0.0921 -0.2875 -0.2627
20160TIP3   OH281970   3.635   0.170  13.285  0.0485 -0.0217 -0.2027
20160TIP3    H181971   3.722   0.205  13.306  0.4173  1.1353 -3.2210
20160TIP3    H281972   3.574   0.238  13.312  0.4565  1.1116 -1.9733
20161TIP3   OH281973   2.689   1.930   1.746 -0.0531 -0.4652  0.3783
20161TIP3    H181974   2.604   1.972   1.729 -0.6591 -1.0835  1.7315
20161TIP3    H281975   2.749   1.973   1.686 -1.3662 -0.1834 -0.8119
20162TIP3   OH281976   0.275   1.205  14.341  0.1948 -0.5697 -0.3411
20162TIP3    H181977   0.209   1.269  14.315  1.0295 -0.1241 -1.4892
20162TIP3    H281978   0.239   1.121  14.312  0.2145 -0.3027 -1.1817
20163TIP3   OH281979   6.075   0.520   2.858  0.0417  0.1530 -0.0664
20163TIP3    H181980   6.033   0.604   2.838  1.0571  0.9605  1.0615
20163TIP3    H281981   6.158   0.524   2.811  0.6585  0.3456  1.0257
20164TIP3   OH281982   6.269   0.297  12.136 -0.0166 -0.7113  0.1062
20164TIP3    H181983   6.285   0.211  12.174  0.1044 -1.4121 -1.4315
20164TIP3    H281984   6.255   0.279  12.043 -2.0536  0.7048  0.0857
20165TIP3   OH281985   0.171   5.760   6.413  0.5669 -0.6113  0.5145
20165TIP3    H181986   0.226   5.703   6.360  1.3643 -0.4493  1.1385
20165TIP3    H281987   0.220   5.842   6.419  0.2294 -0.4413  1.0328
20166TIP3   OH281988   4.452   2.637   6.500  0.2624 -0.4120  0.2562
20166TIP3    H181989   4.484   2.681   6.579 -2.4205  4.2422 -0.8170
20166TIP3    H281990   4.358   2.628   6.515  0.1441 -2.2949 -1.2949
20167TIP3   OH281991   5.006   6.022  14.759  0.5094  0.4519 -0.5012
20167TIP3    H181992   4.922   6.061  14.785  0.8133 -0.0654  1.4054
20167TIP3    H281993   4.995   5.928  14.776  2.0295  0.5821  1.4977
20168TIP3   OH281994   4.093   1.222   1.353 -0.2711  0.0364 -0.5328
20168TIP3    H181995   4.067   1.193   1.266  1.4701  0.8193 -1.3704
20168TIP3    H281996   4.047   1.305   1.365 -1.2551 -0.5324 -0.2865
20169TIP3   OH281997   5.996   5.487  15.975 -0.4301  0.1020 -0.6645
20169TIP3    H181998   5.954   5.573  15.981  0.0175  0.2706  0.3736
20169TIP3    H281999   5.989   5.452  16.064  0.5214 -0.3864 -0.7713
20170TIP3   OH282000   6.398   3.755  13.077 -0.1356 -0.4843 -0.2948
20170TIP3    H182001   6.318   3.702  13.081  0.2519 -0.9565  2.0636
20170TIP3    H282002   6.448   3.716  13.004  0.5529 -4.0715  1.8459
20171TIP3   OH282003   5.782   2.555   0.866  0.1404  0.7526  0.4106
20171TIP3    H182004   5.692   2.521   0.867  0.7487 -1.0851 -0.9430
20171TIP3    H282005   5.819   2.530   0.951 -0.5819  1.4888  0.9601
20172TIP3   OH282006   5.919   1.233  11.335 -0.5890  0.4540  0.0293
20172TIP3    H182007   5.985   1.164  11.340 -0.0207  1.0073  0.2612
20172TIP3    H282008   5.860   1.213  11.408  0.7837  1.4188  1.4723
20173TIP3   OH282009   5.705   4.433   1.675  0.2362 -0.5893  0.3216
20173TIP3    H182010   5.609   4.433   1.682  0.2872 -0.9545  1.0771
20173TIP3    H282011   5.722   4.469   1.588 -0.5251  1.5333  0.9708
20174TIP3   OH282012   1.134   5.534   6.335 -0.3150  0.0450 -0.0765
20174TIP3    H182013   1.205   5.476   6.363 -1.1954 -0.1387  2.0052
20174TIP3    H282014   1.054   5.484   6.353 -1.0196  0.6950 -1.2862
20175TIP3   OH282015   6.144   6.228  10.977  0.6943  0.0170 -0.2413
20175TIP3    H182016   6.085   6.290  10.933  0.4530 -0.3379 -0.4211
20175TIP3    H282017   6.207   6.204  10.909  1.0035  0.3373 -0.0696
20176TIP3   OH282018   6.165   1.506   5.269  0.3853 -0.2983  0.4224
20176TIP3    H182019   6.132   1.416   5.263  0.0232 -0.1645  0.3972
20176TIP3    H282020   6.096   1.553   5.317 -0.1758  0.3350 -0.9549
20177TIP3   OH282021   6.556   3.768   1.416 -0.5822 -0.4346 -0.1031
20177TIP3    H182022   6.647   3.740   1.414  0.0663  1.5131 -0.1226
20177TIP3    H282023   6.536   3.792   1.326 -0.9665 -0.4132 -0.0139
20178TIP3   OH282024   3.943   4.772  14.225 -0.5666  0.4036 -0.0655
20178TIP3    H182025   3.866   4.742  14.273  0.1720  1.3225  1.8302
20178TIP3    H282026   3.945   4.719  14.145 -1.9463 -1.1185  0.8544
20179TIP3   OH282027   0.951   6.032  16.590 -0.3076 -0.5665  0.5675
20179TIP3    H182028   0.954   6.043  16.495 -1.0154 -1.6937  0.4056
20179TIP3    H282029   1.037   5.995  16.612  0.3587  0.8877  0.5567
20180TIP3   OH282030   4.617   3.384  14.907 -0.2960 -0.3204 -0.0635
20180TIP3    H182031   4.607   3.302  14.955 -0.0797 -1.0713 -1.2459
20180TIP3    H282032   4.546   3.383  14.843  0.5155 -0.2488 -0.9867
20181TIP3   OH282033   2.665   2.654   4.780  0.1409  0.4378  0.2581
20181TIP3    H182034   2.627   2.575   4.741  0.2195  0.1272  0.7999
20181TIP3    H282035   2.597   2.686   4.840 -0.5256  1.6782 -1.1165
20182TIP3   OH282036   0.693   4.460  15.488 -0.6742 -0.4216  0.5119
20182TIP3    H182037   0.682   4.540  15.539 -1.5713  0.4729 -0.9960
20182TIP3    H282038   0.662   4.390  15.545  2.1045 -0.0540  2.6950
20183TIP3   OH282039   1.696   1.439  14.673  0.4531 -0.1918  0.2257
20183TIP3    H182040   1.690   1.520  14.622  1.6126  0.6748  1.3901
20183TIP3    H282041   1.605   1.415  14.690  0.0813  0.3955 -0.8641
20184TIP3   OH282042   5.951   1.859  14.482  0.7673 -0.4793 -0.3281
20184TIP3    H182043   5.905   1.943  14.474  1.5765 -0.1187 -1.5580
20184TIP3    H282044   6.004   1.869  14.561  1.7216  0.6401 -1.0638
20185TIP3   OH282045   1.099   0.751   3.732 -0.4753  0.2400  0.1179
20185TIP3    H182046   1.024   0.691   3.728 -0.6384  0.1830  2.5164
20185TIP3    H282047   1.101   0.793   3.646 -4.0124  1.1073  0.3040
20186TIP3   OH282048   4.912   0.649   0.748 -0.3565 -0.4562  0.4984
20186TIP3    H182049   4.855   0.579   0.719 -0.9741 -0.7870  2.3760
20186TIP3    H282050   5.000   0.620   0.723 -0.9344  0.3051 -2.8893
20187TIP3   OH282051   1.792   2.234  13.686  0.0910  0.1111  0.0914
20187TIP3    H182052   1.819   2.245  13.595 -0.4833 -0.2903 -0.1365
20187TIP3    H282053   1.870   2.201  13.731  0.2102 -0.2663 -0.3833
20188TIP3   OH282054   0.557   4.887   4.597 -0.2593  0.6314 -0.1607
20188TIP3    H182055   0.464   4.902   4.579 -0.1949  0.8030 -0.3559
20188TIP3    H282056   0.601   4.915   4.517  0.0161  1.1602  0.1756
20189TIP3   OH282057   2.737   4.657   1.905  1.2180 -0.3242  0.7079
20189TIP3    H182058   2.731   4.701   1.820  0.3745 -0.4609  0.6863
20189TIP3    H282059   2.791   4.715   1.958  2.8774 -0.8717 -0.3097
20190TIP3   OH282060   6.083   4.332   4.528  0.3246 -0.1555 -0.2542
20190TIP3    H182061   6.157   4.392   4.527  0.6708 -0.5740  0.2140
20190TIP3    H282062   6.074   4.303   4.437  0.9970 -0.4313 -0.2314
20191TIP3   OH282063   1.813   0.324  11.282 -0.1821  0.0624 -0.6208
20191TIP3    H182064   1.799   0.322  11.377  1.9807 -2.9716 -0.2372
20191TIP3    H282065   1.866   0.402  11.267 -1.6443  1.3190  0.3863
20192TIP3   OH282066   5.263   0.027  12.508 -0.6941  0.6549 -0.3799
20192TIP3    H182067   5.301  -0.003  12.426  2.3560 -1.7293  1.6991
20192TIP3    H282068   5.293   0.118  12.517  1.1635  0.1145 -0.7385
20193TIP3   OH282069   3.299   1.979  15.526 -0.3421 -0.5953  0.2843
20193TIP3    H182070   3.238   2.020  15.464  1.6607  3.1382  0.4930
20193TIP3    H282071   3.368   1.942  15.470  0.1114  0.3908  0.1751
20194TIP3   OH282072   6.603   2.904   0.713  0.7336  0.0415  0.7107
20194TIP3    H182073   6.695   2.926   0.730  0.4217  0.2373  2.3871
20194TIP3    H282074   6.561   2.913   0.799 -0.8205 -0.2124  0.0018
20195TIP3   OH282075   5.023   4.879  11.973  0.0349  0.3006  0.1326
20195TIP3    H182076   4.999   4.786  11.972 -0.9340  0.5441 -1.1072
20195TIP3    H282077   5.065   4.893  11.888 -1.3895  1.3669 -0.4371
20196TIP3   OH282078   0.539   3.817   5.933 -0.2724 -0.3283  0.3966
20196TIP3    H182079   0.566   3.726   5.919 -1.1680 -0.1948 -3.0016
20196TIP3    H282080   0.445   3.812   5.953 -0.0630 -0.1698  1.5127
20197TIP3   OH282081   2.222   4.916  12.901  0.4779  0.1341 -0.0672
20197TIP3    H182082   2.241   4.973  12.826  1.2140  0.7824  0.5902
20197TIP3    H282083   2.136   4.945  12.932  0.7757  0.7928  0.1620
20198TIP3   OH282084   6.011   1.534  13.533 -0.2839 -0.1387 -0.5775
20198TIP3    H182085   6.049   1.456  13.494  0.4527  0.0333 -0.2123
20198TIP3    H282086   5.954   1.501  13.603  1.6341 -0.3045  0.9906
20199TIP3   OH282087   4.229   6.150  16.286 -0.3740 -0.4131  0.4790
20199TIP3    H182088   4.262   6.117  16.202 -0.5697  0.4682  0.0399
20199TIP3    H282089   4.149   6.100  16.301  0.2772 -1.4119  0.7388
20200TIP3   OH282090   5.914   0.775  14.078  0.2662 -0.1066 -0.1296
20200TIP3    H182091   5.846   0.712  14.054 -0.1432 -0.4478  1.8021
20200TIP3    H282092   5.991   0.747  14.028 -0.5049 -0.7816 -0.9824
20201TIP3   OH282093   2.442   0.852  12.687  0.1417 -0.6887 -0.3893
20201TIP3    H182094   2.403   0.934  12.719  0.4276  0.0292 -1.7618
20201TIP3    H282095   2.389   0.783  12.726  0.7694  0.0855  1.9497
20202TIP3   OH282096   5.514   5.587   0.224  0.6247 -0.0856  0.5574
20202TIP3    H182097   5.505   5.508   0.170 -0.8146  1.1282 -1.0800
20202TIP3    H282098   5.446   5.577   0.291  1.1195 -0.6740  0.9924
20203TIP3   OH282099   4.680   3.228   2.563 -0.5750  0.4246 -0.6228
20203TIP3    H182100   4.675   3.314   2.521 -0.4609  0.8006  0.1128
20203TIP3    H282101   4.768   3.197   2.543 -1.0024 -0.0287 -1.8460
20204TIP3   OH282102   0.818   1.797  15.906  0.1076 -0.1186 -0.4119
20204TIP3    H182103   0.785   1.802  15.816 -1.0285 -0.8083 -0.0478
20204TIP3    H282104   0.850   1.885  15.925 -0.7589  0.3548 -1.0779
20205TIP3   OH282105   0.206   1.979  11.878  0.0829  0.1684 -0.3980
20205TIP3    H182106   0.143   1.908  11.866 -1.7980  1.7703 -0.5008
20205TIP3    H282107   0.208   2.024  11.793  0.1684  1.0553  0.0591
20206TIP3   OH282108   3.422   2.919   0.191 -0.2175 -0.1103 -0.3028
20206TIP3    H182109   3.374   2.866   0.255  2.4802 -0.8374  1.2932
20206TIP3    H282110   3.435   2.860   0.117 -1.1522 -0.1187 -0.4748
20207TIP3   OH282111   3.757   1.309  11.399 -0.2139  0.2237 -0.3670
20207TIP3    H182112   3.838   1.275  11.438 -0.7524 -1.0229 -0.2989
20207TIP3    H282113   3.724   1.237  11.346  0.2899  1.7314 -2.8964
20208TIP3   OH282114   5.013   5.181  13.954  0.5932  0.2636 -0.5437
20208TIP3    H182115   5.054   5.103  13.991  1.3619 -0.2384 -2.3261
20208TIP3    H282116   4.959   5.149  13.882  0.4349  1.3157 -0.9204
20209TIP3   OH282117   1.070   2.538   1.460 -0.6702 -0.0225  0.6652
20209TIP3    H182118   0.991   2.583   1.430 -0.6888  0.4863  1.4316
20209TIP3    H282119   1.125   2.530   1.382 -1.7577 -1.0149 -0.0178
20210TIP3   OH282120   1.020   3.624  11.575  0.2398  0.1114  0.2347
20210TIP3    H182121   1.030   3.560  11.505  0.3348  1.3670 -0.9285
20210TIP3    H282122   0.940   3.673  11.552  0.5811  0.9049  0.6968
20211TIP3   OH282123   4.143   3.325  11.898 -0.3587  0.4019 -0.2453
20211TIP3    H182124   4.219   3.292  11.946 -0.9166 -0.2626  0.2004
20211TIP3    H282125   4.073   3.327  11.962 -1.1707 -0.7088 -1.0497
20212TIP3   OH282126   3.934   3.704   4.203  0.2447  0.2124 -0.1126
20212TIP3    H182127   3.924   3.659   4.119  1.0098  0.8069 -0.5401
20212TIP3    H282128   3.992   3.778   4.184  1.2538 -0.2099  1.1409
20213TIP3   OH282129   2.528   5.299  17.296  0.1856 -0.5991  0.5089
20213TIP3    H182130   2.570   5.376  17.335 -1.4706 -0.1977  1.6353
20213TIP3    H282131   2.599   5.236  17.285  1.3429  0.5937  0.8599
20214TIP3   OH282132   1.113   1.680  15.171 -0.6595  0.4992 -0.4855
20214TIP3    H182133   1.168   1.698  15.095 -1.1391  1.8601 -0.5310
20214TIP3    H282134   1.025   1.674  15.136 -0.6919 -0.5941 -0.2593
20215TIP3   OH282135   5.692   4.982   2.290  0.1785 -0.1320 -0.2362
20215TIP3    H182136   5.627   4.919   2.320 -1.4837  0.4749 -2.2893
20215TIP3    H282137   5.729   4.943   2.211  0.0592  0.8632 -0.8026
20216TIP3   OH282138   1.024   5.921   4.028  0.6030  0.3733  0.5628
20216TIP3    H182139   1.117   5.936   4.010  0.7352  0.0250  0.9276
20216TIP3    H282140   1.012   5.827   4.016  0.4665  0.2976  1.2308
20217TIP3   OH282141   2.507   2.921   0.120  0.0908 -0.2725  0.1356
20217TIP3    H182142   2.513   2.835   0.079 -2.5654 -0.3550 -0.2862
20217TIP3    H282143   2.499   2.903   0.214 -2.0753 -0.6819 -0.0697
20218TIP3   OH282144   2.548   6.490   1.894  0.4223 -0.3456 -0.3272
20218TIP3    H182145   2.539   6.395   1.905  1.1396 -0.1923  2.1525
20218TIP3    H282146   2.621   6.514   1.951 -0.8310  1.9126  0.4670
20219TIP3   OH282147   5.659   0.376   4.139 -0.0288  0.2614 -0.0695
20219TIP3    H182148   5.652   0.405   4.048 -1.8697  0.2104  0.0179
20219TIP3    H282149   5.677   0.456   4.188  0.9862  0.2891 -0.4523
20220TIP3   OH282150   5.555   0.273   5.000  0.6992  0.1249  0.1987
20220TIP3    H182151   5.511   0.265   5.084 -1.4377  1.9320 -0.6611
20220TIP3    H282152   5.618   0.344   5.012  0.2990  0.4734  0.2508
20221TIP3   OH282153   2.283   3.721  16.963  0.2372 -0.8054  0.0364
20221TIP3    H182154   2.205   3.758  17.006  1.0788  0.1714  0.7751
20221TIP3    H282155   2.351   3.726  17.029  1.0976 -1.0221 -0.8151
20222TIP3   OH282156   0.685   6.333   3.273  0.3344 -0.0844  0.3552
20222TIP3    H182157   0.656   6.377   3.193 -3.2735 -0.5362  1.2490
20222TIP3    H282158   0.700   6.242   3.245  3.8310  0.6528 -0.6473
20223TIP3   OH282159   3.467   5.590   1.063 -0.7064 -0.0180 -0.0487
20223TIP3    H182160   3.421   5.600   1.146  1.2843  0.9405  1.0169
20223TIP3    H282161   3.534   5.524   1.082  0.4785  1.0133 -0.5337
20224TIP3   OH282162   6.530   1.614   2.404  0.2580  0.1567  0.2738
20224TIP3    H182163   6.557   1.573   2.322 -0.8015  1.7728 -0.9646
20224TIP3    H282164   6.516   1.541   2.465  0.6006 -1.1118 -1.1118
20225TIP3   OH282165   2.868   4.850  13.981  0.2864 -0.3411  0.1653
20225TIP3    H182166   2.899   4.762  13.962  2.3850  0.3889 -0.0473
20225TIP3    H282167   2.850   4.889  13.896 -2.7345 -1.1778  0.3044
20226TIP3   OH282168   4.652   0.976   1.273 -0.5941 -0.5887 -0.0693
20226TIP3    H182169   4.715   1.041   1.243  0.2588 -0.1644  2.3612
20226TIP3    H282170   4.680   0.894   1.232  1.3727 -0.3359  0.6382
20227TIP3   OH282171   4.224   6.003  13.463  0.7133  0.0101  0.1920
20227TIP3    H182172   4.206   6.065  13.392  0.2584  1.1257  1.2307
20227TIP3    H282173   4.312   5.971  13.446  0.0113 -1.0542 -1.7834
20228TIP3   OH282174   4.427   3.902   1.996 -0.7343 -0.1852  0.0673
20228TIP3    H182175   4.337   3.933   2.003 -0.7042 -0.4229  2.3689
20228TIP3    H282176   4.449   3.873   2.085  1.3355 -0.9146 -0.6256
20229TIP3   OH282177   2.666   2.257  12.148 -0.1078  0.5295 -0.0950
20229TIP3    H182178   2.703   2.193  12.209 -0.5467  1.2346  0.9248
20229TIP3    H282179   2.574   2.232  12.141 -0.5500  1.6886  1.1833
20230TIP3   OH282180   6.086   6.067  15.717 -0.0617 -0.5122  0.3467
20230TIP3    H182181   6.016   6.132  15.704  0.1211 -0.4252 -0.2424
20230TIP3    H282182   6.158   6.117  15.755 -0.4236 -0.6665  1.2629
20231TIP3   OH282183   1.066   0.983  17.134 -0.5823  0.2173 -0.9632
20231TIP3    H182184   1.073   1.063  17.081 -2.7604  1.8853  1.0528
20231TIP3    H282185   1.070   1.014  17.225  0.5573 -2.2395 -0.1036
20232TIP3   OH282186   1.570   4.835   4.380 -0.3089  0.3188 -0.2460
20232TIP3    H182187   1.504   4.900   4.405  0.1528  0.8656 -0.4531
20232TIP3    H282188   1.643   4.886   4.346  0.1869 -0.2926 -0.1135
20233TIP3   OH282189   4.851   3.345   0.215  0.0180  0.1271 -0.2041
20233TIP3    H182190   4.839   3.322   0.122 -2.1246 -2.3839  0.5598
20233TIP3    H282191   4.772   3.394   0.238 -0.0570 -0.3248  0.5498
20234TIP3   OH282192   2.229   0.110   4.232  0.1747  0.2275 -0.1255
20234TIP3    H182193   2.237   0.203   4.257  0.4087  0.2240 -0.1842
20234TIP3    H282194   2.138   0.101   4.204  0.5598  0.8325 -1.6722
20235TIP3   OH282195   5.510   3.140  14.867 -0.0597 -0.6132  0.5061
20235TIP3    H182196   5.438   3.134  14.930  0.0723 -0.0162  0.7158
20235TIP3    H282197   5.552   3.223  14.886  0.5302 -0.8380  0.2103
20236TIP3   OH282198   2.386   3.315  14.415  0.0356 -0.1305  0.6107
20236TIP3    H182199   2.374   3.226  14.448 -1.1144 -0.6963 -1.1873
20236TIP3    H282200   2.395   3.305  14.320 -1.0137  1.7169  0.2534
20237TIP3   OH282201   0.714   5.518   5.287 -0.7032 -0.0383 -0.0478
20237TIP3    H182202   0.733   5.584   5.220 -2.9979  0.1612 -0.5995
20237TIP3    H282203   0.716   5.566   5.370 -0.2124  0.2387 -0.2160
20238TIP3   OH282204   1.764   0.151  14.262 -0.1059  0.0594 -0.3012
20238TIP3    H182205   1.702   0.079  14.250 -0.5757  0.4758 -0.4153
20238TIP3    H282206   1.812   0.155  14.179  0.1037 -0.2930 -0.1974
20239TIP3   OH282207   2.796   4.641   2.277 -0.1561 -0.1033  0.4852
20239TIP3    H182208   2.853   4.589   2.221  0.6605  0.7611  0.5033
20239TIP3    H282209   2.745   4.576   2.326  0.2564 -0.8723 -0.0880
20240TIP3   OH282210   5.016   4.137   2.368  0.3215  0.3214  0.2058
20240TIP3    H182211   5.081   4.197   2.406 -0.1387 -0.6133  2.6582
20240TIP3    H282212   4.941   4.144   2.427 -1.5628  0.7790 -2.1082
20241TIP3   OH282213   1.987   3.246  16.647 -0.3187 -0.4838 -0.0976
20241TIP3    H182214   2.006   3.167  16.697  1.2654  0.2742  0.5850
20241TIP3    H282215   1.969   3.215  16.558  0.9796 -1.5668 -0.0138
20242TIP3   OH282216   0.228   1.462   0.307  0.3634  0.1100  0.0671
20242TIP3    H182217   0.307   1.473   0.360  0.1300  0.2664  0.3873
20242TIP3    H282218   0.228   1.369   0.284  1.5830  0.4291 -1.4526
20243TIP3   OH282219   4.007   4.056  12.534  0.2915 -0.4855  0.3945
20243TIP3    H182220   4.092   4.083  12.502  0.5604 -0.0963  1.3902
20243TIP3    H282221   3.951   4.053  12.456  0.9410  0.3008 -0.1145
20244TIP3   OH282222   5.646   3.065   2.073 -0.1475  0.0463 -0.5226
20244TIP3    H182223   5.687   3.134   2.125  0.6932 -1.2032  0.5373
20244TIP3    H282224   5.669   3.086   1.982  1.5700  0.2507 -0.0777
20245TIP3   OH282225   5.436   5.766   2.005 -0.2787 -0.4267 -0.5697
20245TIP3    H182226   5.397   5.685   2.039  0.7200 -0.4918  0.5068
20245TIP3    H282227   5.515   5.777   2.058 -0.1995  1.0538 -0.9759
20246TIP3   OH282228   0.061   1.784   3.639 -0.1397 -0.3082 -0.3510
20246TIP3    H182229   0.142   1.835   3.631  0.9229 -2.0904 -1.5618
20246TIP3    H282230   0.042   1.755   3.550 -0.3511 -2.5012  0.3619
20247TIP3   OH282231   6.568   4.022  11.544  0.1999 -0.4461 -0.0086
20247TIP3    H182232   6.627   4.083  11.500  0.0550 -1.2020 -1.3025
20247TIP3    H282233   6.546   4.065  11.627  1.6295  0.3700 -0.0222
20248TIP3   OH282234   1.312   5.908  12.845 -0.4759  0.5318 -0.5098
20248TIP3    H182235   1.251   5.837  12.824  0.4889 -0.0389 -1.5231
20248TIP3    H282236   1.381   5.900  12.779  1.5083  0.1518  1.4706
20249TIP3   OH282237   2.857   1.742   4.286  0.3215 -0.8122 -0.0093
20249TIP3    H182238   2.841   1.777   4.198 -0.3956 -1.9279 -0.3485
20249TIP3    H282239   2.788   1.781   4.340 -0.1937 -1.3267 -0.2853
20250TIP3   OH282240   4.764   2.511  15.229 -0.2370  0.1804 -0.1165
20250TIP3    H182241   4.672   2.487  15.238 -1.4065  2.7705 -3.1101
20250TIP3    H282242   4.773   2.592  15.280  0.2429  0.1801 -0.1928
20251TIP3   OH282243   2.974   6.082  15.732 -0.4674  0.1545 -0.0350
20251TIP3    H182244   3.050   6.140  15.739 -0.7721  0.5534 -0.0129
20251TIP3    H282245   2.992   6.028  15.655 -0.5243  0.7902 -0.4999
20252TIP3   OH282246   3.246   4.901  15.112  0.1494 -0.4812  0.3742
20252TIP3    H182247   3.319   4.912  15.051  0.5850  1.9123  1.2304
20252TIP3    H282248   3.168   4.907  15.057  0.5395  1.1642 -0.0453
20253TIP3   OH282249   6.115   2.948   4.385 -0.0549  0.0270 -0.0261
20253TIP3    H182250   6.105   2.998   4.305  1.5358 -1.8762 -1.5364
20253TIP3    H282251   6.209   2.934   4.393 -0.2263 -0.3517  1.8570
20254TIP3   OH282252   6.088   0.391  15.087  0.1315 -0.7502  0.2059
20254TIP3    H182253   6.137   0.391  15.004  1.0561 -0.5934  0.7312
20254TIP3    H282254   6.025   0.462  15.077 -0.9100 -1.7843 -0.9930
20255TIP3   OH282255   5.111   3.553   1.363 -0.2302 -0.0421 -0.1833
20255TIP3    H182256   5.179   3.487   1.352 -0.6119 -0.7672  1.4177
20255TIP3    H282257   5.092   3.551   1.457 -1.2004  1.4097 -0.3227
20256TIP3   OH282258   2.464   6.280   5.060  0.7707  0.5079 -0.4321
20256TIP3    H182259   2.481   6.309   4.971  1.9998 -0.8448 -0.6781
20256TIP3    H282260   2.373   6.250   5.059  1.0284 -0.3070 -1.4888
20257TIP3   OH282261   4.543   5.001  12.147  0.4855  0.6935 -0.1396
20257TIP3    H182262   4.508   4.971  12.064  1.7813 -1.5391  0.0567
20257TIP3    H282263   4.637   5.011  12.132  0.8132 -0.1861  1.1596
20258TIP3   OH282264   0.457   3.007  13.209 -0.8692 -0.3274  0.4085
20258TIP3    H182265   0.381   3.039  13.161 -0.8709 -1.0014 -0.0564
20258TIP3    H282266   0.420   2.953  13.279 -0.8362 -0.0908  0.6100
20259TIP3   OH282267   3.328   1.532   0.560 -0.2749 -0.3407  0.3275
20259TIP3    H182268   3.290   1.480   0.631 -0.9533  0.7466  0.7946
20259TIP3    H282269   3.373   1.469   0.504 -1.2605 -1.4455  0.7557
20260TIP3   OH282270   4.426   1.160   1.283  0.2075 -0.1064  0.1627
20260TIP3    H182271   4.507   1.112   1.300 -0.5734 -1.2324  0.7682
20260TIP3    H282272   4.428   1.233   1.345 -0.4421 -1.5983  2.0185
20261TIP3   OH282273   0.614   0.529  14.879  0.1810 -0.0800 -0.0701
20261TIP3    H182274   0.676   0.574  14.822 -1.1619  1.9239 -0.0525
20261TIP3    H282275   0.613   0.581  14.959 -1.9340  0.3226 -0.3070
20262TIP3   OH282276   1.976   5.075  13.972  0.4569 -0.4250 -0.2431
20262TIP3    H182277   2.040   5.059  13.903  0.4365 -1.0284 -0.1326
20262TIP3    H282278   1.964   4.989  14.014 -0.0572 -0.2179  0.0506
20263TIP3   OH282279   5.026   2.536   4.850 -0.0474 -1.1266 -0.3539
20263TIP3    H182280   5.083   2.597   4.804 -0.1758 -1.5945 -1.1368
20263TIP3    H282281   5.023   2.570   4.940  3.9202 -2.7593  0.5876
20264TIP3   OH282282   3.628   1.254  14.100 -0.1490 -0.3089 -0.0565
20264TIP3    H182283   3.550   1.208  14.070 -0.4592 -0.3671  0.8128
20264TIP3    H282284   3.615   1.264  14.194  0.0388  1.3085 -0.1799
20265LIG     O182285   5.110   5.341  16.411  0.7278 -0.1960  0.1444
20265LIG     O282286   5.011   5.051  16.763  0.1530 -0.2126 -0.8869
20265LIG     N182287   5.019   4.962  16.544 -0.6613 -0.3964 -0.1387
20265LIG     N282288   5.072   5.104  16.228 -0.2356 -0.0822 -0.2841
20265LIG     N382289   5.067   5.195  16.588  0.0719  0.0495  0.0953
20265LIG     N482290   5.034   4.900  16.305 -0.0728  1.2345  0.1006
20265LIG     C182291   5.072   5.116  16.368  0.4590  0.5067  0.3228
20265LIG     C282292   5.046   4.988  16.413  0.2483 -0.0842  0.1257
20265LIG     C382293   5.092   5.224  16.450 -0.2701 -0.2017 -0.2650
20265LIG     C482294   5.030   5.066  16.637  0.5303  0.0030 -0.7217
20265LIG     C582295   5.042   4.974  16.196 -0.8467 -0.9537 -0.1697
20265LIG     C682296   4.982   4.830  16.604  0.0551 -0.1905  0.2814
20265LIG     C782297   5.099   5.215  16.138  0.3647 -0.1657 -0.5542
20265LIG     C882298   5.082   5.303  16.685  0.2978 -0.4324 -0.0390
20265LIG     H182299   5.048   4.942  16.092  1.7980 -1.9723  0.2284
20265LIG     H282300   5.032   4.807  16.701 -1.7779 -2.7135  0.7303
20265LIG     H382301   5.010   4.751  16.532  2.9150  0.7016  0.2995
20265LIG     H482302   4.872   4.828  16.618  0.1639  0.8233  1.5744
20265LIG     H582303   5.080   5.202  16.029 -3.3502 -0.8546  0.0148
20265LIG     H682304   5.207   5.237  16.150  0.4269  0.8260 -2.5005
20265LIG     H782305   5.032   5.300  16.163 -0.1714 -0.6480 -0.3381
20265LIG     H882306   5.103   5.261  16.786  2.5469 -0.4499 -0.4555
20265LIG     H982307   4.995   5.372  16.680  1.7934  1.8071  2.3857
20265LIG    H1082308   5.169   5.370  16.670 -0.1532  0.3083  0.6316
   6.82563   6.82563  17.32461
